       N       E                     dE             d eps       ncg     rms          rms(c)
DAV:   1    -0.211569550738E+03   -0.21157E+03   -0.10393E-02 20480   0.529E-01    0.320E-03
DAV:   2    -0.211569550642E+03    0.96461E-07   -0.70569E-07 10304   0.409E-03
   1 F= -.21156955E+03 E0= -.21156955E+03  d E =-.211570E+03  mag=    -0.0000
