LTO                                     
           1
     7.907866    0.000002    0.000001
     0.000002    7.907867    0.000001
     0.000001    0.000001    7.407622
   Ti   O    F 
   8   8  16
Direct configuration=     1
   1.00000000  0.00000001  0.00000000
   1.00000000  0.00000001  0.50000000
   0.00000000  0.50000003  0.00000000
   0.00000000  0.50000003  0.50000000
   0.50000000  0.99999994  0.00000000
   0.50000000  0.99999993  0.50000000
   0.50000000  0.50000000  0.00000000
   0.50000000  0.50000000  0.50000000
   0.00000000  0.99999999  0.24999999
   0.00000000  0.99999999  0.75000001
   1.00000000  0.49999999  0.25000000
   1.00000000  0.49999999  0.75000000
   0.50000000  0.99999979  0.25000000
   0.50000000  0.99999979  0.75000000
   0.50000000  0.50000008  0.25000001
   0.50000000  0.50000008  0.74999999
   0.24999999  0.99999993  0.99999999
   0.25000000  0.99999993  0.49999999
   0.25000004  0.50000019  0.00000002
   0.25000004  0.50000018  0.50000000
   0.75000001  0.99999995  0.00000001
   0.75000000  0.99999995  0.50000001
   0.74999996  0.50000017  0.00000000
   0.74999997  0.50000016  0.49999998
   0.99999999  0.25000000  1.00000000
   0.99999999  0.25000000  0.50000000
   0.00000000  0.75000004  0.00000000
   0.00000001  0.75000003  0.50000000
   0.50000000  0.24999998  0.00000001
   0.50000001  0.24999998  0.49999999
   0.49999999  0.74999995  0.00000000
   0.49999999  0.74999995  0.49999999
