 vasp.5.4.4.18Apr17-6-g9f103f2a35 (build Jul 16 2019 12:12:28) complex          
  
 executed on             LinuxIFC date 2020.01.06  10:20:13
 running on   96 total cores
 distrk:  each k-point on   96 cores,    1 groups
 distr:  one band on NCORES_PER_BAND=   8 cores,   12 groups


--------------------------------------------------------------------------------------------------------


 INCAR:
 POTCAR:    PAW_PBE Li_sv 10Sep2004               
 POTCAR:    PAW_PBE Ti_pv 07Sep2000               
 POTCAR:    PAW_PBE O 08Apr2002                   
 POTCAR:    PAW_PBE F 08Apr2002                   
 POTCAR:    PAW_PBE Li_sv 10Sep2004               
   VRHFIN =Li: 1s2s2p                                                           
   LEXCH  = PE                                                                  
   EATOM  =   202.7858 eV,   14.9043 Ry                                         
                                                                                
   TITEL  = PAW_PBE Li_sv 10Sep2004                                             
   LULTRA =        F    use ultrasoft PP ?                                      
   IUNSCR =        0    unscreen: 0-lin 1-nonlin 2-no                           
   RPACOR =    0.000    partial core radius                                     
   POMASS =    7.010; ZVAL   =    3.000    mass and valenz                      
   RCORE  =    1.700    outmost cutoff radius                                   
   RWIGS  =    2.050; RWIGS  =    1.085    wigner-seitz radius (au A)           
   ENMAX  =  499.034; ENMIN  =  374.276 eV                                      
   ICORE  =        2    local potential                                         
   LCOR   =        T    correct aug charges                                     
   LPAW   =        T    paw PP                                                  
   EAUG   =  628.945                                                            
   RMAX   =    1.732    core radius for proj-oper                               
   RAUG   =    1.300    factor for augmentation sphere                          
   RDEP   =    1.728    radius for radial grids                                 
   RDEPT  =    1.329    core radius for aug-charge                              
                                                                                
   Atomic configuration                                                         
    4 entries                                                                   
     n  l   j            E        occ.                                          
     1  0  0.50       -51.8549   2.0000                                         
     2  0  0.50        -2.8742   1.0000                                         
     2  1  0.50        -1.3606   0.0000                                         
     3  2  1.50        -1.3606   0.0000                                         
   Description                                                                  
     l       E           TYP  RCUT    TYP  RCUT                                 
     0    -51.8548813     23  1.400                                             
     0     -2.8742052     23  1.700                                             
     1     -1.3605826     23  1.400                                             
     2     -1.3605826     23  1.400                                             
  local pseudopotential read in
  atomic valenz-charges read in
  non local Contribution for L=           0  read in
    real space projection operators read in
  non local Contribution for L=           0  read in
    real space projection operators read in
  non local Contribution for L=           1  read in
    real space projection operators read in
    PAW grid and wavefunctions read in
 
   number of l-projection  operators is LMAX  =           3
   number of lm-projection operators is LMMAX =           5
 
 POTCAR:    PAW_PBE Ti_pv 07Sep2000               
   VRHFIN =Ti: d3 s1                                                            
   LEXCH  = PE                                                                  
   EATOM  =  1042.5995 eV,   76.6289 Ry                                         
                                                                                
   TITEL  = PAW_PBE Ti_pv 07Sep2000                                             
   LULTRA =        F    use ultrasoft PP ?                                      
   IUNSCR =        1    unscreen: 0-lin 1-nonlin 2-no                           
   RPACOR =    2.200    partial core radius                                     
   POMASS =   47.880; ZVAL   =   10.000    mass and valenz                      
   RCORE  =    2.500    outmost cutoff radius                                   
   RWIGS  =    2.500; RWIGS  =    1.323    wigner-seitz radius (au A)           
   ENMAX  =  222.335; ENMIN  =  166.751 eV                                      
   RCLOC  =    1.701    cutoff for local pot                                    
   LCOR   =        T    correct aug charges                                     
   LPAW   =        T    paw PP                                                  
   EAUG   =  482.848                                                            
   DEXC   =    0.000                                                            
   RMAX   =    2.564    core radius for proj-oper                               
   RAUG   =    1.300    factor for augmentation sphere                          
   RDEP   =    2.538    radius for radial grids                                 
   RDEPT  =    1.952    core radius for aug-charge                              
                                                                                
   Atomic configuration                                                         
    8 entries                                                                   
     n  l   j            E        occ.                                          
     1  0  0.50     -4865.3608   2.0000                                         
     2  0  0.50      -533.1368   2.0000                                         
     2  1  1.50      -440.5031   6.0000                                         
     3  0  0.50       -59.3186   2.0000                                         
     3  1  1.50       -35.7012   6.0000                                         
     3  2  2.50        -1.9157   3.0000                                         
     4  0  0.50        -3.7291   1.0000                                         
     4  3  2.50        -1.3606   0.0000                                         
   Description                                                                  
     l       E           TYP  RCUT    TYP  RCUT                                 
     1    -35.7012140     23  2.300                                             
     1     -1.3605826     23  2.300                                             
     2     -1.9156996     23  2.500                                             
     2     -0.4063033     23  2.500                                             
     0     -3.7290856     23  2.500                                             
     0     20.4087390     23  2.500                                             
  local pseudopotential read in
  partial core-charges read in
  partial kinetic energy density read in
  atomic valenz-charges read in
  non local Contribution for L=           1  read in
    real space projection operators read in
  non local Contribution for L=           1  read in
    real space projection operators read in
  non local Contribution for L=           2  read in
    real space projection operators read in
  non local Contribution for L=           2  read in
    real space projection operators read in
  non local Contribution for L=           0  read in
    real space projection operators read in
  non local Contribution for L=           0  read in
    real space projection operators read in
    PAW grid and wavefunctions read in
 
   number of l-projection  operators is LMAX  =           6
   number of lm-projection operators is LMMAX =          18
 
 POTCAR:    PAW_PBE O 08Apr2002                   
   VRHFIN =O: s2p4                                                              
   LEXCH  = PE                                                                  
   EATOM  =   432.3788 eV,   31.7789 Ry                                         
                                                                                
   TITEL  = PAW_PBE O 08Apr2002                                                 
   LULTRA =        F    use ultrasoft PP ?                                      
   IUNSCR =        1    unscreen: 0-lin 1-nonlin 2-no                           
   RPACOR =    1.200    partial core radius                                     
   POMASS =   16.000; ZVAL   =    6.000    mass and valenz                      
   RCORE  =    1.520    outmost cutoff radius                                   
   RWIGS  =    1.550; RWIGS  =    0.820    wigner-seitz radius (au A)           
   ENMAX  =  400.000; ENMIN  =  300.000 eV                                      
   ICORE  =        2    local potential                                         
   LCOR   =        T    correct aug charges                                     
   LPAW   =        T    paw PP                                                  
   EAUG   =  605.392                                                            
   DEXC   =    0.000                                                            
   RMAX   =    1.553    core radius for proj-oper                               
   RAUG   =    1.300    factor for augmentation sphere                          
   RDEP   =    1.550    radius for radial grids                                 
   RDEPT  =    1.329    core radius for aug-charge                              
                                                                                
   Atomic configuration                                                         
    4 entries                                                                   
     n  l   j            E        occ.                                          
     1  0  0.50      -514.6923   2.0000                                         
     2  0  0.50       -23.9615   2.0000                                         
     2  1  0.50        -9.0305   4.0000                                         
     3  2  1.50        -9.5241   0.0000                                         
   Description                                                                  
     l       E           TYP  RCUT    TYP  RCUT                                 
     0    -23.9615318     23  1.200                                             
     0     -9.5240782     23  1.200                                             
     1     -9.0304911     23  1.520                                             
     1      8.1634956     23  1.520                                             
     2     -9.5240782      7  1.500                                             
  local pseudopotential read in
  partial core-charges read in
  partial kinetic energy density read in
  kinetic energy density of atom read in
  atomic valenz-charges read in
  non local Contribution for L=           0  read in
    real space projection operators read in
  non local Contribution for L=           0  read in
    real space projection operators read in
  non local Contribution for L=           1  read in
    real space projection operators read in
  non local Contribution for L=           1  read in
    real space projection operators read in
    PAW grid and wavefunctions read in
 
   number of l-projection  operators is LMAX  =           4
   number of lm-projection operators is LMMAX =           8
 
 POTCAR:    PAW_PBE F 08Apr2002                   
   VRHFIN =F: s2p5                                                              
   LEXCH  = PE                                                                  
   EATOM  =   659.6475 eV,   48.4827 Ry                                         
                                                                                
   TITEL  = PAW_PBE F 08Apr2002                                                 
   LULTRA =        F    use ultrasoft PP ?                                      
   IUNSCR =        1    unscreen: 0-lin 1-nonlin 2-no                           
   RPACOR =    1.200    partial core radius                                     
   POMASS =   18.998; ZVAL   =    7.000    mass and valenz                      
   RCORE  =    1.520    outmost cutoff radius                                   
   RWIGS  =    1.500; RWIGS  =    0.794    wigner-seitz radius (au A)           
   ENMAX  =  400.000; ENMIN  =  300.000 eV                                      
   ICORE  =        2    local potential                                         
   LCOR   =        T    correct aug charges                                     
   LPAW   =        T    paw PP                                                  
   EAUG   =  613.614                                                            
   RMAX   =    1.555    core radius for proj-oper                               
   RAUG   =    1.300    factor for augmentation sphere                          
   RDEP   =    1.539    radius for radial grids                                 
   RDEPT  =    1.299    core radius for aug-charge                              
                                                                                
   Atomic configuration                                                         
    4 entries                                                                   
     n  l   j            E        occ.                                          
     1  0  0.50      -663.3661   2.0000                                         
     2  0  0.50       -29.8995   2.0000                                         
     2  1  0.50       -11.1114   5.0000                                         
     3  2  1.50       -10.8847   0.0000                                         
   Description                                                                  
     l       E           TYP  RCUT    TYP  RCUT                                 
     0    -29.8995018     23  1.200                                             
     0     -9.5240782     23  1.200                                             
     1    -11.1113914     23  1.520                                             
     1      1.3605826     23  1.520                                             
     2    -10.8846608      7  1.500                                             
  local pseudopotential read in
  partial core-charges read in
  partial kinetic energy density read in
  atomic valenz-charges read in
  non local Contribution for L=           0  read in
    real space projection operators read in
  non local Contribution for L=           0  read in
    real space projection operators read in
  non local Contribution for L=           1  read in
    real space projection operators read in
  non local Contribution for L=           1  read in
    real space projection operators read in
    PAW grid and wavefunctions read in
 
   number of l-projection  operators is LMAX  =           4
   number of lm-projection operators is LMMAX =           8
 
 Optimization of the real space projectors (new method)

 maximal supplied QI-value         = 22.11
 optimisation between [QCUT,QGAM] = [ 11.28, 22.77] = [ 35.61,145.23] Ry 
 Optimized for a Real-space Cutoff    1.31 Angstroem

   l    n(q)    QCUT    max X(q) W(low)/X(q) W(high)/X(q)  e(spline) 
   0      9    11.276    10.506    0.19E-04    0.17E-04    0.32E-07
   0      9    11.276     8.367    0.38E-04    0.40E-04    0.65E-07
   1      8    11.276     8.983    0.55E-04    0.98E-04    0.20E-06
 Optimization of the real space projectors (new method)

 maximal supplied QI-value         = 15.12
 optimisation between [QCUT,QGAM] = [ 11.34, 22.83] = [ 36.00,145.93] Ry 
 Optimized for a Real-space Cutoff    1.56 Angstroem

   l    n(q)    QCUT    max X(q) W(low)/X(q) W(high)/X(q)  e(spline) 
   1     10    11.338     4.216    0.27E-04    0.12E-04    0.66E-07
   1     10    11.338     5.422    0.81E-04    0.24E-04    0.19E-06
   2     10    11.338    72.084    0.64E-04    0.21E-03    0.51E-06
   2     10    11.338    65.965    0.63E-04    0.21E-03    0.50E-06
   0     11    11.338    41.531    0.33E-04    0.54E-04    0.13E-06
   0     11    11.338    16.290    0.26E-04    0.41E-04    0.11E-06
 Optimization of the real space projectors (new method)

 maximal supplied QI-value         = 24.76
 optimisation between [QCUT,QGAM] = [ 11.39, 22.77] = [ 36.31,145.25] Ry 
 Optimized for a Real-space Cutoff    1.20 Angstroem

   l    n(q)    QCUT    max X(q) W(low)/X(q) W(high)/X(q)  e(spline) 
   0      8    11.387    20.381    0.89E-04    0.31E-03    0.27E-06
   0      8    11.387    15.268    0.93E-04    0.32E-03    0.29E-06
   1      8    11.387     5.964    0.53E-04    0.28E-03    0.29E-06
   1      8    11.387     5.382    0.37E-04    0.22E-03    0.26E-06
 Optimization of the real space projectors (new method)

 maximal supplied QI-value         = 24.76
 optimisation between [QCUT,QGAM] = [ 11.39, 22.77] = [ 36.31,145.25] Ry 
 Optimized for a Real-space Cutoff    1.20 Angstroem

   l    n(q)    QCUT    max X(q) W(low)/X(q) W(high)/X(q)  e(spline) 
   0      8    11.387    14.049    0.69E-04    0.23E-03    0.18E-06
   0      8    11.387     8.945    0.88E-04    0.30E-03    0.26E-06
   1      8    11.387     7.086    0.62E-04    0.27E-03    0.27E-06
   1      8    11.387     6.747    0.46E-04    0.23E-03    0.25E-06

 ----------------------------------------------------------------------------- 
|                                                                             |
|  ADVICE TO THIS USER RUNNING 'VASP/VAMP'   (HEAR YOUR MASTER'S VOICE ...):  |
|                                                                             |
|      You enforced a specific xc-type in the INCAR file,                     |
|      a different type was found on the POTCAR file                          |
|          I HOPE YOU KNOW, WHAT YOU ARE  DOING                               |
|                                                                             |
 ----------------------------------------------------------------------------- 

  PAW_PBE Li_sv 10Sep2004               :
 energy of atom  1       EATOM= -202.7858
 kinetic energy error for atom=    0.0143 (will be added to EATOM!!)
  PAW_PBE Ti_pv 07Sep2000               :
 energy of atom  2       EATOM=-1042.5995
 kinetic energy error for atom=    0.0024 (will be added to EATOM!!)
  PAW_PBE O 08Apr2002                   :
 energy of atom  3       EATOM= -432.3788
 kinetic energy error for atom=    0.0224 (will be added to EATOM!!)
  PAW_PBE F 08Apr2002                   :
 energy of atom  4       EATOM= -659.6475
 kinetic energy error for atom=    0.0354 (will be added to EATOM!!)
 
 
 POSCAR: config 17                               
  positions in direct lattice
  velocities in cartesian coordinates
 exchange correlation table for  LEXCH =       14
   RHO(1)=    0.500       N(1)  =     2000
   RHO(2)=  100.500       N(2)  =     4000

 VTST: version 3.2, (02/03/18)

 CHAIN: initializing optimizer
 
 OPT: Using VASP QUASI-newton optimizer
 CHAIN: Read ICHAIN            0
 
 POSCAR: config 17                               
  positions in direct lattice
  velocities in cartesian coordinates
 


--------------------------------------------------------------------------------------------------------


 ion  position               nearest neighbor table
   1  0.327  0.129  0.132-  75 1.99  82 2.01 239 2.07
   2  0.995  0.995  0.995- 118 1.86  68 1.88 103 1.88 212 2.04 130 2.04 171 2.04
   3  0.001  0.992  0.494- 119 1.80  67 1.84 172 1.94 193 1.95 131 2.00 213 2.08
   4  0.005  0.494  0.998-  89 1.84 117 1.85 138 1.93 132 1.98 194 2.02 214 2.02
   5  0.994  0.503  0.507-  66 1.82 104 1.83 215 1.93 223 2.00 173 2.01 137 2.03
   6  0.495  0.993  0.998- 121 1.83 101 1.86 133 1.95 140 1.95 216 2.01 174 2.01
   7  0.501  0.008  0.500- 112 1.77 139 1.91 191 1.92 134 1.92 175 1.93 225 2.02
   8  0.503  0.495  0.996-  70 1.88  90 1.88 120 1.88 192 2.02 135 2.03 217 2.05
   9  0.492  0.499  0.495- 102 1.81  69 1.85 224 1.96 218 1.98 136 2.01 176 2.06
  10  0.005  0.003  0.256-  67 1.85  91 1.87 219 1.94 227 1.97 130 2.00 197 2.01
  11  0.002  0.008  0.757-  68 1.79 113 1.84 177 1.95 198 1.98 228 2.04 131 2.06
  12  0.994  0.494  0.252- 107 1.82 122 1.86 137 1.93 132 1.96 220 2.01 178 2.02
  13  0.993  0.499  0.742- 108 1.82  66 1.82 226 1.93 221 1.97 138 2.02 179 2.04
  14  0.504  0.010  0.250- 114 1.74  92 1.89 133 1.96 139 1.98 195 2.02 231 2.09
  15  0.493  0.005  0.751- 105 1.81 115 1.83 140 1.93 134 1.98 232 2.01 180 2.03
  16  0.494  0.498  0.257-  69 1.83 106 1.86 229 1.91 222 1.99 135 2.02 181 2.04
  17  0.501  0.504  0.758-  70 1.80 116 1.87 182 1.94 196 1.97 230 2.03 136 2.06
  18  0.994  0.257  0.002- 117 1.83 110 1.85 141 1.96 146 1.96 212 2.02 183 2.04
  19  0.999  0.248  0.492-  74 1.77 213 1.91 202 1.92 184 1.93 223 1.94 142 2.01
  20  0.998  0.758  0.006- 118 1.81  71 1.85 203 1.94 185 1.97 148 2.04 214 2.05
  21  0.998  0.756  0.506-  72 1.83 119 1.83 204 1.94 186 1.96 215 2.02 147 2.02
  22  0.495  0.257  0.001- 120 1.79 109 1.88 143 1.91 150 1.96 187 2.02 216 2.08
  23  0.509  0.245  0.500-  93 1.81 149 1.88 112 1.90 144 1.93 224 1.98 199 2.01
  24  0.507  0.756  0.998-  94 1.82 121 1.84 152 1.93 145 1.98 217 2.00 200 2.02
  25  0.507  0.753  0.509-  73 1.79  95 1.83 225 1.95 218 1.95 201 2.01 151 2.06
  26  0.999  0.259  0.255- 122 1.79  74 1.88 209 1.92 188 1.98 141 1.98 219 2.03
  27  0.007  0.242  0.748- 113 1.80  96 1.83 142 1.96 146 1.97 210 2.04 226 2.04
  28  0.007  0.748  0.243-  71 1.82  97 1.84 220 1.94 227 1.98 211 2.04 147 2.05
  29  0.993  0.751  0.743- 111 1.82  72 1.84 228 1.93 221 1.97 148 2.02 189 2.02
  30  0.507  0.245  0.251-  98 1.90 114 1.95 143 1.99 149 2.01 229 2.04 205 2.04
  31  0.507  0.243  0.750-  99 1.83 115 1.85 150 1.92 144 1.95 230 2.02 206 2.03
  32  0.507  0.752  0.252- 100 1.80 231 1.90 151 1.92 222 1.94 145 1.94 207 2.02
  33  0.502  0.742  0.743- 116 1.80  73 1.84 190 1.93 208 1.97 152 2.02 232 2.06
  34  0.257  0.998  0.004- 101 1.85  75 1.88 246 1.92 233 1.98 171 2.00 157 2.01
  35  0.251  0.995  0.507- 128 1.82  76 1.84 172 1.94 191 1.97 234 2.02 156 2.05
  36  0.243  0.508  0.997- 123 1.82  89 1.83 159 1.93 153 1.97 192 2.01 245 2.05
  37  0.254  0.495  0.507-  77 1.85 102 1.87 127 1.88 173 2.03 235 2.04 158 2.05
  38  0.758  0.001  0.994- 103 1.79  81 1.87 236 1.95 249 1.96 154 2.04 174 2.06
  39  0.751  0.007  0.494-  80 1.81 124 1.84 193 1.94 175 1.99 155 2.01 250 2.03
  40  0.742  0.500  0.005-  90 1.80  78 1.87 237 1.95 247 1.95 161 2.03 194 2.05
  41  0.756  0.498  0.505-  79 1.84 104 1.85 248 1.94 238 1.98 176 2.01 160 2.02
  42  0.244  0.002  0.244-  91 1.82  75 1.88 252 1.94 239 1.97 156 2.00 195 2.05
  43  0.258  0.998  0.744- 105 1.83  76 1.84 253 1.93 240 1.97 177 2.02 157 2.04
  44  0.256  0.494  0.251- 106 1.81 129 1.86 158 1.92 153 1.96 241 2.01 178 2.04
  45  0.247  0.507  0.742-  77 1.79 125 1.84 179 1.94 196 1.97 251 2.03 159 2.06
  46  0.743  0.001  0.255-  92 1.81  80 1.88 242 1.95 256 1.96 154 2.00 197 2.05
  47  0.749  0.006  0.756-  81 1.82 126 1.83 180 1.95 198 1.97 257 2.04 155 2.05
  48  0.756  0.499  0.243-  78 1.81 107 1.86 254 1.95 243 1.96 181 2.02 160 2.04
  49  0.757  0.498  0.743- 108 1.83  79 1.84 255 1.93 244 1.98 182 2.03 161 2.03
  50  0.257  0.252  0.005- 109 1.83  82 1.89 245 1.91 233 1.99 168 1.99 183 2.02
  51  0.253  0.257  0.507- 127 1.80  83 1.84 199 1.94 184 2.00 234 2.05 167 2.06
  52  0.252  0.743  0.993- 123 1.81  86 1.83 200 1.93 185 1.96 162 2.04 246 2.05
  53  0.252  0.756  0.493-  85 1.83 128 1.86 201 1.94 186 1.97 235 2.00 163 2.04
  54  0.756  0.250  0.009-  84 1.82 110 1.83 236 1.94 247 1.95 187 2.04 170 2.05
  55  0.744  0.242  0.499- 124 1.81  93 1.83 169 1.93 164 1.96 248 2.02 202 2.04
  56  0.742  0.750  0.994-  94 1.82  88 1.83 237 1.94 249 1.95 203 2.01 165 2.04
  57  0.742  0.752  0.494-  95 1.81  87 1.85 250 1.94 238 1.96 166 2.02 204 2.03
  58  0.249  0.260  0.245- 129 1.79  82 1.87 205 1.95 188 1.97 167 1.99 239 2.10
  59  0.244  0.251  0.744-  83 1.83  96 1.84 251 1.93 240 1.98 206 2.03 168 2.05
  60  0.244  0.748  0.255-  97 1.82  85 1.84 241 1.93 252 1.98 162 2.02 207 2.05
  61  0.248  0.742  0.757- 125 1.81  86 1.84 189 1.93 208 1.97 163 2.04 253 2.04
  62  0.741  0.250  0.244-  98 1.76  84 1.83 254 1.95 242 1.95 169 2.06 209 2.08
  63  0.744  0.242  0.752- 126 1.82  99 1.84 170 1.93 164 1.99 210 2.02 255 2.04
  64  0.746  0.750  0.257-  87 1.82 100 1.89 243 1.94 256 1.94 211 1.99 165 2.02
  65  0.757  0.751  0.757- 111 1.82  88 1.84 257 1.93 244 1.97 190 2.03 166 2.05
  66  0.007  0.502  0.625-   5 1.82  13 1.82
  67  0.998  0.006  0.376-   3 1.84  10 1.85
  68  0.003  0.002  0.873-  11 1.79   2 1.88
  69  0.500  0.496  0.375-  16 1.83   9 1.85
  70  0.495  0.498  0.874-  17 1.80   8 1.88
  71  0.999  0.746  0.126-  28 1.82  20 1.85
  72  0.001  0.746  0.624-  21 1.83  29 1.84
  73  0.501  0.755  0.624-  25 1.79  33 1.84
  74  0.996  0.247  0.377-  19 1.77  26 1.88
  75  0.262  0.018  0.125-  34 1.88  42 1.88   1 1.99
  76  0.256  0.007  0.625-  35 1.84  43 1.84
  77  0.240  0.500  0.626-  45 1.79  37 1.85
  78  0.751  0.493  0.126-  48 1.81  40 1.87
  79  0.747  0.495  0.624-  49 1.84  41 1.84
  80  0.751  0.998  0.376-  39 1.81  46 1.88
  81  0.746  0.997  0.873-  47 1.82  38 1.87
  82  0.251  0.235  0.126-  58 1.87  50 1.89   1 2.01
  83  0.252  0.246  0.625-  59 1.83  51 1.84
  84  0.743  0.257  0.126-  54 1.82  62 1.83
  85  0.254  0.752  0.374-  53 1.83  60 1.84
  86  0.251  0.759  0.875-  52 1.83  61 1.84
  87  0.752  0.753  0.374-  64 1.82  57 1.85
  88  0.748  0.753  0.875-  56 1.83  65 1.84
  89  0.125  0.500  0.995-  36 1.83   4 1.84
  90  0.625  0.503  0.999-  40 1.80   8 1.88
  91  0.126  0.007  0.248-  42 1.82  10 1.87
  92  0.626  0.006  0.249-  46 1.81  14 1.89
  93  0.625  0.255  0.497-  23 1.81  55 1.83
  94  0.625  0.745  0.003-  56 1.82  24 1.82
  95  0.625  0.760  0.497-  57 1.81  25 1.83
  96  0.125  0.251  0.750-  27 1.83  59 1.84
  97  0.126  0.749  0.251-  60 1.82  28 1.84
  98  0.629  0.239  0.264-  62 1.76  30 1.90
  99  0.625  0.252  0.748-  31 1.83  63 1.84
 100  0.623  0.750  0.250-  32 1.80  64 1.89
 101  0.376  0.005  0.991-  34 1.85   6 1.86
 102  0.375  0.504  0.503-   9 1.81  37 1.87
 103  0.874  0.006  0.999-  38 1.79   2 1.88
 104  0.876  0.501  0.499-   5 1.83  41 1.85
 105  0.376  0.996  0.758-  15 1.81  43 1.83
 106  0.373  0.494  0.250-  44 1.81  16 1.86
 107  0.876  0.494  0.253-  12 1.82  48 1.86
 108  0.875  0.507  0.748-  13 1.82  49 1.83
 109  0.375  0.239  0.005-  50 1.83  22 1.88
 110  0.875  0.244  0.004-  54 1.83  18 1.85
 111  0.875  0.745  0.750-  65 1.82  29 1.82
 112  0.508  0.122  0.501-   7 1.77  23 1.90
 113  0.996  0.126  0.744-  27 1.80  11 1.84
 114  0.483  0.121  0.254-  14 1.74  30 1.95
 115  0.501  0.123  0.745-  15 1.83  31 1.85
 116  0.501  0.625  0.748-  33 1.80  17 1.87
 117  0.997  0.375  0.004-  18 1.83   4 1.85
 118  0.999  0.875  0.001-  20 1.81   2 1.86
 119  1.000  0.875  0.498-   3 1.80  21 1.83
 120  0.497  0.373  0.005-  22 1.79   8 1.88
 121  0.500  0.875  1.000-   6 1.83  24 1.84
 122  0.011  0.374  0.248-  26 1.79  12 1.86
 123  0.252  0.626  0.995-  52 1.81  36 1.82
 124  0.745  0.125  0.504-  55 1.81  39 1.84
 125  0.249  0.625  0.755-  61 1.81  45 1.84
 126  0.752  0.124  0.745-  63 1.82  47 1.83
 127  0.250  0.373  0.497-  51 1.80  37 1.88
 128  0.250  0.876  0.503-  35 1.82  53 1.86
 129  0.236  0.375  0.247-  58 1.79  44 1.86
 130  1.000  0.003  0.127-  10 2.00   2 2.04
 131  0.004  0.998  0.624-   3 2.00  11 2.06
 132  1.000  0.508  0.125-  12 1.96   4 1.98
 133  0.492  0.001  0.124-   6 1.95  14 1.96
 134  0.495  0.991  0.623-   7 1.92  15 1.98
 135  0.500  0.508  0.127-  16 2.02   8 2.03
 136  0.506  0.499  0.625-   9 2.01  17 2.06
 137  0.005  0.496  0.376-  12 1.93   5 2.03
 138  0.996  0.498  0.873-   4 1.93  13 2.02
 139  0.505  0.993  0.378-   7 1.91  14 1.98
 140  0.516  0.001  0.874-  15 1.93   6 1.95
 141  0.007  0.245  0.128-  18 1.96  26 1.98
 142  0.000  0.258  0.622-  27 1.96  19 2.01
 143  0.507  0.238  0.122-  22 1.91  30 1.99
 144  0.495  0.251  0.624-  23 1.93  31 1.95
 145  0.496  0.747  0.126-  32 1.94  24 1.98
 146  0.998  0.250  0.875-  18 1.96  27 1.97
 147  0.995  0.750  0.375-  21 2.02  28 2.05
 148  0.002  0.751  0.874-  29 2.02  20 2.04
 149  0.490  0.257  0.380-  23 1.88  30 2.01
 150  0.498  0.249  0.874-  31 1.92  22 1.96
 151  0.493  0.752  0.375-  32 1.92  25 2.06
 152  0.498  0.750  0.873-  24 1.93  33 2.02
 153  0.246  0.502  0.125-  44 1.96  36 1.97
 154  0.751  0.004  0.126-  46 2.00  38 2.04
 155  0.749  0.996  0.624-  39 2.01  47 2.05
 156  0.250  0.999  0.374-  42 2.00  35 2.05
 157  0.242  0.991  0.875-  34 2.01  43 2.04
 158  0.246  0.506  0.375-  44 1.92  37 2.05
 159  0.258  0.491  0.874-  36 1.93  45 2.06
 160  0.746  0.505  0.375-  41 2.02  48 2.04
 161  0.751  0.505  0.874-  40 2.03  49 2.03
 162  0.252  0.748  0.124-  60 2.02  52 2.04
 163  0.249  0.748  0.625-  61 2.04  53 2.04
 164  0.753  0.260  0.624-  55 1.96  63 1.99
 165  0.753  0.748  0.126-  64 2.02  56 2.04
 166  0.748  0.748  0.624-  57 2.02  65 2.05
 167  0.252  0.247  0.373-  58 1.99  51 2.06
 168  0.252  0.256  0.876-  50 1.99  59 2.05
 169  0.765  0.246  0.376-  55 1.93  62 2.06
 170  0.752  0.246  0.876-  63 1.93  54 2.05
 171  0.127  0.998  0.006-  34 2.00   2 2.04
 172  0.126  0.007  0.500-  35 1.94   3 1.94
 173  0.124  0.501  0.493-   5 2.01  37 2.03
 174  0.625  0.998  0.008-   6 2.01  38 2.06
 175  0.625  0.985  0.504-   7 1.93  39 1.99
 176  0.625  0.495  0.498-  41 2.01   9 2.06
 177  0.127  0.001  0.746-  11 1.95  43 2.02
 178  0.124  0.511  0.249-  12 2.02  44 2.04
 179  0.123  0.494  0.762-  45 1.94  13 2.04
 180  0.624  0.995  0.740-  47 1.95  15 2.03
 181  0.625  0.506  0.249-  48 2.02  16 2.04
 182  0.626  0.493  0.754-  17 1.94  49 2.03
 183  0.126  0.254  0.998-  50 2.02  18 2.04
 184  0.124  0.244  0.499-  19 1.93  51 2.00
 185  0.125  0.750  0.001-  52 1.96  20 1.97
 186  0.125  0.748  0.496-  21 1.96  53 1.97
 187  0.625  0.252  0.993-  22 2.02  54 2.04
 188  0.125  0.232  0.255-  58 1.97  26 1.98
 189  0.124  0.753  0.750-  61 1.93  29 2.02
 190  0.626  0.754  0.750-  33 1.93  65 2.03
 191  0.377  0.005  0.494-   7 1.92  35 1.97
 192  0.373  0.499  0.006-  36 2.01   8 2.02
 193  0.876  0.005  0.507-  39 1.94   3 1.95
 194  0.875  0.501  0.999-   4 2.02  40 2.05
 195  0.375  0.987  0.256-  14 2.02  42 2.05
 196  0.374  0.498  0.742-  45 1.97  17 1.97
 197  0.876  0.995  0.248-  10 2.01  46 2.05
 198  0.875  0.993  0.745-  47 1.97  11 1.98
 199  0.378  0.244  0.500-  51 1.94  23 2.01
 200  0.376  0.753  0.001-  52 1.93  24 2.02
 201  0.377  0.745  0.502-  53 1.94  25 2.01
 202  0.875  0.251  0.506-  19 1.92  55 2.04
 203  0.873  0.750  0.998-  20 1.94  56 2.01
 204  0.873  0.745  0.503-  21 1.94  57 2.03
 205  0.375  0.263  0.246-  58 1.95  30 2.04
 206  0.376  0.249  0.753-  31 2.03  59 2.03
 207  0.377  0.752  0.247-  32 2.02  60 2.05
 208  0.375  0.755  0.749-  33 1.97  61 1.97
 209  0.875  0.260  0.245-  26 1.92  62 2.08
 210  0.875  0.254  0.748-  63 2.02  27 2.04
 211  0.874  0.751  0.250-  64 1.99  28 2.04
 212  0.008  0.127  0.001-  18 2.02   2 2.04
 213  0.997  0.126  0.509-  19 1.91   3 2.08
 214  0.997  0.625  0.995-   4 2.02  20 2.05
 215  0.002  0.626  0.493-   5 1.93  21 2.02
 216  0.507  0.123  0.997-   6 2.01  22 2.08
 217  0.492  0.627  0.999-  24 2.00   8 2.05
 218  0.506  0.627  0.498-  25 1.95   9 1.98
 219  0.989  0.128  0.247-  10 1.94  26 2.03
 220  0.996  0.623  0.257-  28 1.94  12 2.01
 221  0.010  0.625  0.755-  13 1.97  29 1.97
 222  0.496  0.627  0.254-  32 1.94  16 1.99
 223  0.003  0.374  0.499-  19 1.94   5 2.00
 224  0.495  0.373  0.506-   9 1.96  23 1.98
 225  0.490  0.878  0.496-  25 1.95   7 2.02
 226  0.996  0.374  0.751-  13 1.93  27 2.04
 227  0.000  0.876  0.251-  10 1.97  28 1.98
 228  0.001  0.876  0.748-  29 1.93  11 2.04
 229  0.509  0.377  0.240-  16 1.91  30 2.04
 230  0.497  0.373  0.747-  31 2.02  17 2.03
 231  0.501  0.875  0.248-  32 1.90  14 2.09
 232  0.503  0.875  0.754-  15 2.01  33 2.06
 233  0.243  0.125  0.988-  34 1.98  50 1.99
 234  0.251  0.125  0.493-  35 2.02  51 2.05
 235  0.247  0.627  0.500-  53 2.00  37 2.04
 236  0.740  0.126  0.001-  54 1.94  38 1.95
 237  0.757  0.625  0.002-  56 1.94  40 1.95
 238  0.745  0.626  0.501-  57 1.96  41 1.98
 239  0.272  0.126  0.254-  42 1.97   1 2.07  58 2.10
 240  0.251  0.124  0.762-  43 1.97  59 1.98
 241  0.254  0.624  0.246-  60 1.93  44 2.01
 242  0.767  0.126  0.249-  46 1.95  62 1.95
 243  0.753  0.625  0.248-  64 1.94  48 1.96
 244  0.740  0.625  0.748-  65 1.97  49 1.98
 245  0.254  0.376  0.007-  50 1.91  36 2.05
 246  0.250  0.875  0.011-  34 1.92  52 2.05
 247  0.752  0.375  0.989-  54 1.95  40 1.95
 248  0.754  0.373  0.491-  41 1.94  55 2.02
 249  0.750  0.875  0.008-  56 1.95  38 1.96
 250  0.761  0.876  0.505-  57 1.94  39 2.03
 251  0.254  0.376  0.752-  59 1.93  45 2.03
 252  0.249  0.876  0.241-  42 1.94  60 1.98
 253  0.246  0.874  0.742-  43 1.93  61 2.04
 254  0.744  0.375  0.263-  48 1.95  62 1.95
 255  0.754  0.374  0.757-  49 1.93  63 2.04
 256  0.751  0.875  0.243-  64 1.94  46 1.96
 257  0.750  0.875  0.744-  65 1.93  47 2.04
 

IMPORTANT INFORMATION: All symmetrisations will be switched off!
NOSYMM: (Re-)initialisation of all symmetry stuff for point group C_1.

 
 
 KPOINTS: Title                                   

Automatic generation of k-mesh.
Space group operators:
 irot       det(A)        alpha          n_x          n_y          n_z        tau_x        tau_y        tau_z
    1     1.000000     0.000001     1.000000     0.000000     0.000000     0.000000     0.000000     0.000000
 
 Subroutine IBZKPT returns following result:
 ===========================================
 
 Found      4 irreducible k-points:
 
 Following reciprocal coordinates:
            Coordinates               Weight
  0.250000  0.250000  0.250000      2.000000
 -0.250000  0.250000  0.250000      2.000000
  0.250000 -0.250000  0.250000      2.000000
 -0.250000 -0.250000  0.250000      2.000000
 
 Following cartesian coordinates:
            Coordinates               Weight
  0.016206  0.016206  0.016206      2.000000
 -0.016206  0.016206  0.016206      2.000000
  0.016206 -0.016206  0.016206      2.000000
 -0.016206 -0.016206  0.016206      2.000000
 


--------------------------------------------------------------------------------------------------------




 Dimension of arrays:
   k-points           NKPTS =      4   k-points in BZ     NKDIM =      4   number of bands    NBANDS=   1164
   number of dos      NEDOS =   3001   number of ions     NIONS =    257
   non local maximal  LDIM  =      6   non local SUM 2l+1 LMDIM =     18
   total plane-waves  NPLWV = ******
   max r-space proj   IRMAX =   7595   max aug-charges    IRDMAX= 146383
   dimension x,y,z NGX =   120 NGY =  120 NGZ =  120
   dimension x,y,z NGXF=   240 NGYF=  240 NGZF=  240
   support grid    NGXF=   480 NGYF=  480 NGZF=  480
   ions per type =               1  64  64 128
   NGX,Y,Z   is equivalent  to a cutoff of  12.93, 12.93, 12.93 a.u.
   NGXF,Y,Z  is equivalent  to a cutoff of  25.86, 25.86, 25.86 a.u.

 SYSTEM =  LTO                                     
 POSCAR =  config 17                               

 Startparameter for this run:
   NWRITE =      2    write-flag & timer
   PREC   = accura    normal or accurate (medium, high low for compatibility)
   ISTART =      1    job   : 0-new  1-cont  2-samecut
   ICHARG =      0    charge: 1-file 2-atom 10-const
   ISPIN  =      2    spin polarized calculation?
   LNONCOLLINEAR =      F non collinear calculations
   LSORBIT =      F    spin-orbit coupling
   INIWAV =      1    electr: 0-lowe 1-rand  2-diag
   LASPH  =      T    aspherical Exc in radial PAW
   METAGGA=      F    non-selfconsistent MetaGGA calc.

 Electronic Relaxation 1
   ENCUT  =  500.0 eV  36.75 Ry    6.06 a.u.  28.13 28.13 28.13*2*pi/ulx,y,z
   ENINI  =  500.0     initial cutoff
   ENAUG  =  628.9 eV  augmentation charge cutoff
   NELM   =     60;   NELMIN=  2; NELMDL=  0     # of ELM steps 
   EDIFF  = 0.1E-05   stopping-criterion for ELM
   LREAL  =      T    real-space projection
   NLSPLINE    = F    spline interpolate recip. space projectors
   LCOMPAT=      F    compatible to vasp.4.4
   GGA_COMPAT  = T    GGA compatible to vasp.4.4-vasp.4.6
   LMAXPAW     = -100 max onsite density
   LMAXMIX     =    4 max onsite mixed and CHGCAR
   VOSKOWN=      0    Vosko Wilk Nusair interpolation
   ROPT   =   -0.00010  -0.00010  -0.00010  -0.00010
 Ionic relaxation
   EDIFFG = -.5E-01   stopping-criterion for IOM
   NSW    =    100    number of steps for IOM
   NBLOCK =      1;   KBLOCK =    100    inner block; outer block 
   IBRION =      1    ionic relax: 0-MD 1-quasi-New 2-CG
   NFREE  =      0    steps in history (QN), initial steepest desc. (CG)
   ISIF   =      2    stress and relaxation
   IWAVPR =     11    prediction:  0-non 1-charg 2-wave 3-comb
   ISYM   =      0    0-nonsym 1-usesym 2-fastsym
   LCORR  =      T    Harris-Foulkes like correction to forces

   POTIM  = 0.5000    time-step for ionic-motion
   TEIN   =    0.0    initial temperature
   TEBEG  =    0.0;   TEEND  =   0.0 temperature during run
   SMASS  =  -3.00    Nose mass-parameter (am)
   estimated Nose-frequenzy (Omega)   =  0.10E-29 period in steps =****** mass=  -0.544E-26a.u.
   SCALEE = 1.0000    scale energy and forces
   NPACO  =    256;   APACO  = 16.0  distance and # of slots for P.C.
   PSTRESS=    0.0 pullay stress

  Mass of Ions in am
   POMASS =   7.01 47.88 16.00 19.00
  Ionic Valenz
   ZVAL   =   3.00 10.00  6.00  7.00
  Atomic Wigner-Seitz radii
   RWIGS  =  -1.00 -1.00 -1.00 -1.00
  virtual crystal weights 
   VCA    =   1.00  1.00  1.00  1.00
   NELECT =    1923.0000    total number of electrons
   NUPDOWN=       1.0000    fix difference up-down

 DOS related values:
   EMIN   =  10.00;   EMAX   =-10.00  energy-range for DOS
   EFERMI =   0.00
   ISMEAR =     0;   SIGMA  =   0.01  broadening in eV -4-tet -1-fermi 0-gaus

 Electronic relaxation 2 (details)
   IALGO  =     38    algorithm
   LDIAG  =      T    sub-space diagonalisation (order eigenvalues)
   LSUBROT=      F    optimize rotation matrix (better conditioning)
   TURBO    =      0    0=normal 1=particle mesh
   IRESTART =      0    0=no restart 2=restart with 2 vectors
   NREBOOT  =      0    no. of reboots
   NMIN     =      0    reboot dimension
   EREF     =   0.00    reference energy to select bands
   IMIX   =      4    mixing-type and parameters
     AMIX     =   0.40;   BMIX     =  1.00
     AMIX_MAG =   1.60;   BMIX_MAG =  1.00
     AMIN     =   0.10
     WC   =   100.;   INIMIX=   1;  MIXPRE=   1;  MAXMIX= -45

 Intra band minimization:
   WEIMIN = 0.0010     energy-eigenvalue tresh-hold
   EBREAK =  0.21E-09  absolut break condition
   DEPER  =   0.30     relativ break condition  

   TIME   =   0.40     timestep for ELM

  volume/ion in A,a.u.               =      14.28        96.39
  Fermi-wavevector in a.u.,A,eV,Ry     =   1.319690  2.493853 23.695660  1.741582
  Thomas-Fermi vector in A             =   2.449570
 
 Write flags
   LWAVE        =      T    write WAVECAR
   LDOWNSAMPLE  =      F    k-point downsampling of WAVECAR
   LCHARG       =      T    write CHGCAR
   LVTOT        =      F    write LOCPOT, total local potential
   LVHAR        =      F    write LOCPOT, Hartree potential only
   LELF         =      F    write electronic localiz. function (ELF)
   LORBIT       =     11    0 simple, 1 ext, 2 COOP (PROOUT), +10 PAW based schemes


 Dipole corrections
   LMONO  =      F    monopole corrections only (constant potential shift)
   LDIPOL =      F    correct potential (dipole corrections)
   IDIPOL =      0    1-x, 2-y, 3-z, 4-all directions 
   EPSILON=  1.0000000 bulk dielectric constant

 LDA+U is selected, type is set to LDAUTYPE =  2
   angular momentum for each species LDAUL =    -1    2   -1   -1
   U (eV)           for each species LDAUU =   0.0  4.2  0.0  0.0
   J (eV)           for each species LDAUJ =   0.0  0.0  0.0  0.0
 Exchange correlation treatment:
   GGA     =    PS    GGA type
   LEXCH   =    14    internal setting for exchange type
   VOSKOWN=      0    Vosko Wilk Nusair interpolation
   LHFCALC =     F    Hartree Fock is set to
   LHFONE  =     F    Hartree Fock one center treatment
   AEXX    =    0.0000 exact exchange contribution

 Linear response parameters
   LEPSILON=     F    determine dielectric tensor
   LRPA    =     F    only Hartree local field effects (RPA)
   LNABLA  =     F    use nabla operator in PAW spheres
   LVEL    =     F    velocity operator in full k-point grid
   LINTERFAST=   F  fast interpolation
   KINTER  =     0    interpolate to denser k-point grid
   CSHIFT  =0.1000    complex shift for real part using Kramers Kronig
   OMEGAMAX=  -1.0    maximum frequency
   DEG_THRESHOLD= 0.2000000E-02 threshold for treating states as degnerate
   RTIME   =   -0.100 relaxation time in fs
  (WPLASMAI=    0.000 imaginary part of plasma frequency in eV, 0.658/RTIME)
   DFIELD  = 0.0000000 0.0000000 0.0000000 field for delta impulse in time
 
 Orbital magnetization related:
   ORBITALMAG=     F  switch on orbital magnetization
   LCHIMAG   =     F  perturbation theory with respect to B field
   DQ        =  0.001000  dq finite difference perturbation B field
   LLRAUG    =     F  two centre corrections for induced B field



--------------------------------------------------------------------------------------------------------


 quasi-Newton-method for relaxation of ions
 charge density and potential will be updated during run
 spin polarized calculation
 Variant of blocked Davidson
 Davidson routine will perform the subspace rotation
 perform sub-space diagonalisation
    after iterative eigenvector-optimisation
 modified Broyden-mixing scheme, WC =      100.0
 initial mixing is a Kerker type mixing with AMIX =  0.4000 and BMIX =      1.0000
 Hartree-type preconditioning will be used
 using additional bands          202
 real space projection scheme for non local part
 use partial core corrections
 calculate Harris-corrections to forces 
   (improved forces if not selfconsistent)
 use gradient corrections 
 use of overlap-Matrix (Vanderbilt PP)
 Gauss-broadening in eV      SIGMA  =   0.01


--------------------------------------------------------------------------------------------------------


  energy-cutoff  :      500.00
  volume of cell :     3671.03
      direct lattice vectors                 reciprocal lattice vectors
    15.426331000  0.000000000  0.000000000     0.064824228  0.000000000  0.000000000
     0.000000000 15.426331000  0.000000000     0.000000000  0.064824228  0.000000000
     0.000000000  0.000000000 15.426331000     0.000000000  0.000000000  0.064824228

  length of vectors
    15.426331000 15.426331000 15.426331000     0.064824228  0.064824228  0.064824228


 
 old parameters found on file WAVECAR:
  energy-cutoff  :      500.00
  volume of cell :     3671.03
      direct lattice vectors                 reciprocal lattice vectors
    15.426331000  0.000000000  0.000000000     0.064824228  0.000000000  0.000000000
     0.000000000 15.426331000  0.000000000     0.000000000  0.064824228  0.000000000
     0.000000000  0.000000000 15.426331000     0.000000000  0.000000000  0.064824228

  length of vectors

 
 k-points in units of 2pi/SCALE and weight: Title                                   
   0.01620606  0.01620606  0.01620606       0.250
  -0.01620606  0.01620606  0.01620606       0.250
   0.01620606 -0.01620606  0.01620606       0.250
  -0.01620606 -0.01620606  0.01620606       0.250
 
 k-points in reciprocal lattice and weights: Title                                   
   0.25000000  0.25000000  0.25000000       0.250
  -0.25000000  0.25000000  0.25000000       0.250
   0.25000000 -0.25000000  0.25000000       0.250
  -0.25000000 -0.25000000  0.25000000       0.250
 
 position of ions in fractional coordinates (direct lattice) 
   0.32727997  0.12941280  0.13192895
   0.99540375  0.99549704  0.99482104
   0.00057670  0.99182059  0.49389411
   0.00517856  0.49448101  0.99793021
   0.99404441  0.50258676  0.50734667
   0.49534357  0.99326061  0.99846699
   0.50146346  0.00797724  0.50016697
   0.50348954  0.49477361  0.99573130
   0.49204616  0.49920844  0.49503602
   0.00509814  0.00343843  0.25621283
   0.00194289  0.00753308  0.75715683
   0.99421251  0.49350283  0.25174853
   0.99251859  0.49903072  0.74228346
   0.50392609  0.01023311  0.25010198
   0.49303837  0.00484831  0.75116753
   0.49369837  0.49822125  0.25708721
   0.50085010  0.50430715  0.75810320
   0.99388207  0.25657975  0.00179873
   0.99896596  0.24810848  0.49161001
   0.99791427  0.75782869  0.00619471
   0.99809559  0.75648471  0.50608109
   0.49499092  0.25701860  0.00074932
   0.50873876  0.24544444  0.50002809
   0.50709809  0.75563840  0.99842775
   0.50708136  0.75297419  0.50854038
   0.99915820  0.25869852  0.25535585
   0.00658857  0.24228558  0.74778763
   0.00670820  0.74832249  0.24312214
   0.99293152  0.75075608  0.74338033
   0.50664560  0.24528535  0.25149251
   0.50685739  0.24267989  0.74999614
   0.50708147  0.75207812  0.25155975
   0.50172253  0.74208282  0.74290103
   0.25700322  0.99834358  0.00443156
   0.25059048  0.99457903  0.50707676
   0.24299252  0.50801997  0.99686000
   0.25431472  0.49467311  0.50681723
   0.75777821  0.00065103  0.99369334
   0.75110666  0.00655819  0.49378844
   0.74161089  0.49963674  0.00520696
   0.75563778  0.49790796  0.50549014
   0.24356297  0.00155469  0.24443507
   0.25812318  0.99823028  0.74407147
   0.25553447  0.49383069  0.25085260
   0.24705757  0.50671335  0.74160521
   0.74304472  0.00140690  0.25505926
   0.74854710  0.00629686  0.75570351
   0.75622660  0.49866361  0.24293329
   0.75712145  0.49808031  0.74284303
   0.25658845  0.25176523  0.00492087
   0.25311933  0.25662767  0.50654226
   0.25172456  0.74288920  0.99267600
   0.25178540  0.75612888  0.49264653
   0.75649291  0.25013697  0.00887896
   0.74350226  0.24244855  0.49868129
   0.74209364  0.74973101  0.99390093
   0.74201135  0.75229378  0.49383479
   0.24884207  0.25986583  0.24495483
   0.24406548  0.25119799  0.74372955
   0.24385191  0.74836978  0.25525186
   0.24821632  0.74243964  0.75684139
   0.74117692  0.24956552  0.24434665
   0.74443606  0.24193437  0.75167285
   0.74582281  0.75044548  0.25652779
   0.75739452  0.75081844  0.75657768
   0.00702654  0.50197258  0.62491722
   0.99849802  0.00594626  0.37579694
   0.00271346  0.00230560  0.87325866
   0.50029304  0.49600375  0.37520006
   0.49470984  0.49835287  0.87449403
   0.99869298  0.74617691  0.12571119
   0.00132510  0.74606865  0.62419782
   0.50075111  0.75465044  0.62436751
   0.99602202  0.24692591  0.37674314
   0.26210124  0.01795851  0.12480011
   0.25592123  0.00728170  0.62523594
   0.23986745  0.49986537  0.62596415
   0.75138023  0.49264230  0.12562525
   0.74671699  0.49506309  0.62433921
   0.75102538  0.99845524  0.37645655
   0.74569835  0.99747668  0.87343220
   0.25109438  0.23516412  0.12629844
   0.25186544  0.24596650  0.62547068
   0.74346279  0.25685838  0.12579761
   0.25442461  0.75216649  0.37406792
   0.25109026  0.75889068  0.87502578
   0.75218878  0.75284710  0.37410585
   0.74801730  0.75292633  0.87529493
   0.12452597  0.49972163  0.99541496
   0.62514126  0.50294340  0.99927911
   0.12609591  0.00736161  0.24847508
   0.62626043  0.00637036  0.24908807
   0.62531849  0.25504874  0.49673450
   0.62458982  0.74538775  0.00346135
   0.62476467  0.76020620  0.49651381
   0.12502246  0.25083154  0.75009683
   0.12562017  0.74855965  0.25133824
   0.62908118  0.23856785  0.26416511
   0.62541258  0.25183010  0.74807273
   0.62342481  0.74986718  0.25012831
   0.37571352  0.00482237  0.99115984
   0.37502234  0.50376252  0.50315442
   0.87379149  0.00558597  0.99883903
   0.87553509  0.50085105  0.49871969
   0.37595075  0.99636482  0.75823095
   0.37318063  0.49363610  0.24966693
   0.87619607  0.49445544  0.25322825
   0.87512553  0.50682173  0.74772748
   0.37453884  0.23937982  0.00546403
   0.87461461  0.24429563  0.00430512
   0.87506916  0.74513091  0.74979469
   0.50831669  0.12227429  0.50113511
   0.99623988  0.12586131  0.74419238
   0.48349130  0.12105626  0.25369248
   0.50099955  0.12313399  0.74508661
   0.50104907  0.62521851  0.74836279
   0.99723403  0.37491162  0.00440098
   0.99884213  0.87498410  0.00123156
   0.99961658  0.87499607  0.49823629
   0.49685743  0.37327803  0.00495345
   0.50041444  0.87466469  0.99965261
   0.01138087  0.37401242  0.24802043
   0.25166769  0.62554599  0.99486427
   0.74527188  0.12500457  0.50402988
   0.24873953  0.62496092  0.75513845
   0.75218122  0.12449941  0.74518815
   0.25039159  0.37297140  0.49663336
   0.25049910  0.87648573  0.50253339
   0.23643463  0.37497655  0.24745617
   0.99954071  0.00259998  0.12675260
   0.00393704  0.99785177  0.62367837
   0.99976362  0.50808772  0.12535947
   0.49157175  0.00128520  0.12426651
   0.49527753  0.99088200  0.62331259
   0.50041852  0.50827626  0.12660579
   0.50641859  0.49928400  0.62470378
   0.00471331  0.49648857  0.37630455
   0.99607524  0.49788863  0.87314333
   0.50527943  0.99323667  0.37757762
   0.51631566  0.00096897  0.87406697
   0.00690112  0.24533790  0.12768056
   0.00017895  0.25763947  0.62185034
   0.50745417  0.23785334  0.12245239
   0.49462392  0.25112862  0.62414662
   0.49568355  0.74749968  0.12624218
   0.99786498  0.25020872  0.87475418
   0.99517507  0.75020232  0.37519337
   0.00237681  0.75064552  0.87394420
   0.49040263  0.25729630  0.37988813
   0.49837358  0.24867049  0.87432981
   0.49341665  0.75233272  0.37546994
   0.49843515  0.75006190  0.87346689
   0.24565607  0.50226435  0.12450284
   0.75147756  0.00377702  0.12571892
   0.74867185  0.99594507  0.62351482
   0.25033737  0.99902371  0.37420484
   0.24205448  0.99053646  0.87503078
   0.24603349  0.50567543  0.37470105
   0.25806273  0.49124035  0.87373864
   0.74591348  0.50530209  0.37490449
   0.75122744  0.50463242  0.87420087
   0.25229859  0.74846785  0.12447896
   0.24941547  0.74798213  0.62483752
   0.75282204  0.26002066  0.62410745
   0.75336562  0.74770821  0.12558528
   0.74823970  0.74762237  0.62435725
   0.25155064  0.24663034  0.37324823
   0.25174491  0.25635288  0.87621920
   0.76504134  0.24552867  0.37554902
   0.75200283  0.24554316  0.87620130
   0.12741268  0.99827049  0.00556786
   0.12550016  0.00737328  0.49981641
   0.12354698  0.50109810  0.49346993
   0.62531471  0.99767538  0.00805248
   0.62454309  0.98540419  0.50423033
   0.62532380  0.49544236  0.49841044
   0.12749202  0.00084062  0.74618717
   0.12423872  0.51102675  0.24860037
   0.12331403  0.49393167  0.76206761
   0.62389625  0.99515018  0.73996961
   0.62541425  0.50595865  0.24921312
   0.62633333  0.49334289  0.75441596
   0.12599729  0.25356262  0.99775513
   0.12395998  0.24442300  0.49895737
   0.12539933  0.74981935  0.00102557
   0.12461293  0.74818257  0.49631656
   0.62541903  0.25196417  0.99276344
   0.12469039  0.23230060  0.25509988
   0.12367481  0.75344982  0.75016594
   0.62633958  0.75361206  0.74953844
   0.37739994  0.00508560  0.49364321
   0.37277172  0.49923406  0.00631748
   0.87581603  0.00457204  0.50745587
   0.87459831  0.50100567  0.99857553
   0.37517112  0.98732968  0.25642578
   0.37435960  0.49787190  0.74185660
   0.87560090  0.99508358  0.24782242
   0.87495994  0.99289457  0.74450120
   0.37822713  0.24403191  0.50005591
   0.37639896  0.75318370  0.00142634
   0.37691724  0.74517935  0.50168098
   0.87517227  0.25139560  0.50618536
   0.87252032  0.75022930  0.99822304
   0.87298980  0.74452603  0.50263829
   0.37538519  0.26265031  0.24579639
   0.37554596  0.24898801  0.75296392
   0.37652832  0.75249474  0.24713919
   0.37497604  0.75526419  0.74873324
   0.87537351  0.25987530  0.24517337
   0.87480930  0.25428365  0.74846517
   0.87441110  0.75143115  0.24950284
   0.00827261  0.12670758  0.00141262
   0.99706846  0.12551328  0.50900323
   0.99746175  0.62527073  0.99482595
   0.00154142  0.62647089  0.49272155
   0.50718662  0.12280155  0.99701203
   0.49244154  0.62698875  0.99925368
   0.50643038  0.62670108  0.49845514
   0.98917635  0.12770390  0.24687545
   0.99593858  0.62348830  0.25700792
   0.00995458  0.62459659  0.75549388
   0.49635087  0.62696436  0.25369847
   0.00336613  0.37377128  0.49864712
   0.49542311  0.37262952  0.50634589
   0.48969266  0.87763748  0.49632678
   0.99642561  0.37433772  0.75100486
   0.00042741  0.87619824  0.25145958
   0.00124863  0.87571311  0.74754562
   0.50940062  0.37677805  0.24038805
   0.49655325  0.37302101  0.74685212
   0.50071132  0.87511638  0.24795569
   0.50276315  0.87488456  0.75440766
   0.24339605  0.12476247  0.98818419
   0.25137093  0.12465168  0.49290995
   0.24699660  0.62677760  0.50012119
   0.73970038  0.12552652  0.00135157
   0.75681239  0.62514346  0.00226288
   0.74498441  0.62560018  0.50070396
   0.27199944  0.12593430  0.25408578
   0.25124736  0.12441587  0.76206710
   0.25448400  0.62401061  0.24632978
   0.76661111  0.12560578  0.24918967
   0.75271485  0.62529963  0.24798350
   0.74003479  0.62487181  0.74827323
   0.25366469  0.37575950  0.00708101
   0.25002824  0.87458599  0.01149040
   0.75170563  0.37452147  0.98863825
   0.75390056  0.37270599  0.49138853
   0.75005458  0.87481744  0.00826796
   0.76068151  0.87606655  0.50463101
   0.25350819  0.37579342  0.75162603
   0.24859864  0.87592687  0.24144439
   0.24648686  0.87397360  0.74196046
   0.74372991  0.37462343  0.26291299
   0.75405125  0.37371489  0.75712907
   0.75116252  0.87544366  0.24272875
   0.75030919  0.87493848  0.74353022
 
 position of ions in cartesian coordinates  (Angst):
   5.04872917  1.99636470  2.03517965
  15.35542772 15.35686682 15.34643862
   0.00889641 15.30015272  7.61897402
   0.07988611  7.62802770 15.39440181
  15.33445817  7.75306971  7.82649771
   7.64133395 15.32236690 15.40268222
   7.73574124  0.12305960  7.71574120
   7.76699633  7.63254147 15.36048069
   7.59046697  7.70095462  7.63658949
   0.07864561  0.05304238  3.95242396
   0.02997165  0.11620781 11.68015180
  15.33705127  7.61293799  3.88355620
  15.31092035  7.69821308 11.45071039
   7.77373072  0.15785934  3.85815592
   7.60577316  0.07479167 11.58775896
   7.61595450  7.68572595  3.96591238
   7.72627937  7.77960905 11.69475084
  15.33195375  3.95808415  0.02774784
  15.41037951  3.82740356  7.58373881
  15.39415578 11.69051618  0.09556172
  15.39695301 11.66978359  7.80697440
   7.63589372  3.96485392  0.01155932
   7.84797257  3.78630716  7.71359888
   7.82266294 11.65672814 15.40207700
   7.82240489 11.61562917  7.84491226
  15.41334518  3.99076903  3.93920391
   0.10163751  3.73757752 11.53561943
   0.10348286 11.54387043  3.75048259
  15.31729033 11.58141177 11.46763104
   7.81568270  3.78385294  3.87960666
   7.81894988  3.74366027 11.56968865
   7.82240667 11.60180608  3.88064399
   7.73973786 11.44761519 11.46023720
   3.96461675 15.40077856  0.06836264
   3.86569168 15.34270526  7.82233395
   3.74848303  7.83688428 15.37789231
   3.92314303  7.63099116  7.81833031
  11.68973757  0.01004303 15.32904240
  11.58681992  0.10116884  7.61734387
  11.44033500  7.70756174  0.08032422
  11.65671847  7.68089296  7.79785817
   3.75728306  0.02398314  3.77073637
   3.98189359 15.39903071 11.47829273
   3.94195924  7.61799569  3.86973522
   3.81119179  7.81672782 11.44024743
  11.46245386  0.02170335  3.93462849
  11.54733530  0.09713745 11.65773244
  11.66580190  7.69254986  3.74756930
  11.67960606  7.68355180 11.45934250
   3.95821837  3.88381374  0.07591090
   3.90470260  3.95882331  7.81408864
   3.88318640 11.46005468 15.31334852
   3.88412498 11.66429435  7.59972850
  11.66990998  3.85869576  0.13696973
  11.46951203  3.74009151  7.69282261
  11.44778209 11.56559868 15.33224475
  11.44651275 11.60513292  7.61805893
   3.83872009  4.00877631  3.77875436
   3.76503482  3.87506338 11.47301827
   3.76174024 11.54460001  3.93759973
   3.82906705 11.45311968 11.67528573
  11.43364056  3.84988037  3.76937226
  11.48391713  3.73215970 11.59555422
  11.50530954 11.57662031  3.95728259
  11.68381857 11.58237371 11.67121778
   0.10839378  7.74359520  9.64017985
  15.40316098  0.09172897  5.79716799
   0.04185869  0.03556699 13.47117719
   7.71768608  7.65151800  5.78796028
   7.63155773  7.68775635 13.49023437
  15.40616842 11.51077197  1.93926242
   0.02044144 11.50910197  9.62908215
   7.72475234 11.64148742  9.63169980
  15.36496533  3.80916078  5.81176442
   4.04326053  0.27703396  1.92520783
   3.94792568  0.11232987  9.64509662
   3.70027473  7.71108869  9.65633020
  11.59104015  7.59966318  1.93793664
  11.51910352  7.63700716  9.63126334
  11.58556617 15.40250107  5.80734340
  11.50338955 15.38740547 13.47385423
   3.87346498  3.62771960  1.94832147
   3.88535964  3.79436069  9.64871781
  11.46890316  3.96238234  1.94059557
   3.92483827 11.60316926  5.77049551
   3.87340148 11.70689876 13.49843736
  11.60351302 11.61366861  5.77108072
  11.53916249 11.61489073 13.50258925
   1.92097877  7.70887129 15.35560064
   9.64363596  7.75857139 15.41521032
   1.94519724  0.11356258  3.83305875
   9.66090067  0.09827127  3.84251499
   9.64637004  3.93446635  7.66279080
   9.63512929 11.49859810  0.05339599
   9.63782667 11.72719249  7.65938635
   1.92863781  3.86941029 11.57124204
   1.93785833 11.54752886  3.87722692
   9.70441449  3.68022663  4.07509844
   9.64782141  3.88481448 11.54001749
   9.61715744 11.56769926  3.85856218
   5.79588116  0.07439148 15.28995977
   5.78521880  7.77120730  7.76182667
  13.47939669  0.08617108 15.40842153
  13.50629411  7.72629405  7.69341496
   5.79954076 15.37025354 11.69672160
   5.75680785  7.61499392  3.85144474
  13.51649067  7.62763328  3.90638279
  13.49997610  7.81839984 11.53469167
   5.77776019  3.69275227  0.08428987
  13.49209449  3.76858531  0.06641228
  13.49910645 11.49463605 11.56658104
   7.84146144  1.88624360  7.73067608
  15.36832610  1.94157816 11.48015797
   7.45849682  1.86745390  3.91354414
   7.72858494  1.89950576 11.49395260
   7.72934884  9.64482763 11.54449205
  15.38366225  5.78351067  0.06789096
  15.40846936 13.49779428  0.01899838
  15.42041628 13.49797893  7.68595787
   7.66468710  5.75831043  0.07641349
   7.71955886 13.49286702 15.42097203
   0.17556510  5.76963935  3.82604520
   3.88230916  9.64987953 15.34710556
  11.49681064  1.92836185  7.77533180
   3.83713828  9.64085404 11.64901562
  11.60339640  1.92056908 11.49551901
   3.86262356  5.75358029  7.66123062
   3.86428198 13.52095906  7.75224641
   3.64731892  5.78451234  3.81734071
  15.41924589  0.04010821  1.95532755
   0.06073413 15.39319172  9.62106891
  15.42268457  7.83792939  1.93383662
   7.58314854  0.01982594  1.91697631
   7.64031518 15.28567369  9.61542637
   7.71962177  7.84083787  1.95306286
   7.81218074  7.70212018  9.63688732
   0.07270915  7.65899706  5.80499859
  15.36578639  7.68059487 13.46939798
   7.79460777 15.32199769  5.82463739
   7.96485634  0.01494767 13.48364644
   0.10645895  3.78466360  1.96964255
   0.00276051  3.97443180  9.59286920
   7.82815599  3.66920442  1.88899103
   7.63023228  3.87399321  9.62829238
   7.64657846 11.53117742  1.94745362
  15.39339542  3.85980251 13.49424748
  15.35190008 11.57286926  5.78785713
   0.03666546 11.57970620 13.48175258
   7.56511333  3.96913792  5.86028009
   7.68807583  3.83607334 13.48770100
   7.61160864 11.60573358  5.79212363
   7.68902562 11.57070314 13.47438939
   3.78957178  7.74809611  1.92062206
  11.59254166  0.05826563  1.93938170
  11.54925971 15.36377826  9.61854599
   3.86178712 15.41127036  5.77260769
   3.73401246 15.28034335 13.49851451
   3.79539411  7.80071654  5.78026236
   3.98096107  7.57803625 13.47858151
  11.50670822  7.79495733  5.78340083
  11.58868320  7.78462674 13.48571204
   3.89204151 11.54611282  1.92025361
   3.84756564 11.53861996  9.63895041
  11.61328194  4.01116473  9.62768803
  11.62166738 11.53439429  1.93732002
  11.54259328 11.53307009  9.63154163
   3.88050345  3.80460119  5.75785072
   3.88350024  3.95458445 13.51684736
  11.80178099  3.78760659  5.79334346
  11.60064458  3.78783000 13.51657130
   1.96551019 15.39965104  0.08589161
   1.93600705  0.11374258  7.71033335
   1.90587668  7.73010513  7.61243048
   9.64631173 15.39047064  0.12422026
   9.63440850 15.20117125  7.77842397
   9.64645198  7.64285780  7.68864441
   1.96673412  0.01296766 11.51093031
   1.91654766  7.88326781  3.83499165
   1.90228307  7.61955348 11.75590719
   9.62442999 15.35151606 11.41501611
   9.64784729  7.80508556  3.84444405
   9.66202526  7.61047072 11.63787023
   1.94367588  3.91154089 15.39170092
   1.91224769  3.77055007  7.69708157
   1.93445159 11.56696143  0.01582080
   1.92232029 11.54171190  7.65634347
   9.64792102  3.88688274 15.31469738
   1.92351524  3.58354601  3.93525522
   1.90784860 11.62296634 11.57230816
   9.66212173 11.62546906 11.56262806
   5.82189641  0.07845211  7.61510350
   5.75049993  7.70134979  0.09745552
  13.51062798  0.07052985  7.82818221
  13.49184306  7.72867926 15.40435658
   5.78751391 15.23087448  3.95570903
   5.77499509  7.68033668 11.44412543
  13.50730925 15.35048865  3.82299069
  13.49742165 15.31672032 11.48492195
   5.83465696  3.76451709  7.71402799
   5.80645489 11.61886099  0.02200320
   5.81445007 11.49538324  7.73909678
  13.50069707  3.87811178  7.80858285
  13.45978723 11.57328557 15.39891908
  13.46702957 11.48530500  7.75386469
   5.79081614  4.05173059  3.79173655
   5.79329636  3.84097145 11.61547065
   5.80845048 11.60823293  3.81245088
   5.78450452 11.65095538 11.55020686
  13.50380150  4.00892246  3.78212553
  13.49509783  3.92266370 11.54607144
  13.48895513 11.59182567  3.84891337
   0.12761600  1.95463308  0.02179153
  15.38110806  1.93620943  7.85205235
  15.38717519  9.64563331 15.34651440
   0.02377851  9.66414737  7.60088566
   7.82402861  1.89437736 15.38023757
   7.59656615  9.67213597 15.41481796
   7.81236263  9.66769834  7.68933402
  15.25936176  1.97000266  3.80838248
  15.36367822  9.61813695  3.96468924
   0.15356268  9.63523380 11.65449862
   7.65687278  9.67175971  3.91363653
   0.05192705  5.76591941  7.69229554
   7.64256084  5.74830638  7.81105937
   7.55416103 13.53872634  7.65650114
  15.37119123  5.77465752 11.58524954
   0.00659340 13.51652410  3.87909864
   0.01926183 13.50904034 11.53188623
   7.85818262  5.81230289  3.70830566
   7.65999472  5.75434562 11.52118806
   7.72413850 13.49983492  3.82504652
   7.75579082 13.49625880 11.63774231
   3.75470797  1.92462710 15.24405643
   3.87773124  1.92291804  7.60379204
   3.81025133  9.66887875  7.71503502
  11.41086295  1.93641359  0.02084973
  11.67483836  9.64366995  0.03490797
  11.49237606  9.65071543  7.72402496
   4.19595345  1.94270421  3.91961137
   3.87582496  1.91928040 11.75589931
   3.92575445  9.62619421  3.79996474
  11.82599670  1.93763640  3.84408238
  11.61162839  9.64607906  3.82547554
  11.41602158  9.63947941 11.54311053
   3.91311548  5.79659038  0.10923394
   3.85701831 13.49165294  0.17725468
  11.59605986  5.77749219 15.25106089
  11.62991960  5.74948594  7.58032204
  11.57059015 13.49522346  0.12754425
  11.73452480 13.51449257  7.78460507
   3.91070127  5.79711369 11.59483186
   3.83496490 13.51233776  3.72460106
   3.80238793 13.48220602 11.44572768
  11.47302382  5.77906499  4.05578280
  11.63224421  5.76504954 11.67972360
  11.58768170 13.50488370  3.74441405
  11.57451789 13.49709064 11.46994331
 


--------------------------------------------------------------------------------------------------------


 k-point  1 :   0.2500 0.2500 0.2500  plane waves:   93161
 k-point  2 :  -0.2500 0.2500 0.2500  plane waves:   93161
 k-point  3 :   0.2500-0.2500 0.2500  plane waves:   93161
 k-point  4 :  -0.2500-0.2500 0.2500  plane waves:   93161

 maximum and minimum number of plane-waves per node :     11686    11606

 maximum number of plane-waves:     93161
 maximum index in each direction: 
   IXMAX=   28   IYMAX=   28   IZMAX=   27
   IXMIN=  -28   IYMIN=  -28   IZMIN=  -28


 real space projection operators:
  total allocation   :     105578.52 KBytes
  max/ min on nodes  :      13256.36      13156.66


 parallel 3D FFT for wavefunctions:
    minimum data exchange during FFTs selected (reduces bandwidth)
 parallel 3D FFT for charge:
    minimum data exchange during FFTs selected (reduces bandwidth)


 total amount of memory used by VASP MPI-rank0   291485. kBytes
=======================================================================

   base      :      30000. kBytes
   nonlr-proj:      49450. kBytes
   fftplans  :      27976. kBytes
   grid      :      34041. kBytes
   one-center:       1026. kBytes
   wavefun   :     148992. kBytes
 
     INWAV:  cpu time   52.2178: real time   52.5170
 Broyden mixing: mesh for mixing (old mesh)
   NGX = 57   NGY = 57   NGZ = 57
  (NGX  =240   NGY  =240   NGZ  =240)
  gives a total of 185193 points

 charge density for first step will be calculated from the start-wavefunctions


--------------------------------------------------------------------------------------------------------


 Maximum index for non-local projection operator          967
 Maximum index for augmentation-charges         3297 (set IRDMAX)


--------------------------------------------------------------------------------------------------------


 initial charge from wavefunction
 First call to EWALD:  gamma=   0.115
 Maximum number of real-space cells 3x 3x 3
 Maximum number of reciprocal cells 3x 3x 3

    FEWALD:  cpu time    0.0163: real time    0.0176


--------------------------------------- Iteration      1(   1)  ---------------------------------------


    POTLOK:  cpu time    0.2715: real time    0.2951
    SETDIJ:  cpu time    1.2149: real time    1.3862
     EDDAV:  cpu time  126.5672: real time  127.5434
       DOS:  cpu time    0.0033: real time    0.0113
    CHARGE:  cpu time    5.2280: real time    5.2329
    MIXING:  cpu time    0.0086: real time    0.0115
    --------------------------------------------
      LOOP:  cpu time  133.2936: real time  134.4805

 eigenvalue-minimisations  : 22932
 total energy-change (2. order) :-0.1853322E+04  (-0.3541652E+03)
 number of electron    1923.0000031 magnetization       1.0000000
 augmentation part      506.3085232 magnetization       0.6385207

 Broyden mixing:
  rms(total) = 0.91847E+01    rms(broyden)= 0.91813E+01
  rms(prec ) = 0.14200E+02
  weight for this iteration     100.00

 Free energy of the ion-electron system (eV)
  ---------------------------------------------------
  alpha Z        PSCENC =      6118.73324990
  Ewald energy   TEWEN  =   -103167.14041114
  -Hartree energ DENC   =    -65450.06299961
  -exchange      EXHF   =         0.00000000
  -V(xc)+E(xc)   XCENC  =      8960.98562579
  PAW double counting   =    198865.34742897  -199861.66595934
  entropy T*S    EENTRO =        -0.00720352
  eigenvalues    EBANDS =    -25896.76411267
  atomic energy  EATOM  =    178577.25249613
  Solvation  Ediel_sol  =         0.00000000
  ---------------------------------------------------
  free energy    TOTEN  =     -1853.32188549 eV

  energy without entropy =    -1853.31468197  energy(sigma->0) =    -1853.31828373


--------------------------------------------------------------------------------------------------------




--------------------------------------- Iteration      1(   2)  ---------------------------------------


    POTLOK:  cpu time    0.2606: real time    0.2638
    SETDIJ:  cpu time    1.3821: real time    1.3830
     EDDAV:  cpu time  145.4982: real time  146.7482
       DOS:  cpu time    0.0028: real time    0.0028
    CHARGE:  cpu time    5.2285: real time    5.2328
    MIXING:  cpu time    0.0088: real time    0.0131
    --------------------------------------------
      LOOP:  cpu time  152.3810: real time  153.6438

 eigenvalue-minimisations  : 26988
 total energy-change (2. order) :-0.1019330E+03  (-0.4465253E+03)
 number of electron    1923.0000031 magnetization       1.0000000
 augmentation part      510.7990296 magnetization       0.5549224

 Broyden mixing:
  rms(total) = 0.12891E+02    rms(broyden)= 0.12888E+02
  rms(prec ) = 0.19249E+02
  weight for this iteration     100.00

 eigenvalues of (default mixing * dielectric matrix)
  average eigenvalue GAMMA=   0.3708
  0.3708

 Free energy of the ion-electron system (eV)
  ---------------------------------------------------
  alpha Z        PSCENC =      6118.73324990
  Ewald energy   TEWEN  =   -103167.14041114
  -Hartree energ DENC   =    -65592.72519049
  -exchange      EXHF   =         0.00000000
  -V(xc)+E(xc)   XCENC  =      8960.41933198
  PAW double counting   =    200866.49867044  -201829.40480197
  entropy T*S    EENTRO =        -0.00188860
  eigenvalues    EBANDS =    -25888.88637157
  atomic energy  EATOM  =    178577.25249613
  Solvation  Ediel_sol  =         0.00000000
  ---------------------------------------------------
  free energy    TOTEN  =     -1955.25491532 eV

  energy without entropy =    -1955.25302672  energy(sigma->0) =    -1955.25397102


--------------------------------------------------------------------------------------------------------




--------------------------------------- Iteration      1(   3)  ---------------------------------------


    POTLOK:  cpu time    0.2617: real time    0.2620
    SETDIJ:  cpu time    1.3752: real time    1.3765
     EDDAV:  cpu time  147.9787: real time  149.1415
       DOS:  cpu time    0.0017: real time    0.0017
    CHARGE:  cpu time    5.1963: real time    5.2001
    MIXING:  cpu time    0.0077: real time    0.0090
    --------------------------------------------
      LOOP:  cpu time  154.8213: real time  155.9907

 eigenvalue-minimisations  : 27720
 total energy-change (2. order) : 0.7235193E+02  (-0.1545427E+03)
 number of electron    1923.0000030 magnetization       1.0000000
 augmentation part      491.4751934 magnetization       0.5622230

 Broyden mixing:
  rms(total) = 0.64007E+01    rms(broyden)= 0.63982E+01
  rms(prec ) = 0.73587E+01
  weight for this iteration     100.00

 eigenvalues of (default mixing * dielectric matrix)
  average eigenvalue GAMMA=   0.4402
  0.4402  0.4402

 Free energy of the ion-electron system (eV)
  ---------------------------------------------------
  alpha Z        PSCENC =      6118.73324990
  Ewald energy   TEWEN  =   -103167.14041114
  -Hartree energ DENC   =    -65688.98959116
  -exchange      EXHF   =         0.00000000
  -V(xc)+E(xc)   XCENC  =      8962.44977293
  PAW double counting   =    201181.64990078  -202135.42094226
  entropy T*S    EENTRO =        -0.00000000
  eigenvalues    EBANDS =    -25731.43746266
  atomic energy  EATOM  =    178577.25249613
  Solvation  Ediel_sol  =         0.00000000
  ---------------------------------------------------
  free energy    TOTEN  =     -1882.90298748 eV

  energy without entropy =    -1882.90298748  energy(sigma->0) =    -1882.90298748


--------------------------------------------------------------------------------------------------------




--------------------------------------- Iteration      1(   4)  ---------------------------------------


    POTLOK:  cpu time    0.2615: real time    0.2622
    SETDIJ:  cpu time    1.3828: real time    1.3835
     EDDAV:  cpu time  137.0869: real time  138.0270
       DOS:  cpu time    0.0017: real time    0.0017
    CHARGE:  cpu time    5.2246: real time    5.2437
    MIXING:  cpu time    0.0140: real time    0.0149
    --------------------------------------------
      LOOP:  cpu time  143.9714: real time  144.9330

 eigenvalue-minimisations  : 25464
 total energy-change (2. order) : 0.5846636E+02  (-0.4058841E+02)
 number of electron    1923.0000030 magnetization       1.0000000
 augmentation part      493.2700890 magnetization       0.5926850

 Broyden mixing:
  rms(total) = 0.46655E+01    rms(broyden)= 0.46648E+01
  rms(prec ) = 0.54350E+01
  weight for this iteration     100.00

 eigenvalues of (default mixing * dielectric matrix)
  average eigenvalue GAMMA=   0.5858
  0.6697  0.6697  0.4179

 Free energy of the ion-electron system (eV)
  ---------------------------------------------------
  alpha Z        PSCENC =      6118.73324990
  Ewald energy   TEWEN  =   -103167.14041114
  -Hartree energ DENC   =    -65622.68686590
  -exchange      EXHF   =         0.00000000
  -V(xc)+E(xc)   XCENC  =      8968.72698876
  PAW double counting   =    201300.73063080  -202274.26905561
  entropy T*S    EENTRO =        -0.00000000
  eigenvalues    EBANDS =    -25725.78366017
  atomic energy  EATOM  =    178577.25249613
  Solvation  Ediel_sol  =         0.00000000
  ---------------------------------------------------
  free energy    TOTEN  =     -1824.43662724 eV

  energy without entropy =    -1824.43662724  energy(sigma->0) =    -1824.43662724


--------------------------------------------------------------------------------------------------------




--------------------------------------- Iteration      1(   5)  ---------------------------------------


    POTLOK:  cpu time    0.2683: real time    0.2722
    SETDIJ:  cpu time    1.4284: real time    1.4552
     EDDAV:  cpu time  142.8739: real time  144.3110
       DOS:  cpu time    0.0018: real time    0.0018
    CHARGE:  cpu time    5.2063: real time    5.2109
    MIXING:  cpu time    0.0082: real time    0.0086
    --------------------------------------------
      LOOP:  cpu time  149.7869: real time  151.2596

 eigenvalue-minimisations  : 26556
 total energy-change (2. order) : 0.4680044E+02  (-0.1396585E+02)
 number of electron    1923.0000030 magnetization       1.0000000
 augmentation part      493.9051434 magnetization       0.5887600

 Broyden mixing:
  rms(total) = 0.25134E+01    rms(broyden)= 0.25129E+01
  rms(prec ) = 0.29545E+01
  weight for this iteration     100.00

 eigenvalues of (default mixing * dielectric matrix)
  average eigenvalue GAMMA=   0.6731
  0.8731  0.8731  0.4730  0.4730

 Free energy of the ion-electron system (eV)
  ---------------------------------------------------
  alpha Z        PSCENC =      6118.73324990
  Ewald energy   TEWEN  =   -103167.14041114
  -Hartree energ DENC   =    -65641.70153619
  -exchange      EXHF   =         0.00000000
  -V(xc)+E(xc)   XCENC  =      8976.73824091
  PAW double counting   =    200757.12545186  -201750.68018611
  entropy T*S    EENTRO =        -0.00000000
  eigenvalues    EBANDS =    -25647.96348882
  atomic energy  EATOM  =    178577.25249613
  Solvation  Ediel_sol  =         0.00000000
  ---------------------------------------------------
  free energy    TOTEN  =     -1777.63618346 eV

  energy without entropy =    -1777.63618346  energy(sigma->0) =    -1777.63618346


--------------------------------------------------------------------------------------------------------




--------------------------------------- Iteration      1(   6)  ---------------------------------------


    POTLOK:  cpu time    0.2599: real time    0.2623
    SETDIJ:  cpu time    1.3787: real time    1.3793
     EDDAV:  cpu time  145.8506: real time  147.0507
       DOS:  cpu time    0.0018: real time    0.0018
    CHARGE:  cpu time    5.2035: real time    5.2081
    MIXING:  cpu time    0.0079: real time    0.0079
    --------------------------------------------
      LOOP:  cpu time  152.7025: real time  153.9103

 eigenvalue-minimisations  : 27072
 total energy-change (2. order) : 0.1532009E+02  (-0.5090890E+01)
 number of electron    1923.0000030 magnetization       1.0000000
 augmentation part      495.0757682 magnetization       0.5926661

 Broyden mixing:
  rms(total) = 0.15964E+01    rms(broyden)= 0.15961E+01
  rms(prec ) = 0.17683E+01
  weight for this iteration     100.00

 eigenvalues of (default mixing * dielectric matrix)
  average eigenvalue GAMMA=   0.7146
  0.9848  0.9848  0.4259  0.5887  0.5887

 Free energy of the ion-electron system (eV)
  ---------------------------------------------------
  alpha Z        PSCENC =      6118.73324990
  Ewald energy   TEWEN  =   -103167.14041114
  -Hartree energ DENC   =    -65564.53147041
  -exchange      EXHF   =         0.00000000
  -V(xc)+E(xc)   XCENC  =      8975.66072452
  PAW double counting   =    200223.69496144  -201225.51019537
  entropy T*S    EENTRO =        -0.00000000
  eigenvalues    EBANDS =    -25700.47545185
  atomic energy  EATOM  =    178577.25249613
  Solvation  Ediel_sol  =         0.00000000
  ---------------------------------------------------
  free energy    TOTEN  =     -1762.31609677 eV

  energy without entropy =    -1762.31609677  energy(sigma->0) =    -1762.31609677


--------------------------------------------------------------------------------------------------------




--------------------------------------- Iteration      1(   7)  ---------------------------------------


    POTLOK:  cpu time    0.2589: real time    0.2614
    SETDIJ:  cpu time    1.3954: real time    1.4004
     EDDAV:  cpu time  145.4394: real time  146.8359
       DOS:  cpu time    0.0019: real time    0.0019
    CHARGE:  cpu time    5.2172: real time    5.2216
    MIXING:  cpu time    0.0083: real time    0.0083
    --------------------------------------------
      LOOP:  cpu time  152.3212: real time  153.7296

 eigenvalue-minimisations  : 27072
 total energy-change (2. order) : 0.1912612E+01  (-0.9776684E+00)
 number of electron    1923.0000030 magnetization       1.0000000
 augmentation part      495.9975971 magnetization       0.5891921

 Broyden mixing:
  rms(total) = 0.11550E+01    rms(broyden)= 0.11546E+01
  rms(prec ) = 0.12849E+01
  weight for this iteration     100.00

 eigenvalues of (default mixing * dielectric matrix)
  average eigenvalue GAMMA=   0.8838
  1.4383  1.4383  0.7077  0.7077  0.4563  0.5546

 Free energy of the ion-electron system (eV)
  ---------------------------------------------------
  alpha Z        PSCENC =      6118.73324990
  Ewald energy   TEWEN  =   -103167.14041114
  -Hartree energ DENC   =    -65517.58599543
  -exchange      EXHF   =         0.00000000
  -V(xc)+E(xc)   XCENC  =      8973.91064495
  PAW double counting   =    199938.30433818  -200941.67320836
  entropy T*S    EENTRO =        -0.00000000
  eigenvalues    EBANDS =    -25742.20459859
  atomic energy  EATOM  =    178577.25249613
  Solvation  Ediel_sol  =         0.00000000
  ---------------------------------------------------
  free energy    TOTEN  =     -1760.40348435 eV

  energy without entropy =    -1760.40348435  energy(sigma->0) =    -1760.40348435


--------------------------------------------------------------------------------------------------------




--------------------------------------- Iteration      1(   8)  ---------------------------------------


    POTLOK:  cpu time    0.2588: real time    0.2615
    SETDIJ:  cpu time    1.3805: real time    1.3811
     EDDAV:  cpu time  147.3653: real time  148.7934
       DOS:  cpu time    0.0019: real time    0.0019
    CHARGE:  cpu time    5.1969: real time    5.2184
    MIXING:  cpu time    0.0094: real time    0.0094
    --------------------------------------------
      LOOP:  cpu time  154.2128: real time  155.6656

 eigenvalue-minimisations  : 27768
 total energy-change (2. order) : 0.9559531E+00  (-0.6496369E+00)
 number of electron    1923.0000030 magnetization       1.0000000
[...]
   81        1.574   3.461   0.000   5.035
   82        1.567   3.483   0.000   5.050
   83        1.574   3.464   0.000   5.039
   84        1.575   3.475   0.000   5.050
   85        1.575   3.463   0.000   5.038
   86        1.575   3.465   0.000   5.040
   87        1.575   3.464   0.000   5.039
   88        1.575   3.466   0.000   5.040
   89        1.575   3.463   0.000   5.038
   90        1.575   3.459   0.000   5.034
   91        1.574   3.458   0.000   5.033
   92        1.574   3.462   0.000   5.036
   93        1.577   3.474   0.000   5.051
   94        1.577   3.474   0.000   5.051
   95        1.576   3.476   0.000   5.052
   96        1.575   3.465   0.000   5.040
   97        1.575   3.467   0.000   5.042
   98        1.576   3.479   0.000   5.056
   99        1.575   3.463   0.000   5.038
  100        1.575   3.459   0.000   5.034
  101        1.573   3.458   0.000   5.032
  102        1.575   3.461   0.000   5.036
  103        1.576   3.461   0.000   5.036
  104        1.574   3.462   0.000   5.036
  105        1.577   3.472   0.000   5.048
  106        1.575   3.462   0.000   5.036
  107        1.575   3.462   0.000   5.036
  108        1.576   3.474   0.000   5.050
  109        1.572   3.464   0.000   5.036
  110        1.575   3.463   0.000   5.037
  111        1.576   3.473   0.000   5.049
  112        1.577   3.465   0.000   5.042
  113        1.576   3.474   0.000   5.050
  114        1.577   3.465   0.000   5.043
  115        1.574   3.465   0.000   5.039
  116        1.575   3.464   0.000   5.038
  117        1.575   3.462   0.000   5.037
  118        1.575   3.463   0.000   5.038
  119        1.576   3.476   0.000   5.053
  120        1.575   3.461   0.000   5.036
  121        1.575   3.467   0.000   5.042
  122        1.577   3.468   0.000   5.045
  123        1.577   3.477   0.000   5.054
  124        1.576   3.472   0.000   5.048
  125        1.575   3.473   0.000   5.049
  126        1.576   3.471   0.000   5.047
  127        1.575   3.460   0.000   5.034
  128        1.574   3.461   0.000   5.035
  129        1.577   3.472   0.000   5.049
  130        1.737   4.369   0.000   6.106
  131        1.737   4.370   0.000   6.107
  132        1.737   4.379   0.000   6.117
  133        1.738   4.389   0.000   6.127
  134        1.739   4.385   0.000   6.124
  135        1.737   4.369   0.000   6.106
  136        1.736   4.368   0.000   6.104
  137        1.738   4.380   0.000   6.118
  138        1.738   4.381   0.000   6.120
  139        1.739   4.388   0.000   6.127
  140        1.739   4.387   0.000   6.127
  141        1.738   4.381   0.000   6.119
  142        1.738   4.380   0.000   6.118
  143        1.738   4.390   0.000   6.128
  144        1.739   4.389   0.000   6.128
  145        1.738   4.382   0.000   6.120
  146        1.737   4.382   0.000   6.119
  147        1.736   4.369   0.000   6.105
  148        1.736   4.368   0.000   6.105
  149        1.740   4.387   0.000   6.126
  150        1.739   4.390   0.000   6.128
  151        1.738   4.376   0.000   6.115
  152        1.738   4.381   0.000   6.119
  153        1.738   4.383   0.000   6.121
  154        1.737   4.372   0.000   6.109
  155        1.737   4.372   0.000   6.109
  156        1.737   4.369   0.000   6.105
  157        1.737   4.368   0.000   6.104
  158        1.738   4.376   0.000   6.114
  159        1.738   4.376   0.000   6.114
  160        1.737   4.368   0.000   6.105
  161        1.736   4.370   0.000   6.106
  162        1.737   4.371   0.000   6.107
  163        1.736   4.366   0.000   6.102
  164        1.738   4.379   0.000   6.117
  165        1.737   4.369   0.000   6.106
  166        1.736   4.369   0.000   6.106
  167        1.737   4.370   0.000   6.107
  168        1.737   4.371   0.000   6.108
  169        1.738   4.377   0.000   6.115
  170        1.738   4.378   0.000   6.116
  171        1.737   4.369   0.000   6.106
  172        1.738   4.388   0.000   6.127
  173        1.737   4.371   0.000   6.109
  174        1.737   4.369   0.000   6.106
  175        1.738   4.383   0.000   6.122
  176        1.737   4.367   0.000   6.104
  177        1.738   4.380   0.000   6.118
  178        1.737   4.368   0.000   6.105
  179        1.738   4.376   0.000   6.114
  180        1.738   4.379   0.000   6.117
  181        1.736   4.369   0.000   6.105
  182        1.738   4.378   0.000   6.116
  183        1.737   4.368   0.000   6.105
  184        1.738   4.381   0.000   6.119
  185        1.737   4.383   0.000   6.120
  186        1.738   4.382   0.000   6.120
  187        1.737   4.371   0.000   6.108
  188        1.738   4.378   0.000   6.116
  189        1.738   4.381   0.000   6.120
  190        1.738   4.381   0.000   6.119
  191        1.739   4.388   0.000   6.126
  192        1.737   4.371   0.000   6.108
  193        1.739   4.389   0.000   6.128
  194        1.737   4.368   0.000   6.105
  195        1.737   4.371   0.000   6.108
  196        1.737   4.382   0.000   6.119
  197        1.737   4.369   0.000   6.106
  198        1.737   4.380   0.000   6.117
  199        1.738   4.382   0.000   6.120
  200        1.738   4.382   0.000   6.120
  201        1.738   4.380   0.000   6.118
  202        1.739   4.380   0.000   6.118
  203        1.738   4.381   0.000   6.119
  204        1.738   4.379   0.000   6.117
  205        1.737   4.382   0.000   6.119
  206        1.737   4.369   0.000   6.105
  207        1.737   4.369   0.000   6.105
  208        1.737   4.382   0.000   6.119
  209        1.738   4.376   0.000   6.114
  210        1.737   4.370   0.000   6.106
  211        1.737   4.372   0.000   6.109
  212        1.737   4.369   0.000   6.105
  213        1.739   4.375   0.000   6.114
  214        1.736   4.367   0.000   6.103
  215        1.738   4.381   0.000   6.119
  216        1.737   4.368   0.000   6.105
  217        1.737   4.369   0.000   6.106
  218        1.737   4.382   0.000   6.119
  219        1.738   4.378   0.000   6.117
  220        1.738   4.380   0.000   6.118
  221        1.738   4.380   0.000   6.118
  222        1.738   4.383   0.000   6.121
  223        1.738   4.381   0.000   6.119
  224        1.738   4.383   0.000   6.121
  225        1.738   4.382   0.000   6.120
  226        1.738   4.379   0.000   6.117
  227        1.737   4.380   0.000   6.117
  228        1.738   4.378   0.000   6.116
  229        1.738   4.382   0.000   6.120
  230        1.736   4.370   0.000   6.106
  231        1.739   4.377   0.000   6.116
  232        1.737   4.370   0.000   6.107
  233        1.738   4.379   0.000   6.117
  234        1.737   4.370   0.000   6.107
  235        1.737   4.370   0.000   6.106
  236        1.739   4.387   0.000   6.126
  237        1.739   4.387   0.000   6.126
  238        1.737   4.381   0.000   6.118
  239        1.738   4.380   0.000   6.118
  240        1.737   4.379   0.000   6.116
  241        1.738   4.382   0.000   6.120
  242        1.739   4.385   0.000   6.124
  243        1.738   4.387   0.000   6.125
  244        1.738   4.380   0.000   6.118
  245        1.738   4.378   0.000   6.116
  246        1.739   4.377   0.000   6.116
  247        1.738   4.386   0.000   6.124
  248        1.738   4.379   0.000   6.118
  249        1.738   4.386   0.000   6.124
  250        1.738   4.379   0.000   6.117
  251        1.738   4.380   0.000   6.119
  252        1.738   4.383   0.000   6.121
  253        1.738   4.378   0.000   6.117
  254        1.738   4.387   0.000   6.125
  255        1.738   4.378   0.000   6.116
  256        1.738   4.386   0.000   6.124
  257        1.738   4.379   0.000   6.117
--------------------------------------------------
tot        345.6021195.660 112.7491654.011
 


 magnetization (x)
 
# of ion       s       p       d       tot
------------------------------------------
    1       -0.000  -0.000   0.000  -0.000
    2       -0.000  -0.000   0.000   0.000
    3       -0.000  -0.000   0.000   0.000
    4       -0.000  -0.000   0.000   0.000
    5       -0.000  -0.000  -0.000  -0.000
    6       -0.000   0.000   0.002   0.002
    7        0.000   0.000   0.013   0.013
    8        0.000   0.000   0.001   0.001
    9        0.000   0.000   0.003   0.003
   10       -0.000  -0.000   0.000  -0.000
   11       -0.000  -0.000   0.000  -0.000
   12       -0.000  -0.000  -0.000  -0.000
   13        0.000  -0.000  -0.000  -0.000
   14        0.000   0.001   0.093   0.094
   15        0.000   0.000   0.000   0.000
   16        0.000   0.000   0.008   0.008
   17        0.000   0.000   0.000   0.000
   18       -0.000  -0.000  -0.000  -0.000
   19       -0.000  -0.000   0.000  -0.000
   20       -0.000  -0.000  -0.000  -0.000
   21       -0.000  -0.000  -0.000  -0.000
   22       -0.000   0.000   0.006   0.006
   23        0.000   0.000   0.025   0.025
   24        0.000   0.000   0.001   0.001
   25        0.000   0.000   0.000   0.000
   26       -0.000  -0.000  -0.000  -0.000
   27        0.000   0.000   0.000   0.000
   28       -0.000  -0.000   0.000   0.000
   29       -0.000  -0.000  -0.000  -0.000
   30        0.005   0.006   0.857   0.869
   31        0.000   0.000   0.000   0.000
   32        0.000   0.000   0.001   0.001
   33        0.000   0.000   0.000   0.000
   34       -0.000  -0.000   0.000   0.000
   35       -0.000  -0.000   0.000   0.000
   36       -0.000  -0.000   0.000   0.000
   37       -0.000  -0.000  -0.000  -0.000
   38       -0.000  -0.000   0.000   0.000
   39       -0.000  -0.000  -0.000  -0.000
   40       -0.000  -0.000   0.000   0.000
   41       -0.000  -0.000   0.000   0.000
   42       -0.000  -0.000   0.000   0.000
   43       -0.000  -0.000  -0.000  -0.000
   44       -0.000  -0.000  -0.000  -0.000
   45       -0.000  -0.000  -0.000  -0.000
   46       -0.000  -0.000  -0.000  -0.000
   47       -0.000  -0.000   0.000   0.000
   48        0.000   0.000   0.000   0.000
   49       -0.000  -0.000  -0.000  -0.000
   50       -0.000  -0.000  -0.000  -0.000
   51       -0.000  -0.000   0.000   0.000
   52       -0.000  -0.000   0.000   0.000
   53       -0.000  -0.000   0.000   0.000
   54        0.000  -0.000  -0.000  -0.000
   55       -0.000  -0.000  -0.000  -0.000
   56       -0.000  -0.000  -0.000  -0.000
   57       -0.000  -0.000  -0.000  -0.000
   58       -0.000  -0.000  -0.000  -0.000
   59        0.000   0.000   0.000   0.000
   60        0.000  -0.000   0.000   0.000
   61       -0.000  -0.000  -0.000  -0.000
   62       -0.000  -0.000  -0.003  -0.004
   63       -0.000  -0.000   0.000   0.000
   64       -0.000  -0.000   0.000   0.000
   65       -0.000  -0.000  -0.000  -0.000
   66        0.000   0.000   0.000   0.000
   67       -0.000  -0.000   0.000  -0.000
   68       -0.000  -0.000   0.000  -0.000
   69       -0.000  -0.001   0.000  -0.001
   70       -0.000  -0.000   0.000  -0.000
   71       -0.000   0.000   0.000   0.000
   72        0.000   0.000   0.000   0.000
   73       -0.000  -0.000   0.000  -0.000
   74        0.000   0.000   0.000   0.000
   75       -0.000  -0.000   0.000  -0.000
   76       -0.000  -0.000   0.000  -0.000
   77       -0.000  -0.000   0.000  -0.000
   78       -0.000  -0.000   0.000  -0.000
   79        0.000  -0.000   0.000  -0.000
   80       -0.000  -0.000   0.000  -0.000
   81       -0.000  -0.000   0.000  -0.000
   82        0.000  -0.000   0.000  -0.000
   83       -0.000  -0.000   0.000  -0.000
   84        0.000  -0.000   0.000  -0.000
   85       -0.000  -0.000   0.000  -0.000
   86       -0.000  -0.000   0.000  -0.000
   87       -0.000  -0.000   0.000  -0.000
   88        0.000  -0.000   0.000  -0.000
   89       -0.000  -0.000   0.000  -0.000
   90       -0.000  -0.000   0.000  -0.000
   91       -0.000  -0.000   0.000  -0.000
   92       -0.000  -0.003   0.000  -0.003
   93       -0.000  -0.001   0.000  -0.001
   94       -0.000  -0.000   0.000  -0.000
   95       -0.000  -0.000   0.000  -0.000
   96       -0.000  -0.000   0.000  -0.000
   97       -0.000  -0.000   0.000  -0.000
   98       -0.001  -0.015   0.000  -0.015
   99       -0.000  -0.000   0.000  -0.000
  100       -0.000  -0.000   0.000  -0.000
  101       -0.000  -0.000   0.000  -0.000
  102       -0.000  -0.000   0.000  -0.000
  103       -0.000  -0.000   0.000  -0.000
  104        0.000  -0.000   0.000  -0.000
  105       -0.000  -0.000   0.000  -0.000
  106       -0.000  -0.000   0.000  -0.000
  107       -0.000  -0.000   0.000  -0.000
  108        0.000   0.000   0.000   0.000
  109       -0.000  -0.000   0.000  -0.000
  110       -0.000  -0.000   0.000  -0.000
  111        0.000   0.000   0.000   0.000
  112       -0.000  -0.004   0.000  -0.004
  113       -0.000  -0.000   0.000  -0.000
  114       -0.002  -0.043   0.000  -0.045
  115       -0.000  -0.000   0.000  -0.000
  116       -0.000  -0.000   0.000  -0.000
  117        0.000   0.000   0.000   0.000
  118        0.000   0.000   0.000   0.000
  119        0.000  -0.000   0.000  -0.000
  120       -0.000  -0.000   0.000  -0.000
  121       -0.000  -0.000   0.000  -0.000
  122        0.000   0.000   0.000   0.000
  123       -0.000  -0.000   0.000  -0.000
  124       -0.000  -0.000   0.000  -0.000
  125       -0.000   0.000   0.000   0.000
  126       -0.000  -0.000   0.000  -0.000
  127       -0.000  -0.000   0.000  -0.000
  128       -0.000  -0.000   0.000  -0.000
  129       -0.000  -0.000   0.000  -0.000
  130       -0.000  -0.000   0.000  -0.000
  131       -0.000  -0.000   0.000  -0.000
  132        0.000   0.000   0.000   0.000
  133       -0.000   0.000   0.000   0.000
  134       -0.000  -0.000   0.000  -0.000
  135        0.000  -0.000   0.000  -0.000
  136       -0.000   0.000   0.000   0.000
  137       -0.000   0.000   0.000   0.000
  138       -0.000   0.000   0.000   0.000
  139       -0.000  -0.001   0.000  -0.001
  140       -0.000  -0.000   0.000  -0.000
  141        0.000   0.000   0.000   0.000
  142       -0.000  -0.000   0.000  -0.000
  143       -0.000   0.002   0.000   0.002
  144       -0.000  -0.000   0.000  -0.000
  145       -0.000  -0.000   0.000  -0.000
  146       -0.000  -0.000   0.000  -0.000
  147       -0.000   0.000   0.000   0.000
  148        0.000   0.000   0.000   0.000
  149       -0.000  -0.003   0.000  -0.003
  150        0.000  -0.000   0.000  -0.000
  151       -0.000  -0.000   0.000  -0.000
  152       -0.000   0.000   0.000  -0.000
  153       -0.000  -0.000   0.000  -0.000
  154       -0.000  -0.000   0.000  -0.000
  155        0.000  -0.000   0.000  -0.000
  156       -0.000  -0.000   0.000  -0.000
  157       -0.000  -0.000   0.000  -0.000
  158       -0.000   0.000   0.000  -0.000
  159        0.000  -0.000   0.000  -0.000
  160       -0.000  -0.000   0.000  -0.000
  161       -0.000  -0.000   0.000  -0.000
  162       -0.000  -0.000   0.000  -0.000
  163       -0.000  -0.000   0.000  -0.000
  164       -0.000  -0.000   0.000  -0.000
  165       -0.000  -0.000   0.000  -0.000
  166       -0.000  -0.000   0.000  -0.000
  167       -0.000  -0.000   0.000  -0.000
  168       -0.000  -0.000   0.000  -0.000
  169       -0.000  -0.000   0.000  -0.000
  170       -0.000  -0.000   0.000  -0.000
  171       -0.000  -0.000   0.000  -0.000
  172       -0.000  -0.000   0.000  -0.000
  173       -0.000  -0.000   0.000  -0.000
  174       -0.000  -0.000   0.000  -0.000
  175       -0.000  -0.000   0.000  -0.000
  176       -0.000  -0.000   0.000  -0.000
  177       -0.000  -0.000   0.000  -0.000
  178       -0.000  -0.000   0.000  -0.000
  179       -0.000   0.000   0.000   0.000
  180       -0.000  -0.000   0.000  -0.000
  181       -0.000  -0.000   0.000  -0.000
  182       -0.000  -0.000   0.000  -0.000
  183       -0.000  -0.000   0.000  -0.000
  184       -0.000  -0.000   0.000  -0.000
  185       -0.000   0.000   0.000   0.000
  186       -0.000  -0.000   0.000  -0.000
  187       -0.000  -0.000   0.000  -0.000
  188       -0.000  -0.000   0.000  -0.000
  189       -0.000   0.000   0.000   0.000
  190       -0.000  -0.000   0.000  -0.000
  191       -0.000  -0.000   0.000  -0.000
  192       -0.000  -0.000   0.000  -0.000
  193       -0.000  -0.000   0.000  -0.000
  194       -0.000  -0.000   0.000  -0.000
  195       -0.000  -0.001   0.000  -0.001
  196       -0.000  -0.000   0.000  -0.000
  197       -0.000  -0.000   0.000  -0.000
  198       -0.000  -0.000   0.000  -0.000
  199       -0.000  -0.000   0.000  -0.000
  200       -0.000  -0.000   0.000  -0.000
  201       -0.000  -0.000   0.000  -0.000
  202       -0.000  -0.000   0.000  -0.000
  203       -0.000  -0.000   0.000  -0.000
  204       -0.000  -0.000   0.000  -0.000
  205       -0.000  -0.004   0.000  -0.004
  206       -0.000  -0.000   0.000  -0.000
  207       -0.000  -0.000   0.000  -0.000
  208       -0.000  -0.000   0.000  -0.000
  209       -0.000  -0.000   0.000  -0.000
  210       -0.000  -0.000   0.000  -0.000
  211       -0.000  -0.000   0.000  -0.000
  212        0.000   0.000   0.000   0.000
  213       -0.000  -0.000   0.000  -0.000
  214        0.000   0.000   0.000   0.000
  215       -0.000   0.000   0.000   0.000
  216        0.000  -0.000   0.000  -0.000
  217        0.000   0.000   0.000   0.000
  218       -0.000  -0.000   0.000  -0.000
  219        0.000  -0.000   0.000  -0.000
  220       -0.000  -0.000   0.000  -0.000
  221        0.000   0.000   0.000   0.000
  222        0.000  -0.000   0.000  -0.000
  223       -0.000  -0.000   0.000  -0.000
  224       -0.000  -0.000   0.000  -0.000
  225       -0.000  -0.000   0.000  -0.000
  226       -0.000   0.000   0.000   0.000
  227       -0.000  -0.000   0.000  -0.000
  228       -0.000   0.000   0.000   0.000
  229       -0.000   0.001   0.000   0.000
  230       -0.000  -0.000   0.000  -0.000
  231       -0.000  -0.001   0.000  -0.001
  232       -0.000  -0.000   0.000  -0.000
  233       -0.000  -0.000   0.000  -0.000
  234       -0.000  -0.000   0.000  -0.000
  235       -0.000  -0.000   0.000  -0.000
  236        0.000   0.000   0.000   0.000
  237        0.000  -0.000   0.000  -0.000
  238        0.000  -0.000   0.000  -0.000
  239       -0.000  -0.000   0.000  -0.000
  240       -0.000  -0.000   0.000  -0.000
  241       -0.000  -0.000   0.000  -0.000
  242        0.000  -0.000   0.000  -0.000
  243       -0.000  -0.000   0.000  -0.000
  244        0.000   0.000   0.000   0.000
  245       -0.000  -0.000   0.000  -0.000
  246        0.000  -0.000   0.000  -0.000
  247        0.000   0.000   0.000   0.000
  248       -0.000  -0.000   0.000  -0.000
  249        0.000  -0.000   0.000  -0.000
  250        0.000  -0.000   0.000  -0.000
  251       -0.000  -0.000   0.000  -0.000
  252       -0.000  -0.000   0.000  -0.000
  253        0.000  -0.000   0.000  -0.000
  254        0.000  -0.000   0.000  -0.000
  255       -0.000  -0.000   0.000  -0.000
  256        0.000  -0.000   0.000  -0.000
  257       -0.000   0.000   0.000   0.000
--------------------------------------------------
tot          0.001  -0.070   1.008   0.938
 

 total amount of memory used by VASP MPI-rank0   291485. kBytes
=======================================================================

   base      :      30000. kBytes
   nonlr-proj:      49450. kBytes
   fftplans  :      27976. kBytes
   grid      :      34041. kBytes
   one-center:       1026. kBytes
   wavefun   :     148992. kBytes
 
  
  
 General timing and accounting informations for this job:
 ========================================================
  
                  Total CPU time used (sec):     4520.584
                            User time (sec):     4115.135
                          System time (sec):      405.449
                         Elapsed time (sec):     4568.301
  
                   Maximum memory used (kb):      625928.
                   Average memory used (kb):           0.
  
                          Minor page faults:       389076
                          Major page faults:           29
                 Voluntary context switches:        33340
