       N       E                     dE             d eps       ncg     rms          rms(c)
DAV:   1    -0.213568482960E+03   -0.21357E+03   -0.62830E-03  2560   0.516E-01    0.182E-03
DAV:   2    -0.213568482916E+03    0.44314E-07   -0.33118E-07  1472   0.403E-03
   1 F= -.21356848E+03 E0= -.21356848E+03  d E =-.213568E+03  mag=    -0.0000
