 vasp.5.4.4.18Apr17-6-g9f103f2a35 (build Jul 16 2019 12:12:28) complex          
  
 executed on             LinuxIFC date 2020.01.06  15:27:27
 running on   96 total cores
 distrk:  each k-point on   96 cores,    1 groups
 distr:  one band on NCORES_PER_BAND=   8 cores,   12 groups


--------------------------------------------------------------------------------------------------------


 INCAR:
 POTCAR:    PAW_PBE Li_sv 10Sep2004               
 POTCAR:    PAW_PBE Ti_pv 07Sep2000               
 POTCAR:    PAW_PBE O 08Apr2002                   
 POTCAR:    PAW_PBE F 08Apr2002                   
 POTCAR:    PAW_PBE Li_sv 10Sep2004               
   VRHFIN =Li: 1s2s2p                                                           
   LEXCH  = PE                                                                  
   EATOM  =   202.7858 eV,   14.9043 Ry                                         
                                                                                
   TITEL  = PAW_PBE Li_sv 10Sep2004                                             
   LULTRA =        F    use ultrasoft PP ?                                      
   IUNSCR =        0    unscreen: 0-lin 1-nonlin 2-no                           
   RPACOR =    0.000    partial core radius                                     
   POMASS =    7.010; ZVAL   =    3.000    mass and valenz                      
   RCORE  =    1.700    outmost cutoff radius                                   
   RWIGS  =    2.050; RWIGS  =    1.085    wigner-seitz radius (au A)           
   ENMAX  =  499.034; ENMIN  =  374.276 eV                                      
   ICORE  =        2    local potential                                         
   LCOR   =        T    correct aug charges                                     
   LPAW   =        T    paw PP                                                  
   EAUG   =  628.945                                                            
   RMAX   =    1.732    core radius for proj-oper                               
   RAUG   =    1.300    factor for augmentation sphere                          
   RDEP   =    1.728    radius for radial grids                                 
   RDEPT  =    1.329    core radius for aug-charge                              
                                                                                
   Atomic configuration                                                         
    4 entries                                                                   
     n  l   j            E        occ.                                          
     1  0  0.50       -51.8549   2.0000                                         
     2  0  0.50        -2.8742   1.0000                                         
     2  1  0.50        -1.3606   0.0000                                         
     3  2  1.50        -1.3606   0.0000                                         
   Description                                                                  
     l       E           TYP  RCUT    TYP  RCUT                                 
     0    -51.8548813     23  1.400                                             
     0     -2.8742052     23  1.700                                             
     1     -1.3605826     23  1.400                                             
     2     -1.3605826     23  1.400                                             
  local pseudopotential read in
  atomic valenz-charges read in
  non local Contribution for L=           0  read in
    real space projection operators read in
  non local Contribution for L=           0  read in
    real space projection operators read in
  non local Contribution for L=           1  read in
    real space projection operators read in
    PAW grid and wavefunctions read in
 
   number of l-projection  operators is LMAX  =           3
   number of lm-projection operators is LMMAX =           5
 
 POTCAR:    PAW_PBE Ti_pv 07Sep2000               
   VRHFIN =Ti: d3 s1                                                            
   LEXCH  = PE                                                                  
   EATOM  =  1042.5995 eV,   76.6289 Ry                                         
                                                                                
   TITEL  = PAW_PBE Ti_pv 07Sep2000                                             
   LULTRA =        F    use ultrasoft PP ?                                      
   IUNSCR =        1    unscreen: 0-lin 1-nonlin 2-no                           
   RPACOR =    2.200    partial core radius                                     
   POMASS =   47.880; ZVAL   =   10.000    mass and valenz                      
   RCORE  =    2.500    outmost cutoff radius                                   
   RWIGS  =    2.500; RWIGS  =    1.323    wigner-seitz radius (au A)           
   ENMAX  =  222.335; ENMIN  =  166.751 eV                                      
   RCLOC  =    1.701    cutoff for local pot                                    
   LCOR   =        T    correct aug charges                                     
   LPAW   =        T    paw PP                                                  
   EAUG   =  482.848                                                            
   DEXC   =    0.000                                                            
   RMAX   =    2.564    core radius for proj-oper                               
   RAUG   =    1.300    factor for augmentation sphere                          
   RDEP   =    2.538    radius for radial grids                                 
   RDEPT  =    1.952    core radius for aug-charge                              
                                                                                
   Atomic configuration                                                         
    8 entries                                                                   
     n  l   j            E        occ.                                          
     1  0  0.50     -4865.3608   2.0000                                         
     2  0  0.50      -533.1368   2.0000                                         
     2  1  1.50      -440.5031   6.0000                                         
     3  0  0.50       -59.3186   2.0000                                         
     3  1  1.50       -35.7012   6.0000                                         
     3  2  2.50        -1.9157   3.0000                                         
     4  0  0.50        -3.7291   1.0000                                         
     4  3  2.50        -1.3606   0.0000                                         
   Description                                                                  
     l       E           TYP  RCUT    TYP  RCUT                                 
     1    -35.7012140     23  2.300                                             
     1     -1.3605826     23  2.300                                             
     2     -1.9156996     23  2.500                                             
     2     -0.4063033     23  2.500                                             
     0     -3.7290856     23  2.500                                             
     0     20.4087390     23  2.500                                             
  local pseudopotential read in
  partial core-charges read in
  partial kinetic energy density read in
  atomic valenz-charges read in
  non local Contribution for L=           1  read in
    real space projection operators read in
  non local Contribution for L=           1  read in
    real space projection operators read in
  non local Contribution for L=           2  read in
    real space projection operators read in
  non local Contribution for L=           2  read in
    real space projection operators read in
  non local Contribution for L=           0  read in
    real space projection operators read in
  non local Contribution for L=           0  read in
    real space projection operators read in
    PAW grid and wavefunctions read in
 
   number of l-projection  operators is LMAX  =           6
   number of lm-projection operators is LMMAX =          18
 
 POTCAR:    PAW_PBE O 08Apr2002                   
   VRHFIN =O: s2p4                                                              
   LEXCH  = PE                                                                  
   EATOM  =   432.3788 eV,   31.7789 Ry                                         
                                                                                
   TITEL  = PAW_PBE O 08Apr2002                                                 
   LULTRA =        F    use ultrasoft PP ?                                      
   IUNSCR =        1    unscreen: 0-lin 1-nonlin 2-no                           
   RPACOR =    1.200    partial core radius                                     
   POMASS =   16.000; ZVAL   =    6.000    mass and valenz                      
   RCORE  =    1.520    outmost cutoff radius                                   
   RWIGS  =    1.550; RWIGS  =    0.820    wigner-seitz radius (au A)           
   ENMAX  =  400.000; ENMIN  =  300.000 eV                                      
   ICORE  =        2    local potential                                         
   LCOR   =        T    correct aug charges                                     
   LPAW   =        T    paw PP                                                  
   EAUG   =  605.392                                                            
   DEXC   =    0.000                                                            
   RMAX   =    1.553    core radius for proj-oper                               
   RAUG   =    1.300    factor for augmentation sphere                          
   RDEP   =    1.550    radius for radial grids                                 
   RDEPT  =    1.329    core radius for aug-charge                              
                                                                                
   Atomic configuration                                                         
    4 entries                                                                   
     n  l   j            E        occ.                                          
     1  0  0.50      -514.6923   2.0000                                         
     2  0  0.50       -23.9615   2.0000                                         
     2  1  0.50        -9.0305   4.0000                                         
     3  2  1.50        -9.5241   0.0000                                         
   Description                                                                  
     l       E           TYP  RCUT    TYP  RCUT                                 
     0    -23.9615318     23  1.200                                             
     0     -9.5240782     23  1.200                                             
     1     -9.0304911     23  1.520                                             
     1      8.1634956     23  1.520                                             
     2     -9.5240782      7  1.500                                             
  local pseudopotential read in
  partial core-charges read in
  partial kinetic energy density read in
  kinetic energy density of atom read in
  atomic valenz-charges read in
  non local Contribution for L=           0  read in
    real space projection operators read in
  non local Contribution for L=           0  read in
    real space projection operators read in
  non local Contribution for L=           1  read in
    real space projection operators read in
  non local Contribution for L=           1  read in
    real space projection operators read in
    PAW grid and wavefunctions read in
 
   number of l-projection  operators is LMAX  =           4
   number of lm-projection operators is LMMAX =           8
 
 POTCAR:    PAW_PBE F 08Apr2002                   
   VRHFIN =F: s2p5                                                              
   LEXCH  = PE                                                                  
   EATOM  =   659.6475 eV,   48.4827 Ry                                         
                                                                                
   TITEL  = PAW_PBE F 08Apr2002                                                 
   LULTRA =        F    use ultrasoft PP ?                                      
   IUNSCR =        1    unscreen: 0-lin 1-nonlin 2-no                           
   RPACOR =    1.200    partial core radius                                     
   POMASS =   18.998; ZVAL   =    7.000    mass and valenz                      
   RCORE  =    1.520    outmost cutoff radius                                   
   RWIGS  =    1.500; RWIGS  =    0.794    wigner-seitz radius (au A)           
   ENMAX  =  400.000; ENMIN  =  300.000 eV                                      
   ICORE  =        2    local potential                                         
   LCOR   =        T    correct aug charges                                     
   LPAW   =        T    paw PP                                                  
   EAUG   =  613.614                                                            
   RMAX   =    1.555    core radius for proj-oper                               
   RAUG   =    1.300    factor for augmentation sphere                          
   RDEP   =    1.539    radius for radial grids                                 
   RDEPT  =    1.299    core radius for aug-charge                              
                                                                                
   Atomic configuration                                                         
    4 entries                                                                   
     n  l   j            E        occ.                                          
     1  0  0.50      -663.3661   2.0000                                         
     2  0  0.50       -29.8995   2.0000                                         
     2  1  0.50       -11.1114   5.0000                                         
     3  2  1.50       -10.8847   0.0000                                         
   Description                                                                  
     l       E           TYP  RCUT    TYP  RCUT                                 
     0    -29.8995018     23  1.200                                             
     0     -9.5240782     23  1.200                                             
     1    -11.1113914     23  1.520                                             
     1      1.3605826     23  1.520                                             
     2    -10.8846608      7  1.500                                             
  local pseudopotential read in
  partial core-charges read in
  partial kinetic energy density read in
  atomic valenz-charges read in
  non local Contribution for L=           0  read in
    real space projection operators read in
  non local Contribution for L=           0  read in
    real space projection operators read in
  non local Contribution for L=           1  read in
    real space projection operators read in
  non local Contribution for L=           1  read in
    real space projection operators read in
    PAW grid and wavefunctions read in
 
   number of l-projection  operators is LMAX  =           4
   number of lm-projection operators is LMMAX =           8
 
 Optimization of the real space projectors (new method)

 maximal supplied QI-value         = 22.11
 optimisation between [QCUT,QGAM] = [ 11.28, 22.77] = [ 35.61,145.23] Ry 
 Optimized for a Real-space Cutoff    1.31 Angstroem

   l    n(q)    QCUT    max X(q) W(low)/X(q) W(high)/X(q)  e(spline) 
   0      9    11.276    10.506    0.19E-04    0.17E-04    0.32E-07
   0      9    11.276     8.367    0.38E-04    0.40E-04    0.65E-07
   1      8    11.276     8.983    0.55E-04    0.98E-04    0.20E-06
 Optimization of the real space projectors (new method)

 maximal supplied QI-value         = 15.12
 optimisation between [QCUT,QGAM] = [ 11.34, 22.83] = [ 36.00,145.93] Ry 
 Optimized for a Real-space Cutoff    1.56 Angstroem

   l    n(q)    QCUT    max X(q) W(low)/X(q) W(high)/X(q)  e(spline) 
   1     10    11.338     4.216    0.27E-04    0.12E-04    0.66E-07
   1     10    11.338     5.422    0.81E-04    0.24E-04    0.19E-06
   2     10    11.338    72.084    0.64E-04    0.21E-03    0.51E-06
   2     10    11.338    65.965    0.63E-04    0.21E-03    0.50E-06
   0     11    11.338    41.531    0.33E-04    0.54E-04    0.13E-06
   0     11    11.338    16.290    0.26E-04    0.41E-04    0.11E-06
 Optimization of the real space projectors (new method)

 maximal supplied QI-value         = 24.76
 optimisation between [QCUT,QGAM] = [ 11.39, 22.77] = [ 36.31,145.25] Ry 
 Optimized for a Real-space Cutoff    1.20 Angstroem

   l    n(q)    QCUT    max X(q) W(low)/X(q) W(high)/X(q)  e(spline) 
   0      8    11.387    20.381    0.89E-04    0.31E-03    0.27E-06
   0      8    11.387    15.268    0.93E-04    0.32E-03    0.29E-06
   1      8    11.387     5.964    0.53E-04    0.28E-03    0.29E-06
   1      8    11.387     5.382    0.37E-04    0.22E-03    0.26E-06
 Optimization of the real space projectors (new method)

 maximal supplied QI-value         = 24.76
 optimisation between [QCUT,QGAM] = [ 11.39, 22.77] = [ 36.31,145.25] Ry 
 Optimized for a Real-space Cutoff    1.20 Angstroem

   l    n(q)    QCUT    max X(q) W(low)/X(q) W(high)/X(q)  e(spline) 
   0      8    11.387    14.049    0.69E-04    0.23E-03    0.18E-06
   0      8    11.387     8.945    0.88E-04    0.30E-03    0.26E-06
   1      8    11.387     7.086    0.62E-04    0.27E-03    0.27E-06
   1      8    11.387     6.747    0.46E-04    0.23E-03    0.25E-06

 ----------------------------------------------------------------------------- 
|                                                                             |
|  ADVICE TO THIS USER RUNNING 'VASP/VAMP'   (HEAR YOUR MASTER'S VOICE ...):  |
|                                                                             |
|      You enforced a specific xc-type in the INCAR file,                     |
|      a different type was found on the POTCAR file                          |
|          I HOPE YOU KNOW, WHAT YOU ARE  DOING                               |
|                                                                             |
 ----------------------------------------------------------------------------- 

  PAW_PBE Li_sv 10Sep2004               :
 energy of atom  1       EATOM= -202.7858
 kinetic energy error for atom=    0.0143 (will be added to EATOM!!)
  PAW_PBE Ti_pv 07Sep2000               :
 energy of atom  2       EATOM=-1042.5995
 kinetic energy error for atom=    0.0024 (will be added to EATOM!!)
  PAW_PBE O 08Apr2002                   :
 energy of atom  3       EATOM= -432.3788
 kinetic energy error for atom=    0.0224 (will be added to EATOM!!)
  PAW_PBE F 08Apr2002                   :
 energy of atom  4       EATOM= -659.6475
 kinetic energy error for atom=    0.0354 (will be added to EATOM!!)
 
 
 POSCAR: config 32                               
  positions in direct lattice
  velocities in cartesian coordinates
 exchange correlation table for  LEXCH =       14
   RHO(1)=    0.500       N(1)  =     2000
   RHO(2)=  100.500       N(2)  =     4000

 VTST: version 3.2, (02/03/18)

 CHAIN: initializing optimizer
 
 OPT: Using VASP QUASI-newton optimizer
 CHAIN: Read ICHAIN            0
 
 POSCAR: config 32                               
  positions in direct lattice
  velocities in cartesian coordinates
 


--------------------------------------------------------------------------------------------------------


 ion  position               nearest neighbor table
   1  0.340  0.899  0.878- 105 2.03 157 2.04 101 2.11  86 2.23  43 2.86  34 2.88
   2  0.994  0.995  0.994- 118 1.87  68 1.88 103 1.89 212 2.04 130 2.05 171 2.07
   3  0.000  0.992  0.494- 119 1.81  67 1.83 172 1.96 193 1.97 131 2.01 213 2.08
   4  0.006  0.496  0.997-  89 1.85 117 1.86 138 1.93 132 1.98 214 2.02 194 2.02
   5  0.995  0.503  0.507-  66 1.83 104 1.84 215 1.93 223 2.00 173 2.02 137 2.03
   6  0.494  0.992  0.998- 121 1.85 101 1.88 140 1.91 133 1.99 216 2.01 174 2.03
   7  0.501  0.008  0.500- 112 1.79 134 1.89 191 1.93 139 1.94 175 1.95 225 2.03
   8  0.504  0.496  0.996-  70 1.88 120 1.88  90 1.89 135 2.03 192 2.04 217 2.06
   9  0.492  0.500  0.496- 102 1.81  69 1.86 224 1.97 218 1.99 136 2.00 176 2.07
  10  0.007  0.003  0.256-  91 1.85  67 1.86 219 1.94 227 1.97 130 2.00 197 2.06
  11  0.002  0.008  0.757-  68 1.80 113 1.84 177 1.95 198 1.99 228 2.05 131 2.07
  12  0.994  0.493  0.251- 107 1.82 122 1.86 137 1.93 132 1.97 220 2.01 178 2.03
  13  0.993  0.499  0.742- 108 1.82  66 1.83 226 1.93 221 1.97 138 2.03 179 2.05
  14  0.505  0.008  0.249- 114 1.82  92 1.84 133 1.94 139 1.98 195 2.01 231 2.04
  15  0.494  0.001  0.751- 115 1.93 105 2.00 140 2.02 232 2.03 134 2.06 180 2.07
  16  0.493  0.496  0.257-  69 1.82 106 1.84 229 1.95 222 2.00 135 2.02 181 2.05
  17  0.500  0.503  0.758-  70 1.81 116 1.89 182 1.95 196 1.98 230 1.99 136 2.08
  18  0.995  0.258  0.002- 117 1.83 110 1.88 141 1.96 146 1.96 183 2.01 212 2.02
  19  0.998  0.248  0.492-  74 1.78 213 1.91 202 1.93 184 1.94 223 1.94 142 2.01
  20  1.000  0.758  0.006- 118 1.81  71 1.86 203 1.96 185 2.00 148 2.04 214 2.06
  21  0.998  0.757  0.506- 119 1.83  72 1.84 204 1.95 186 1.97 215 2.02 147 2.03
  22  0.495  0.258  0.001- 120 1.80 109 1.85 150 1.94 143 1.97 187 2.03 216 2.09
  23  0.509  0.245  0.499-  93 1.81 112 1.89 144 1.91 149 1.95 224 1.98 199 2.01
  24  0.509  0.754  0.998-  94 1.82 121 1.84 152 1.94 145 1.99 217 2.00 200 2.05
  25  0.509  0.754  0.508-  73 1.79  95 1.84 225 1.96 218 1.97 201 2.03 151 2.07
  26  1.000  0.258  0.255- 122 1.79  74 1.88 209 1.95 188 1.96 141 1.99 219 2.03
  27  0.005  0.242  0.748- 113 1.80  96 1.84 142 1.96 146 1.98 210 2.03 226 2.05
  28  0.008  0.748  0.243-  71 1.82  97 1.84 220 1.95 227 1.98 147 2.05 211 2.06
  29  0.994  0.751  0.743- 111 1.83  72 1.84 228 1.93 221 1.97 148 2.03 189 2.03
  30  0.508  0.241  0.251- 114 1.82  98 1.82 143 1.93 149 1.96 229 2.01 205 2.04
  31  0.505  0.240  0.750- 115 1.78  99 1.87 150 1.95 144 1.98 206 2.02 230 2.07
  32  0.508  0.751  0.253- 100 1.79 151 1.92 231 1.93 222 1.94 145 1.94 207 2.01
  33  0.503  0.741  0.742- 116 1.80  73 1.85 190 1.93 208 1.99 232 2.03 152 2.05
  34  0.255  0.000  0.010-  75 1.82 101 1.90 246 1.95 233 1.95 171 1.99 157 2.10   1 2.88
  35  0.253  0.995  0.508-  76 1.83 128 1.84 172 1.96 191 2.00 234 2.02 156 2.05
  36  0.244  0.509  0.996-  89 1.84 123 1.85 159 1.93 153 1.97 192 2.02 245 2.04
  37  0.255  0.496  0.508-  77 1.87 102 1.88 127 1.88 173 2.04 235 2.04 158 2.05
  38  0.755  0.999  0.993- 103 1.80  81 1.86 236 1.96 249 1.97 154 2.06 174 2.07
  39  0.749  0.007  0.494- 124 1.84  80 1.84 193 1.95 155 1.99 175 2.00 250 2.04
  40  0.742  0.501  0.005-  90 1.80  78 1.87 237 1.96 247 1.97 161 2.02 194 2.06
  41  0.756  0.498  0.505-  79 1.84 104 1.86 248 1.96 238 1.99 176 2.02 160 2.02
  42  0.246  0.003  0.245-  91 1.84  75 1.86 239 1.93 252 1.97 156 2.01 195 2.06
  43  0.260  0.998  0.743- 105 1.79  76 1.86 253 1.96 240 1.98 177 2.06 157 2.11   1 2.86
  44  0.255  0.492  0.251- 129 1.83 106 1.83 158 1.93 153 1.98 241 2.04 178 2.04
  45  0.247  0.508  0.743-  77 1.79 125 1.86 179 1.95 196 1.97 251 2.03 159 2.06
  46  0.743  0.001  0.255-  92 1.85  80 1.86 256 1.95 242 1.96 154 1.99 197 2.01
  47  0.748  0.007  0.755- 126 1.82  81 1.84 180 1.92 198 1.98 257 2.05 155 2.07
  48  0.756  0.498  0.242-  78 1.81 107 1.86 243 1.96 254 1.96 181 2.02 160 2.05
  49  0.757  0.497  0.742- 108 1.83  79 1.84 255 1.93 244 1.98 182 2.03 161 2.04
  50  0.257  0.252  0.006- 109 1.83  82 1.86 245 1.94 233 2.00 168 2.02 183 2.05
  51  0.253  0.257  0.507- 127 1.81  83 1.85 199 1.96 184 2.01 167 2.04 234 2.06
  52  0.254  0.744  0.992- 123 1.81  86 1.88 200 1.95 185 1.96 162 2.02 246 2.06
  53  0.254  0.757  0.494-  85 1.84 128 1.85 201 1.96 186 1.98 235 2.00 163 2.07
  54  0.756  0.251  0.008- 110 1.81  84 1.86 236 1.94 247 1.95 170 2.03 187 2.04
  55  0.742  0.243  0.498- 124 1.82  93 1.84 169 1.94 164 1.96 248 2.03 202 2.05
  56  0.743  0.748  0.993-  88 1.83  94 1.83 237 1.95 249 1.95 203 2.02 165 2.04
  57  0.742  0.753  0.493-  95 1.82  87 1.86 250 1.95 238 1.97 166 2.01 204 2.05
  58  0.251  0.257  0.243- 129 1.82  82 1.83 205 1.96 188 2.00 167 2.03 239 2.04
  59  0.243  0.250  0.744-  83 1.84  96 1.84 251 1.95 240 1.99 206 2.03 168 2.04
  60  0.245  0.749  0.256-  97 1.83  85 1.84 241 1.93 252 1.98 207 2.05 162 2.06
  61  0.249  0.744  0.758- 125 1.81  86 1.89 189 1.93 208 1.98 163 2.03 253 2.05
  62  0.742  0.250  0.243-  84 1.80  98 1.83 254 1.94 242 1.95 209 2.05 169 2.07
  63  0.743  0.242  0.751-  99 1.81 126 1.83 170 1.95 164 2.01 210 2.04 255 2.05
  64  0.747  0.749  0.257-  87 1.82 100 1.90 243 1.94 256 1.95 211 1.98 165 2.03
  65  0.758  0.751  0.756- 111 1.82  88 1.84 257 1.92 244 1.97 190 2.03 166 2.05
  66  0.011  0.503  0.625-   5 1.83  13 1.83
  67  0.006  0.006  0.376-   3 1.83  10 1.86
  68  0.008  0.003  0.873-  11 1.80   2 1.88
  69  0.497  0.497  0.375-  16 1.82   9 1.86
  70  0.491  0.501  0.875-  17 1.81   8 1.88
  71  0.006  0.744  0.125-  28 1.82  20 1.86
  72  0.010  0.746  0.624-  21 1.84  29 1.84
  73  0.510  0.760  0.624-  25 1.79  33 1.85
  74  0.991  0.247  0.377-  19 1.78  26 1.88
  75  0.266  0.011  0.127-  34 1.82  42 1.86
  76  0.270  0.011  0.624-  35 1.83  43 1.86
  77  0.236  0.507  0.627-  45 1.79  37 1.87
  78  0.748  0.489  0.125-  48 1.81  40 1.87
  79  0.744  0.491  0.624-  49 1.84  41 1.84
  80  0.740  0.000  0.376-  39 1.84  46 1.86
  81  0.738  1.000  0.874-  47 1.84  38 1.86
  82  0.243  0.242  0.126-  58 1.83  50 1.86
  83  0.250  0.242  0.626-  59 1.84  51 1.85
  84  0.738  0.261  0.127-  62 1.80  54 1.86
  85  0.261  0.753  0.375-  53 1.84  60 1.84
  86  0.267  0.774  0.875-  52 1.88  61 1.89   1 2.23
  87  0.759  0.750  0.374-  64 1.82  57 1.86
  88  0.756  0.751  0.875-  56 1.83  65 1.84
  89  0.125  0.510  0.991-  36 1.84   4 1.85
  90  0.626  0.513  0.996-  40 1.80   8 1.89
  91  0.126  0.006  0.243-  42 1.84  10 1.85
  92  0.624  0.004  0.239-  14 1.84  46 1.85
  93  0.624  0.262  0.491-  23 1.81  55 1.84
  94  0.625  0.734  0.996-  24 1.82  56 1.83
  95  0.625  0.767  0.489-  57 1.82  25 1.84
  96  0.124  0.244  0.752-  27 1.84  59 1.84
  97  0.127  0.750  0.257-  60 1.83  28 1.84
  98  0.625  0.240  0.266-  30 1.82  62 1.83
  99  0.626  0.248  0.750-  63 1.81  31 1.87
 100  0.624  0.752  0.257-  32 1.79  64 1.90
 101  0.374  0.984  0.980-   6 1.88  34 1.90   1 2.11
 102  0.376  0.510  0.507-   9 1.81  37 1.88
 103  0.872  0.995  0.993-  38 1.80   2 1.89
 104  0.876  0.507  0.502-   5 1.84  41 1.86
 105  0.369  0.975  0.775-  43 1.79  15 2.00   1 2.03
 106  0.374  0.492  0.246-  44 1.83  16 1.84
 107  0.876  0.494  0.250-  12 1.82  48 1.86
 108  0.876  0.504  0.743-  13 1.82  49 1.83
 109  0.375  0.255  0.007-  50 1.83  22 1.85
 110  0.874  0.255  0.009-  54 1.81  18 1.88
 111  0.876  0.748  0.742-  65 1.82  29 1.83
 112  0.514  0.123  0.500-   7 1.79  23 1.89
 113  0.990  0.126  0.744-  27 1.80  11 1.84
 114  0.491  0.124  0.257-  14 1.82  30 1.82
 115  0.493  0.126  0.742-  31 1.78  15 1.93
 116  0.498  0.624  0.744-  33 1.80  17 1.89
 117  0.006  0.376  0.005-  18 1.83   4 1.86
 118  0.009  0.875  0.002-  20 1.81   2 1.87
 119  0.991  0.875  0.498-   3 1.81  21 1.83
 120  0.508  0.374  0.004-  22 1.80   8 1.88
 121  0.511  0.874  0.996-  24 1.84   6 1.85
 122  0.011  0.374  0.247-  26 1.79  12 1.86
 123  0.262  0.627  0.987-  52 1.81  36 1.85
 124  0.736  0.125  0.506-  55 1.82  39 1.84
 125  0.254  0.627  0.763-  61 1.81  45 1.86
 126  0.757  0.124  0.743-  47 1.82  63 1.83
 127  0.256  0.374  0.502-  51 1.81  37 1.88
 128  0.259  0.876  0.506-  35 1.84  53 1.85
 129  0.238  0.375  0.249-  58 1.82  44 1.83
 130  0.992  0.002  0.127-  10 2.00   2 2.05
 131  0.994  0.997  0.624-   3 2.01  11 2.07
 132  0.003  0.510  0.125-  12 1.97   4 1.98
 133  0.481  0.998  0.126-  14 1.94   6 1.99
 134  0.478  0.989  0.618-   7 1.89  15 2.06
 135  0.504  0.505  0.127-  16 2.02   8 2.03
 136  0.511  0.496  0.624-   9 2.00  17 2.08
 137  0.002  0.495  0.376-  12 1.93   5 2.03
 138  0.992  0.496  0.873-   4 1.93  13 2.03
 139  0.518  0.995  0.376-   7 1.94  14 1.98
 140  0.522  0.007  0.878-   6 1.91  15 2.02
 141  0.011  0.245  0.128-  18 1.96  26 1.99
 142  0.002  0.258  0.622-  27 1.96  19 2.01
 143  0.513  0.242  0.127-  30 1.93  22 1.97
 144  0.499  0.255  0.622-  23 1.91  31 1.98
 145  0.504  0.750  0.127-  32 1.94  24 1.99
 146  0.993  0.251  0.875-  18 1.96  27 1.98
 147  0.990  0.751  0.375-  21 2.03  28 2.05
 148  0.993  0.752  0.874-  29 2.03  20 2.04
 149  0.487  0.258  0.375-  23 1.95  30 1.96
 150  0.497  0.247  0.876-  22 1.94  31 1.95
 151  0.487  0.748  0.375-  32 1.92  25 2.07
 152  0.488  0.745  0.874-  24 1.94  33 2.05
 153  0.243  0.505  0.124-  36 1.97  44 1.98
 154  0.757  0.001  0.126-  46 1.99  38 2.06
 155  0.759  0.994  0.622-  39 1.99  47 2.07
 156  0.242  0.995  0.375-  42 2.01  35 2.05
 157  0.235  0.979  0.877-   1 2.04  34 2.10  43 2.11
 158  0.251  0.505  0.375-  44 1.93  37 2.05
 159  0.263  0.488  0.874-  36 1.93  45 2.06
 160  0.748  0.508  0.375-  41 2.02  48 2.05
 161  0.756  0.508  0.874-  40 2.02  49 2.04
 162  0.247  0.746  0.123-  52 2.02  60 2.06
 163  0.243  0.743  0.626-  61 2.03  53 2.07
 164  0.749  0.263  0.623-  55 1.96  63 2.01
 165  0.747  0.749  0.126-  64 2.03  56 2.04
 166  0.741  0.750  0.624-  57 2.01  65 2.05
 167  0.256  0.251  0.375-  58 2.03  51 2.04
 168  0.252  0.258  0.876-  50 2.02  59 2.04
 169  0.766  0.241  0.374-  55 1.94  62 2.07
 170  0.755  0.242  0.877-  63 1.95  54 2.03
 171  0.127  0.009  0.011-  34 1.99   2 2.07
 172  0.126  0.997  0.511-   3 1.96  35 1.96
 173  0.124  0.495  0.490-   5 2.02  37 2.04
 174  0.623  0.007  0.017-   6 2.03  38 2.07
 175  0.623  0.980  0.514-   7 1.95  39 2.00
 176  0.626  0.488  0.495-  41 2.02   9 2.07
 177  0.127  0.009  0.739-  11 1.95  43 2.06
 178  0.124  0.511  0.251-  12 2.03  44 2.04
 179  0.124  0.499  0.767-  45 1.95  13 2.05
 180  0.626  1.000  0.729-  47 1.92  15 2.07
 181  0.625  0.502  0.252-  48 2.02  16 2.05
 182  0.627  0.496  0.759-  17 1.95  49 2.03
 183  0.125  0.244  0.993-  18 2.01  50 2.05
 184  0.124  0.252  0.495-  19 1.94  51 2.01
 185  0.127  0.739  0.989-  52 1.96  20 2.00
 186  0.125  0.757  0.490-  21 1.97  53 1.98
 187  0.625  0.242  0.992-  22 2.03  54 2.04
 188  0.124  0.234  0.260-  26 1.96  58 2.00
 189  0.124  0.747  0.763-  61 1.93  29 2.03
 190  0.627  0.748  0.758-  33 1.93  65 2.03
 191  0.378  0.013  0.477-   7 1.93  35 2.00
 192  0.373  0.491  0.010-  36 2.02   8 2.04
 193  0.875  0.014  0.495-  39 1.95   3 1.97
 194  0.875  0.492  0.002-   4 2.02  40 2.06
 195  0.377  0.993  0.267-  14 2.01  42 2.06
 196  0.374  0.495  0.737-  45 1.97  17 1.98
 197  0.874  0.996  0.256-  46 2.01  10 2.06
 198  0.875  0.988  0.754-  47 1.98  11 1.99
 199  0.379  0.236  0.501-  51 1.96  23 2.01
 200  0.377  0.767  0.009-  52 1.95  24 2.05
 201  0.378  0.738  0.509-  53 1.96  25 2.03
 202  0.874  0.243  0.509-  19 1.93  55 2.05
 203  0.873  0.762  0.006-  20 1.96  56 2.02
 204  0.873  0.738  0.510-  21 1.95  57 2.05
 205  0.378  0.261  0.242-  58 1.96  30 2.04
 206  0.375  0.257  0.752-  31 2.02  59 2.03
 207  0.378  0.751  0.241-  32 2.01  60 2.05
 208  0.375  0.761  0.739-  61 1.98  33 1.99
 209  0.874  0.260  0.241-  26 1.95  62 2.05
 210  0.874  0.258  0.745-  27 2.03  63 2.04
 211  0.875  0.750  0.243-  64 1.98  28 2.06
 212  0.997  0.127  0.002-  18 2.02   2 2.04
 213  0.005  0.126  0.510-  19 1.91   3 2.08
 214  0.989  0.626  0.993-   4 2.02  20 2.06
 215  0.008  0.627  0.491-   5 1.93  21 2.02
 216  0.493  0.123  0.004-   6 2.01  22 2.09
 217  0.483  0.627  0.004-  24 2.00   8 2.06
 218  0.514  0.627  0.501-  25 1.97   9 1.99
 219  0.988  0.128  0.247-  10 1.94  26 2.03
 220  0.996  0.623  0.259-  28 1.95  12 2.01
 221  0.007  0.625  0.757-  13 1.97  29 1.97
 222  0.499  0.626  0.251-  32 1.94  16 2.00
 223  0.996  0.374  0.499-  19 1.94   5 2.00
 224  0.487  0.372  0.502-   9 1.97  23 1.98
 225  0.484  0.878  0.490-  25 1.96   7 2.03
 226  0.001  0.374  0.751-  13 1.93  27 2.05
 227  0.999  0.876  0.250-  10 1.97  28 1.98
 228  0.007  0.876  0.747-  29 1.93  11 2.05
 229  0.509  0.371  0.243-  16 1.95  30 2.01
 230  0.500  0.374  0.749-  17 1.99  31 2.07
 231  0.499  0.875  0.251-  32 1.93  14 2.04
 232  0.508  0.871  0.762-  15 2.03  33 2.03
 233  0.255  0.124  0.985-  34 1.95  50 2.00
 234  0.244  0.124  0.491-  35 2.02  51 2.06
 235  0.241  0.627  0.498-  53 2.00  37 2.04
 236  0.750  0.126  0.006-  54 1.94  38 1.96
 237  0.768  0.625  0.006-  56 1.95  40 1.96
 238  0.738  0.626  0.503-  57 1.97  41 1.99
 239  0.264  0.127  0.261-  42 1.93  58 2.04
 240  0.260  0.124  0.766-  43 1.98  59 1.99
 241  0.255  0.624  0.248-  60 1.93  44 2.04
 242  0.762  0.126  0.246-  62 1.95  46 1.96
 243  0.750  0.624  0.245-  64 1.94  48 1.96
 244  0.743  0.625  0.745-  65 1.97  49 1.98
 245  0.241  0.377  0.006-  50 1.94  36 2.04
 246  0.238  0.875  0.013-  34 1.95  52 2.06
 247  0.740  0.375  0.986-  54 1.95  40 1.97
 248  0.761  0.372  0.487-  41 1.96  55 2.03
 249  0.736  0.874  0.007-  56 1.95  38 1.97
 250  0.767  0.876  0.501-  57 1.95  39 2.04
 251  0.247  0.376  0.747-  59 1.95  45 2.03
 252  0.253  0.876  0.243-  42 1.97  60 1.98
 253  0.234  0.873  0.734-  43 1.96  61 2.05
 254  0.743  0.374  0.268-  62 1.94  48 1.96
 255  0.752  0.374  0.761-  49 1.93  63 2.05
 256  0.752  0.875  0.245-  64 1.95  46 1.95
 257  0.746  0.874  0.745-  65 1.92  47 2.05
 

IMPORTANT INFORMATION: All symmetrisations will be switched off!
NOSYMM: (Re-)initialisation of all symmetry stuff for point group C_1.

 
 
 KPOINTS: Title                                   

Automatic generation of k-mesh.
Space group operators:
 irot       det(A)        alpha          n_x          n_y          n_z        tau_x        tau_y        tau_z
    1     1.000000     0.000001     1.000000     0.000000     0.000000     0.000000     0.000000     0.000000
 
 Subroutine IBZKPT returns following result:
 ===========================================
 
 Found      4 irreducible k-points:
 
 Following reciprocal coordinates:
            Coordinates               Weight
  0.250000  0.250000  0.250000      2.000000
 -0.250000  0.250000  0.250000      2.000000
  0.250000 -0.250000  0.250000      2.000000
 -0.250000 -0.250000  0.250000      2.000000
 
 Following cartesian coordinates:
            Coordinates               Weight
  0.016206  0.016206  0.016206      2.000000
 -0.016206  0.016206  0.016206      2.000000
  0.016206 -0.016206  0.016206      2.000000
 -0.016206 -0.016206  0.016206      2.000000
 


--------------------------------------------------------------------------------------------------------




 Dimension of arrays:
   k-points           NKPTS =      4   k-points in BZ     NKDIM =      4   number of bands    NBANDS=   1164
   number of dos      NEDOS =   3001   number of ions     NIONS =    257
   non local maximal  LDIM  =      6   non local SUM 2l+1 LMDIM =     18
   total plane-waves  NPLWV = ******
   max r-space proj   IRMAX =   7595   max aug-charges    IRDMAX= 146383
   dimension x,y,z NGX =   120 NGY =  120 NGZ =  120
   dimension x,y,z NGXF=   240 NGYF=  240 NGZF=  240
   support grid    NGXF=   480 NGYF=  480 NGZF=  480
   ions per type =               1  64  64 128
   NGX,Y,Z   is equivalent  to a cutoff of  12.93, 12.93, 12.93 a.u.
   NGXF,Y,Z  is equivalent  to a cutoff of  25.86, 25.86, 25.86 a.u.

 SYSTEM =  LTO                                     
 POSCAR =  config 32                               

 Startparameter for this run:
   NWRITE =      2    write-flag & timer
   PREC   = accura    normal or accurate (medium, high low for compatibility)
   ISTART =      1    job   : 0-new  1-cont  2-samecut
   ICHARG =      0    charge: 1-file 2-atom 10-const
   ISPIN  =      2    spin polarized calculation?
   LNONCOLLINEAR =      F non collinear calculations
   LSORBIT =      F    spin-orbit coupling
   INIWAV =      1    electr: 0-lowe 1-rand  2-diag
   LASPH  =      T    aspherical Exc in radial PAW
   METAGGA=      F    non-selfconsistent MetaGGA calc.

 Electronic Relaxation 1
   ENCUT  =  500.0 eV  36.75 Ry    6.06 a.u.  28.13 28.13 28.13*2*pi/ulx,y,z
   ENINI  =  500.0     initial cutoff
   ENAUG  =  628.9 eV  augmentation charge cutoff
   NELM   =     60;   NELMIN=  2; NELMDL=  0     # of ELM steps 
   EDIFF  = 0.1E-05   stopping-criterion for ELM
   LREAL  =      T    real-space projection
   NLSPLINE    = F    spline interpolate recip. space projectors
   LCOMPAT=      F    compatible to vasp.4.4
   GGA_COMPAT  = T    GGA compatible to vasp.4.4-vasp.4.6
   LMAXPAW     = -100 max onsite density
   LMAXMIX     =    4 max onsite mixed and CHGCAR
   VOSKOWN=      0    Vosko Wilk Nusair interpolation
   ROPT   =   -0.00010  -0.00010  -0.00010  -0.00010
 Ionic relaxation
   EDIFFG = -.5E-01   stopping-criterion for IOM
   NSW    =    100    number of steps for IOM
   NBLOCK =      1;   KBLOCK =    100    inner block; outer block 
   IBRION =      1    ionic relax: 0-MD 1-quasi-New 2-CG
   NFREE  =      0    steps in history (QN), initial steepest desc. (CG)
   ISIF   =      2    stress and relaxation
   IWAVPR =     11    prediction:  0-non 1-charg 2-wave 3-comb
   ISYM   =      0    0-nonsym 1-usesym 2-fastsym
   LCORR  =      T    Harris-Foulkes like correction to forces

   POTIM  = 0.5000    time-step for ionic-motion
   TEIN   =    0.0    initial temperature
   TEBEG  =    0.0;   TEEND  =   0.0 temperature during run
   SMASS  =  -3.00    Nose mass-parameter (am)
   estimated Nose-frequenzy (Omega)   =  0.10E-29 period in steps =****** mass=  -0.544E-26a.u.
   SCALEE = 1.0000    scale energy and forces
   NPACO  =    256;   APACO  = 16.0  distance and # of slots for P.C.
   PSTRESS=    0.0 pullay stress

  Mass of Ions in am
   POMASS =   7.01 47.88 16.00 19.00
  Ionic Valenz
   ZVAL   =   3.00 10.00  6.00  7.00
  Atomic Wigner-Seitz radii
   RWIGS  =  -1.00 -1.00 -1.00 -1.00
  virtual crystal weights 
   VCA    =   1.00  1.00  1.00  1.00
   NELECT =    1923.0000    total number of electrons
   NUPDOWN=       1.0000    fix difference up-down

 DOS related values:
   EMIN   =  10.00;   EMAX   =-10.00  energy-range for DOS
   EFERMI =   0.00
   ISMEAR =     0;   SIGMA  =   0.01  broadening in eV -4-tet -1-fermi 0-gaus

 Electronic relaxation 2 (details)
   IALGO  =     38    algorithm
   LDIAG  =      T    sub-space diagonalisation (order eigenvalues)
   LSUBROT=      F    optimize rotation matrix (better conditioning)
   TURBO    =      0    0=normal 1=particle mesh
   IRESTART =      0    0=no restart 2=restart with 2 vectors
   NREBOOT  =      0    no. of reboots
   NMIN     =      0    reboot dimension
   EREF     =   0.00    reference energy to select bands
   IMIX   =      4    mixing-type and parameters
     AMIX     =   0.40;   BMIX     =  1.00
     AMIX_MAG =   1.60;   BMIX_MAG =  1.00
     AMIN     =   0.10
     WC   =   100.;   INIMIX=   1;  MIXPRE=   1;  MAXMIX= -45

 Intra band minimization:
   WEIMIN = 0.0010     energy-eigenvalue tresh-hold
   EBREAK =  0.21E-09  absolut break condition
   DEPER  =   0.30     relativ break condition  

   TIME   =   0.40     timestep for ELM

  volume/ion in A,a.u.               =      14.28        96.39
  Fermi-wavevector in a.u.,A,eV,Ry     =   1.319690  2.493853 23.695660  1.741582
  Thomas-Fermi vector in A             =   2.449570
 
 Write flags
   LWAVE        =      T    write WAVECAR
   LDOWNSAMPLE  =      F    k-point downsampling of WAVECAR
   LCHARG       =      T    write CHGCAR
   LVTOT        =      F    write LOCPOT, total local potential
   LVHAR        =      F    write LOCPOT, Hartree potential only
   LELF         =      F    write electronic localiz. function (ELF)
   LORBIT       =     11    0 simple, 1 ext, 2 COOP (PROOUT), +10 PAW based schemes


 Dipole corrections
   LMONO  =      F    monopole corrections only (constant potential shift)
   LDIPOL =      F    correct potential (dipole corrections)
   IDIPOL =      0    1-x, 2-y, 3-z, 4-all directions 
   EPSILON=  1.0000000 bulk dielectric constant

 LDA+U is selected, type is set to LDAUTYPE =  2
   angular momentum for each species LDAUL =    -1    2   -1   -1
   U (eV)           for each species LDAUU =   0.0  4.2  0.0  0.0
   J (eV)           for each species LDAUJ =   0.0  0.0  0.0  0.0
 Exchange correlation treatment:
   GGA     =    PS    GGA type
   LEXCH   =    14    internal setting for exchange type
   VOSKOWN=      0    Vosko Wilk Nusair interpolation
   LHFCALC =     F    Hartree Fock is set to
   LHFONE  =     F    Hartree Fock one center treatment
   AEXX    =    0.0000 exact exchange contribution

 Linear response parameters
   LEPSILON=     F    determine dielectric tensor
   LRPA    =     F    only Hartree local field effects (RPA)
   LNABLA  =     F    use nabla operator in PAW spheres
   LVEL    =     F    velocity operator in full k-point grid
   LINTERFAST=   F  fast interpolation
   KINTER  =     0    interpolate to denser k-point grid
   CSHIFT  =0.1000    complex shift for real part using Kramers Kronig
   OMEGAMAX=  -1.0    maximum frequency
   DEG_THRESHOLD= 0.2000000E-02 threshold for treating states as degnerate
   RTIME   =   -0.100 relaxation time in fs
  (WPLASMAI=    0.000 imaginary part of plasma frequency in eV, 0.658/RTIME)
   DFIELD  = 0.0000000 0.0000000 0.0000000 field for delta impulse in time
 
 Orbital magnetization related:
   ORBITALMAG=     F  switch on orbital magnetization
   LCHIMAG   =     F  perturbation theory with respect to B field
   DQ        =  0.001000  dq finite difference perturbation B field
   LLRAUG    =     F  two centre corrections for induced B field



--------------------------------------------------------------------------------------------------------


 quasi-Newton-method for relaxation of ions
 charge density and potential will be updated during run
 spin polarized calculation
 Variant of blocked Davidson
 Davidson routine will perform the subspace rotation
 perform sub-space diagonalisation
    after iterative eigenvector-optimisation
 modified Broyden-mixing scheme, WC =      100.0
 initial mixing is a Kerker type mixing with AMIX =  0.4000 and BMIX =      1.0000
 Hartree-type preconditioning will be used
 using additional bands          202
 real space projection scheme for non local part
 use partial core corrections
 calculate Harris-corrections to forces 
   (improved forces if not selfconsistent)
 use gradient corrections 
 use of overlap-Matrix (Vanderbilt PP)
 Gauss-broadening in eV      SIGMA  =   0.01


--------------------------------------------------------------------------------------------------------


  energy-cutoff  :      500.00
  volume of cell :     3671.03
      direct lattice vectors                 reciprocal lattice vectors
    15.426331000  0.000000000  0.000000000     0.064824228  0.000000000  0.000000000
     0.000000000 15.426331000  0.000000000     0.000000000  0.064824228  0.000000000
     0.000000000  0.000000000 15.426331000     0.000000000  0.000000000  0.064824228

  length of vectors
    15.426331000 15.426331000 15.426331000     0.064824228  0.064824228  0.064824228


 
 old parameters found on file WAVECAR:
  energy-cutoff  :      500.00
  volume of cell :     3671.03
      direct lattice vectors                 reciprocal lattice vectors
    15.426331000  0.000000000  0.000000000     0.064824228  0.000000000  0.000000000
     0.000000000 15.426331000  0.000000000     0.000000000  0.064824228  0.000000000
     0.000000000  0.000000000 15.426331000     0.000000000  0.000000000  0.064824228

  length of vectors

 
 k-points in units of 2pi/SCALE and weight: Title                                   
   0.01620606  0.01620606  0.01620606       0.250
  -0.01620606  0.01620606  0.01620606       0.250
   0.01620606 -0.01620606  0.01620606       0.250
  -0.01620606 -0.01620606  0.01620606       0.250
 
 k-points in reciprocal lattice and weights: Title                                   
   0.25000000  0.25000000  0.25000000       0.250
  -0.25000000  0.25000000  0.25000000       0.250
   0.25000000 -0.25000000  0.25000000       0.250
  -0.25000000 -0.25000000  0.25000000       0.250
 
 position of ions in fractional coordinates (direct lattice) 
   0.34046163  0.89904121  0.87786309
   0.99446108  0.99515451  0.99431075
   0.00035018  0.99203742  0.49389822
   0.00613493  0.49596668  0.99741441
   0.99461684  0.50341995  0.50748869
   0.49396316  0.99247297  0.99794726
   0.50065060  0.00798424  0.49958304
   0.50425765  0.49586878  0.99573537
   0.49199200  0.49978894  0.49574459
   0.00738530  0.00324953  0.25567668
   0.00213227  0.00773611  0.75710313
   0.99405644  0.49338848  0.25134115
   0.99329319  0.49877948  0.74176241
   0.50548735  0.00769364  0.24895605
   0.49366496  0.00102363  0.75063415
   0.49288039  0.49633946  0.25712819
   0.50039006  0.50302823  0.75814865
   0.99527837  0.25789964  0.00203911
   0.99821603  0.24810814  0.49157513
   0.99957483  0.75835127  0.00582298
   0.99840826  0.75692706  0.50590068
   0.49489887  0.25817564  0.00094827
   0.50853921  0.24549095  0.49917011
   0.50905030  0.75425642  0.99793981
   0.50852882  0.75414008  0.50799756
   0.99968423  0.25826424  0.25535008
   0.00519637  0.24153289  0.74775860
   0.00837327  0.74817110  0.24321191
   0.99415927  0.75107739  0.74263578
   0.50805051  0.24115851  0.25141318
   0.50459050  0.24005612  0.74979432
   0.50762003  0.75073131  0.25255393
   0.50261293  0.74095348  0.74215280
   0.25514545  0.00012262  0.00978436
   0.25320771  0.99502663  0.50761646
   0.24417353  0.50893451  0.99582916
   0.25477462  0.49590381  0.50789922
   0.75525066  0.99923410  0.99295749
   0.74863349  0.00704415  0.49433482
   0.74156238  0.50082008  0.00461150
   0.75555566  0.49779067  0.50539257
   0.24566289  0.00337989  0.24544734
   0.25975219  0.99765080  0.74329929
   0.25511756  0.49210433  0.25068823
   0.24724825  0.50789914  0.74251735
   0.74347324  0.00065471  0.25479303
   0.74802724  0.00681337  0.75539648
   0.75562515  0.49779787  0.24245699
   0.75713527  0.49722739  0.74229227
   0.25661640  0.25210623  0.00645660
   0.25346146  0.25659825  0.50673536
   0.25373068  0.74380627  0.99213824
   0.25364273  0.75658826  0.49353995
   0.75635230  0.25138272  0.00778035
   0.74194444  0.24270585  0.49770779
   0.74315960  0.74833094  0.99324458
   0.74245397  0.75256713  0.49333556
   0.25067006  0.25728294  0.24319768
   0.24333804  0.25021027  0.74443442
   0.24548644  0.74869053  0.25648051
   0.24940720  0.74357833  0.75767717
   0.74158135  0.25048541  0.24289428
   0.74327270  0.24168190  0.75105000
   0.74698234  0.74946483  0.25683964
   0.75848219  0.75076386  0.75578881
   0.01145934  0.50281321  0.62473484
   0.00624671  0.00588880  0.37606388
   0.00802752  0.00262345  0.87348597
   0.49714564  0.49709798  0.37523412
   0.49127991  0.50122464  0.87489628
   0.00634312  0.74445647  0.12522332
   0.00950960  0.74606832  0.62418182
   0.50983311  0.75971976  0.62403847
   0.99128229  0.24684026  0.37658659
   0.26559444  0.01097510  0.12662033
   0.26951448  0.01067760  0.62375496
   0.23642968  0.50658751  0.62716412
   0.74839966  0.48911880  0.12538940
   0.74370326  0.49113989  0.62405576
   0.74041477  0.00028612  0.37556383
   0.73761145  0.99984758  0.87382882
   0.24301659  0.24245139  0.12576921
   0.25030137  0.24247663  0.62559768
   0.73825095  0.26058320  0.12671780
   0.26102317  0.75290282  0.37463838
   0.26739005  0.77418104  0.87473796
   0.75859334  0.74950800  0.37394884
   0.75587996  0.75087635  0.87525521
   0.12516885  0.51037862  0.99145746
   0.62575480  0.51344151  0.99630680
   0.12644447  0.00604033  0.24307139
   0.62432950  0.00423160  0.23934815
   0.62435796  0.26178976  0.49073227
   0.62537050  0.73359906  0.99559323
   0.62543092  0.76657325  0.48873280
   0.12422469  0.24436892  0.75202453
   0.12668855  0.74991163  0.25684936
   0.62543663  0.24004772  0.26556150
   0.62581544  0.24774933  0.74978825
   0.62365863  0.75150450  0.25656200
   0.37352819  0.98384873  0.98001068
   0.37553364  0.51000128  0.50746281
   0.87208090  0.99455055  0.99271883
   0.87558027  0.50671360  0.50246984
   0.36886038  0.97529175  0.77483603
   0.37389818  0.49213661  0.24610038
   0.87581560  0.49389504  0.25038150
   0.87556578  0.50400877  0.74297586
   0.37511201  0.25494506  0.00665188
   0.87375990  0.25458601  0.00900425
   0.87565933  0.74792299  0.74176832
   0.51412894  0.12291139  0.50040064
   0.98980220  0.12566929  0.74399140
   0.49056811  0.12441051  0.25672142
   0.49288356  0.12567874  0.74169080
   0.49762970  0.62436077  0.74383634
   0.00632421  0.37569212  0.00514109
   0.00888866  0.87500622  0.00225030
   0.99083099  0.87515704  0.49836208
   0.50805370  0.37425027  0.00417219
   0.51132068  0.87368259  0.99619032
   0.01073204  0.37380217  0.24714369
   0.26245642  0.62713208  0.98716248
   0.73591605  0.12489344  0.50560717
   0.25362886  0.62663207  0.76341511
   0.75669795  0.12413405  0.74293570
   0.25633563  0.37395067  0.50213749
   0.25915242  0.87584558  0.50602890
   0.23792879  0.37456278  0.24889455
   0.99247004  0.00241262  0.12691449
   0.99437427  0.99703726  0.62380790
   0.00287012  0.51014379  0.12509457
   0.48099576  0.99814151  0.12594193
   0.47793988  0.98946140  0.61832272
   0.50433916  0.50510299  0.12715668
   0.51067796  0.49591801  0.62421073
   0.00153753  0.49515321  0.37619898
   0.99207917  0.49628925  0.87312588
   0.51843667  0.99481852  0.37607085
   0.52199015  0.00748436  0.87846967
   0.01092996  0.24482619  0.12757869
   0.00236324  0.25845755  0.62156282
   0.51290747  0.24233279  0.12670572
   0.49850099  0.25538360  0.62231121
   0.50385222  0.75047589  0.12654746
   0.99278686  0.25073973  0.87491386
   0.99020706  0.75100283  0.37502147
   0.99341361  0.75234162  0.87403419
   0.48733837  0.25801141  0.37549453
   0.49747274  0.24680422  0.87555642
   0.48742581  0.74799077  0.37545970
   0.48785731  0.74479996  0.87401181
   0.24259086  0.50541352  0.12366137
   0.75740297  0.00095208  0.12629650
   0.75900211  0.99401099  0.62224462
   0.24150677  0.99471058  0.37537345
   0.23517138  0.97939022  0.87687917
   0.25080557  0.50495660  0.37533871
   0.26255596  0.48773552  0.87374724
   0.74844062  0.50842501  0.37477264
   0.75564239  0.50754417  0.87430516
   0.24705270  0.74559806  0.12292573
   0.24347839  0.74304087  0.62646394
   0.74875149  0.26281927  0.62270549
   0.74708612  0.74868562  0.12555072
   0.74125464  0.75034575  0.62387134
   0.25585334  0.25056965  0.37462852
   0.25243783  0.25840886  0.87601982
   0.76564910  0.24053185  0.37437059
   0.75506518  0.24223209  0.87677331
   0.12657201  0.00922636  0.01142334
   0.12603193  0.99731774  0.51113034
   0.12395781  0.49545648  0.49044174
   0.62334083  0.00691357  0.01742139
   0.62328917  0.97998539  0.51447597
   0.62555000  0.48847817  0.49516627
   0.12689686  0.00913655  0.73879989
   0.12426691  0.51079631  0.25136230
   0.12373760  0.49878745  0.76676863
   0.62623356  0.99970282  0.72931946
   0.62521125  0.50218751  0.25180692
   0.62659763  0.49630808  0.75886145
   0.12461575  0.24394428  0.99268595
   0.12362671  0.25170301  0.49524999
   0.12651021  0.73928668  0.98903648
   0.12520409  0.75696161  0.48989850
   0.62529519  0.24159931  0.99211622
   0.12447121  0.23355528  0.26036508
   0.12425842  0.74724144  0.76330908
   0.62669178  0.74760864  0.75832586
   0.37788751  0.01288094  0.47742049
   0.37294922  0.49084674  0.01038060
   0.87460027  0.01409279  0.49542704
   0.87502639  0.49205412  0.00176474
   0.37718742  0.99282141  0.26737740
   0.37413401  0.49490415  0.73746014
   0.87392294  0.99647155  0.25589316
   0.87472895  0.98752673  0.75384515
   0.37858134  0.23648226  0.50059106
   0.37700385  0.76653661  0.00912043
   0.37813238  0.73820120  0.50931124
   0.87415394  0.24284307  0.50854054
   0.87285271  0.76208721  0.00606678
   0.87330035  0.73790520  0.50965690
   0.37792477  0.26134340  0.24244946
   0.37462085  0.25675372  0.75168555
   0.37766944  0.75076381  0.24115060
   0.37540272  0.76121343  0.73944722
   0.87411447  0.25976956  0.24083775
   0.87445703  0.25841424  0.74501290
   0.87464617  0.74984249  0.24305572
   0.99710027  0.12685949  0.00160099
   0.00489087  0.12562800  0.50996266
   0.98853665  0.62557559  0.99337997
   0.00793539  0.62684703  0.49139641
   0.49325054  0.12262753  0.00393320
   0.48298054  0.62734973  0.00396766
   0.51416309  0.62693096  0.50144936
   0.98829728  0.12750226  0.24653664
   0.99613607  0.62345000  0.25858519
   0.00666274  0.62461179  0.75672271
   0.49851889  0.62558973  0.25136065
   0.99617257  0.37396694  0.49861541
   0.48716486  0.37217722  0.50188566
   0.48354286  0.87750030  0.49048338
   0.00112315  0.37438733  0.75055035
   0.99860324  0.87599405  0.25040865
   0.00703605  0.87560821  0.74723240
   0.50888383  0.37140955  0.24322695
   0.49978424  0.37427599  0.74900764
   0.49858098  0.87549983  0.25112958
   0.50764160  0.87088854  0.76232586
   0.25478772  0.12442221  0.98546112
   0.24412186  0.12444856  0.49076155
   0.24139716  0.62730022  0.49815304
   0.75014101  0.12555605  0.00573868
   0.76835192  0.62513445  0.00552499
   0.73794021  0.62551754  0.50331672
   0.26356777  0.12655187  0.26064739
   0.25980644  0.12373515  0.76556372
   0.25509055  0.62405007  0.24778460
   0.76239490  0.12590739  0.24552159
   0.75029174  0.62444387  0.24466278
   0.74338416  0.62453671  0.74509156
   0.24138803  0.37696751  0.00598128
   0.23793070  0.87473269  0.01348929
   0.74023663  0.37480272  0.98565369
   0.76104520  0.37227241  0.48705177
   0.73602244  0.87401953  0.00655665
   0.76664706  0.87628529  0.50087192
   0.24660316  0.37627723  0.74704686
   0.25281612  0.87596270  0.24268393
   0.23405216  0.87349885  0.73448172
   0.74340306  0.37371836  0.26780404
   0.75196422  0.37368058  0.76098311
   0.75177596  0.87501050  0.24471504
   0.74617018  0.87445943  0.74520835
 
 position of ions in cartesian coordinates  (Angst):
   5.25207385 13.86890734 13.54220654
  15.34088580 15.35158281 15.33856672
   0.00540202 15.30349768  7.61903737
   0.09463953  7.65094623 15.38644484
  15.34328857  7.76592282  7.82868857
   7.62003920 15.31021660 15.39466473
   7.72320191  0.12316757  7.70673327
   7.77884535  7.64943593 15.36054347
   7.58963142  7.70990958  7.64752008
   0.11392806  0.05012835  3.94415304
   0.03289310  0.11933975 11.67932346
  15.33464366  7.61117400  3.87727184
  15.32286948  7.69433731 11.44267249
   7.79781518  0.11868471  3.84047849
   7.61543909  0.01579088 11.57953086
   7.60333601  7.65669673  3.96654452
   7.71918270  7.75987998 11.69545198
  15.35349364  3.97844521  0.03145595
  15.39881087  3.82739824  7.58320070
  15.41977223 11.69857773  0.08982720
  15.40177635 11.67660744  7.80419134
   7.63447376  3.98270288  0.01462838
   7.84489413  3.78702460  7.70036328
   7.85277844 11.63540912 15.39454989
   7.84473389 11.63361457  7.83653855
  15.42145990  3.98406958  3.93911492
   0.08016090  3.72596630 11.53517163
   0.12916886 11.54153509  3.75186745
  15.33622990 11.58636839 11.45614531
   7.83735539  3.72019103  3.87838301
   7.78398014  3.70318516 11.56657532
   7.83071463 11.58102962  3.89598053
   7.75347344 11.43019367 11.44869479
   3.93595818  0.00189162  0.15093671
   3.90606593 15.34961014  7.83065958
   3.76670172  7.85099226 15.36199024
   3.93023763  7.64997627  7.83502149
  11.65074668 15.41451595 15.31769089
  11.54866806  0.10866542  7.62577259
  11.43958675  7.72581631  0.07113853
  11.65545178  7.67908358  7.79635299
   3.78967704  0.05213935  3.78635191
   4.00702331 15.39009152 11.46638091
   3.93552793  7.59136425  3.86719955
   3.81413338  7.83502020 11.45431834
  11.46906428  0.01009979  3.93052156
  11.53931574  0.10510526 11.65299610
  11.65652365  7.67919471  3.74022182
  11.67981936  7.67039433 11.45084626
   3.95864958  3.88907410  0.09960170
   3.90998035  3.95836948  7.81706739
   3.91413346 11.47420174 15.30505289
   3.91277665 11.67138096  7.61351068
  11.66774089  3.87791311  0.12002222
  11.44548058  3.74406076  7.67780513
  11.46422590 11.54400072 15.32211964
  11.45334069 11.60934969  7.61035764
   3.86691937  3.96893185  3.75164785
   3.75381313  3.85982651 11.48389185
   3.78695511 11.54954792  3.95655323
   3.84743806 11.47068537 11.68817874
  11.43987938  3.86407085  3.74696763
  11.46597063  3.72826504 11.58594590
  11.52319679 11.56149256  3.96209330
  11.70059735 11.58153186 11.65904839
   0.17677558  7.75656295  9.63736647
   0.09636383  0.09084251  5.80128596
   0.12383517  0.04047018 13.47468374
   7.66913327  7.66839801  5.78848573
   7.57864645  7.73205722 13.49643967
   0.09785102 11.48423186  1.93173635
   0.14669821 11.50909687  9.62883538
   7.86485430 11.71968841  9.62662404
  15.29184866  3.80783962  5.80934938
   4.09714771  0.16930550  1.95328706
   4.15761958  0.16471624  9.62225048
   3.64724258  7.81478654  9.67484130
  11.54506082  7.54530847  1.93429841
  11.47261268  7.57648654  9.62689077
  11.42188336  0.00441377  5.79357203
  11.37863840 15.42397973 13.47997256
   3.74885431  3.74013534  1.94015744
   3.86123174  3.74052469  9.65067684
  11.38850349  4.01984276  1.95479076
   4.02662980 11.61452814  5.77929562
   4.12484745 11.94277296 13.49399729
  11.70231193 11.56215844  5.76865862
  11.66045441 11.58326705 13.50197652
   1.93089613  7.87326949 15.29455091
   9.65310064  7.92051873 15.36935850
   1.95057418  0.09318006  3.74969966
   9.63111359  0.06527807  3.69226385
   9.63155259  4.03845553  7.57019845
   9.64717226 11.31674197 15.35835072
   9.64810441 11.82541275  7.53935394
   1.91633119  3.76971583 11.60097936
   1.95433946 11.56838505  3.96224323
   9.64819249  3.70305553  4.09663967
   9.65403612  3.82186315 11.56648169
   9.62076450 11.59295710  3.95781031
   5.76216951 15.17717609 15.11796914
   5.79310625  7.86744859  7.82828933
  13.45300855 15.34226592 15.31400930
  13.50699112  7.81673176  7.75126604
   5.69016231 15.04517341 11.95287709
   5.76787715  7.59186232  3.79642590
  13.51062138  7.61898833  3.86246789
  13.50676746  7.77500607 11.46139159
   5.78660201  3.93286687  0.10261407
  13.47890948  3.92732804  0.13890249
  13.50821069 11.53770754 11.44276357
   7.93112324  1.89607174  7.71934588
  15.26901632  1.93861603 11.47705767
   7.56766607  1.91919770  3.96026960
   7.60338491  1.93876192 11.44156774
   7.67660047  9.63159594 11.47466562
   0.09755934  5.79555095  0.07930822
   0.13711940 13.49813550  0.03471384
  15.28488674 13.50046214  7.68789844
   7.83740452  5.77330862  0.06436164
   7.88780209 13.47771684 15.36756166
   0.16555601  5.76639608  3.81252033
   4.04873955  9.67434703 15.22829511
  11.35248458  1.92664750  7.79966350
   3.91256274  9.66663380 11.77669415
  11.67307311  1.91493294 11.46077208
   3.95431833  5.76868686  7.74613914
   3.99777108 13.51108376  7.80616926
   3.67036825  5.77812946  3.83952967
  15.31017136  0.03721793  1.95782499
  15.33954668 15.38062680  9.62306717
   0.04427543  7.86964689  1.92975019
   7.41999973 15.39766132  1.94282196
   7.37285882 15.26375912  9.53845089
   7.78010282  7.79188596  1.96156105
   7.87788724  7.65019537  9.62928130
   0.02371843  7.63839732  5.80336993
  15.30414168  7.65592225 13.46912876
   7.99757574 15.34639972  5.80139336
   8.05239284  0.11545617 13.55156396
   0.16860912  3.77676990  1.96807117
   0.03645609  3.98705174  9.58843376
   7.91228038  3.73830586  1.95460443
   7.69004127  3.93963200  9.59997867
   7.77259108 11.57708945  1.95216295
  15.31505879  3.86799414 13.49671087
  15.27526180 11.58521830  5.78520529
  15.32472713 11.60587079 13.48314076
   7.51784302  3.98016943  5.79250284
   7.67417922  3.80728361 13.50662314
   7.51919183 11.53875318  5.79196565
   7.52584831 11.48953072 13.48279554
   3.74228692  7.79667622  1.90764130
  11.68394896  0.01468704  1.94829169
  11.70861771 15.33394250  9.59895141
   3.72556343 15.34473458  5.79063510
   3.62783159 15.10839765 13.52702837
   3.86900982  7.78962759  5.79009916
   4.05027518  7.52396962 13.47871415
  11.54569270  7.84313251  5.78136679
  11.65678962  7.82954441 13.48732078
   3.81111674 11.50184241  1.89629299
   3.75597826 11.46239442  9.66404005
  11.55048837  4.05433700  9.60606099
  11.52479770 11.54947215  1.93678693
  11.43483937 11.57508194  9.62404580
   3.94687831  3.86537038  5.77914349
   3.89418946  3.98630054 13.51377173
  11.81115641  3.71052387  5.77516465
  11.64788543  3.73675232 13.52539533
   1.95254179  0.14232881  0.17622016
   1.94421032 15.38495359  7.88486582
   1.91221428  7.64307560  7.56571654
   9.61586190  0.10665099  0.26874806
   9.61506510 15.11757906  7.93647660
   9.64994137  7.53542596  7.63859879
   1.95755301  0.14094337 11.39697157
   1.91698256  7.87971295  3.87759802
   1.90881719  7.69446032 11.82842673
   9.66048613 15.42174655 11.25072336
   9.64471571  7.74691074  3.88445691
   9.66610243  7.65621271 11.70644794
   1.92236385  3.76316520 15.31350200
   1.90710654  3.88285397  7.63989033
   1.95158842 11.40448098 15.25720412
   1.93143975 11.67714036  7.55733637
   9.64601053  3.72699098 15.30471313
   1.92013415  3.60290102  4.01647792
   1.91685145 11.52719385 11.77505853
   9.66755489 11.53285827 11.69818566
   5.82941788  0.19870565  7.36484652
   5.75323808  7.57196434  0.16013457
  13.49187325  0.21739998  7.64262149
  13.49844676  7.59058974  0.02722340
   5.81861798 15.31559163  4.12465235
   5.77151508  7.63455518 11.37630416
  13.48142456 15.37190002  3.94749256
  13.49385835 15.23391423 11.62906476
   5.84012101  3.64805369  7.72228332
   5.81578624 11.82484746  0.14069474
   5.83319528 11.38773600  7.85680382
  13.48498804  3.74617756  7.84491473
  13.46491488 11.75620960  0.09358817
  13.47182029 11.38316979  7.86213597
   5.82999260  4.03156979  3.74010568
   5.77902520  3.96076793 11.59575014
   5.82605387 11.58153109  3.72006895
   5.79108665 11.74273033 11.40695760
  13.48437913  4.00729115  3.71524292
  13.48966358  3.98638357 11.49281554
  13.49258140 11.56731845  3.74945796
  15.38159887  1.95697646  0.02469743
   0.07544818  1.93797905  7.86685275
  15.24949362  9.65033606 15.32420818
   0.12241393  9.66994983  7.58044374
   7.60904612  1.89169290  0.06067485
   7.45061769  9.67770456  0.06120645
   7.93164994  9.67124456  7.73552379
  15.24580100  1.96689207  3.80315574
  15.36672466  9.61754611  3.98902081
   0.10278156  9.63546821 11.67345499
   7.69031741  9.65055417  3.87757262
  15.36728785  5.76893785  7.69180643
   7.51516632  5.74132893  7.74225425
   7.45929226 13.53661005  7.56635901
   0.01732613  5.77542285 11.57823813
  15.40478408 13.51337423  3.86288675
   0.10854043 13.50742201 11.52705435
   7.85021047  5.72948659  3.75209936
   7.70983716  5.77370534 11.55443978
   7.69127529 13.50575014  3.87400804
   7.83104728 13.43461495 11.75989112
   3.93043973  1.91937817 15.20204936
   3.76590459  1.91978463  7.57065014
   3.72387254  9.67694084  7.68467368
  11.57192358  1.93686918  0.08852673
  11.85285100  9.64353097  0.08523035
  11.38370990  9.64944061  7.76433033
   4.06588365  1.95223100  4.02083285
   4.00786010  1.90877936 11.80983937
   3.93511119  9.62680288  3.82240731
  11.76095605  1.94228914  3.78749738
  11.57424871  9.63287781  3.77424909
  11.46769006  9.63431008 11.49402903
   3.72373165  5.81522551  0.09226924
   3.67039770 13.49391605  0.20809028
  11.41913527  5.78183076 15.20502001
  11.74013510  5.74279747  7.51342188
  11.35412579 13.48291464  0.10114513
  11.82655130 13.51786688  7.72661600
   3.80418190  5.80457703 11.52419213
   3.90002513 13.51289060  3.74372265
   3.61056609 13.47488243 11.33035817
  11.46798171  5.76510307  4.13123375
  11.60004895  5.76452032 11.73917739
  11.59714484 13.49820158  3.77505520
  11.51066811 13.48970057 11.49583066
 


--------------------------------------------------------------------------------------------------------


 k-point  1 :   0.2500 0.2500 0.2500  plane waves:   93161
 k-point  2 :  -0.2500 0.2500 0.2500  plane waves:   93161
 k-point  3 :   0.2500-0.2500 0.2500  plane waves:   93161
 k-point  4 :  -0.2500-0.2500 0.2500  plane waves:   93161

 maximum and minimum number of plane-waves per node :     11686    11606

 maximum number of plane-waves:     93161
 maximum index in each direction: 
   IXMAX=   28   IYMAX=   28   IZMAX=   27
   IXMIN=  -28   IYMIN=  -28   IZMIN=  -28


 real space projection operators:
  total allocation   :     105555.54 KBytes
  max/ min on nodes  :      13243.08      13146.21


 parallel 3D FFT for wavefunctions:
    minimum data exchange during FFTs selected (reduces bandwidth)
 parallel 3D FFT for charge:
    minimum data exchange during FFTs selected (reduces bandwidth)


 total amount of memory used by VASP MPI-rank0   291719. kBytes
=======================================================================

   base      :      30000. kBytes
   nonlr-proj:      49684. kBytes
   fftplans  :      27976. kBytes
   grid      :      34041. kBytes
   one-center:       1026. kBytes
   wavefun   :     148992. kBytes
 
     INWAV:  cpu time   57.3281: real time   60.8047
 Broyden mixing: mesh for mixing (old mesh)
   NGX = 57   NGY = 57   NGZ = 57
  (NGX  =240   NGY  =240   NGZ  =240)
  gives a total of 185193 points

 charge density for first step will be calculated from the start-wavefunctions


--------------------------------------------------------------------------------------------------------


 Maximum index for non-local projection operator          970
 Maximum index for augmentation-charges         3292 (set IRDMAX)


--------------------------------------------------------------------------------------------------------


 initial charge from wavefunction
 First call to EWALD:  gamma=   0.115
 Maximum number of real-space cells 3x 3x 3
 Maximum number of reciprocal cells 3x 3x 3

    FEWALD:  cpu time    0.0162: real time    0.0162


--------------------------------------- Iteration      1(   1)  ---------------------------------------


    POTLOK:  cpu time    0.2733: real time    0.2765
    SETDIJ:  cpu time    1.3765: real time    1.3775
     EDDAV:  cpu time  130.0003: real time  130.8920
       DOS:  cpu time    0.0020: real time    0.0020
    CHARGE:  cpu time    5.3042: real time    5.3089
    MIXING:  cpu time    0.0106: real time    0.0107
    --------------------------------------------
      LOOP:  cpu time  136.9670: real time  137.8679

 eigenvalue-minimisations  : 22176
 total energy-change (2. order) :-0.1757940E+04  (-0.7025335E-06)
 number of electron    1923.0000026 magnetization       1.0000000
 augmentation part      496.7864795 magnetization       0.5820451

 Broyden mixing:
  rms(total) = 0.57370E-03    rms(broyden)= 0.55064E-03
  rms(prec ) = 0.64619E-03
  weight for this iteration     100.00

 Free energy of the ion-electron system (eV)
  ---------------------------------------------------
  alpha Z        PSCENC =      6118.73324990
  Ewald energy   TEWEN  =   -103695.03681104
  -Hartree energ DENC   =    -64939.88326416
  -exchange      EXHF   =         0.00000000
  -V(xc)+E(xc)   XCENC  =      8966.75489833
  PAW double counting   =    196738.05196854  -197742.40775208
  entropy T*S    EENTRO =        -0.00000000
  eigenvalues    EBANDS =    -25781.40433002
  atomic energy  EATOM  =    178577.25249613
  Solvation  Ediel_sol  =         0.00000000
  ---------------------------------------------------
  free energy    TOTEN  =     -1757.93954440 eV

  energy without entropy =    -1757.93954440  energy(sigma->0) =    -1757.93954440


--------------------------------------------------------------------------------------------------------




--------------------------------------- Iteration      1(   2)  ---------------------------------------


    POTLOK:  cpu time    0.2696: real time    0.2704
    SETDIJ:  cpu time    1.4364: real time    1.4369
     EDDAV:  cpu time  122.5485: real time  123.0521
       DOS:  cpu time    0.0019: real time    0.0019
    --------------------------------------------
      LOOP:  cpu time  124.2564: real time  124.7613

 eigenvalue-minimisations  : 20388
 total energy-change (2. order) : 0.4062313E-06  (-0.5749748E-06)
 number of electron    1923.0000026 magnetization       1.0000000
 augmentation part      496.7864795 magnetization       0.5820451

 Free energy of the ion-electron system (eV)
  ---------------------------------------------------
  alpha Z        PSCENC =      6118.73324990
  Ewald energy   TEWEN  =   -103695.03681104
  -Hartree energ DENC   =    -64939.88445239
  -exchange      EXHF   =         0.00000000
  -V(xc)+E(xc)   XCENC  =      8966.75475583
  PAW double counting   =    196738.03388131  -197742.38950139
  entropy T*S    EENTRO =        -0.00000000
  eigenvalues    EBANDS =    -25781.40316235
  atomic energy  EATOM  =    178577.25249613
  Solvation  Ediel_sol  =         0.00000000
  ---------------------------------------------------
  free energy    TOTEN  =     -1757.93954399 eV

  energy without entropy =    -1757.93954399  energy(sigma->0) =    -1757.93954399


--------------------------------------------------------------------------------------------------------




 average (electrostatic) potential at core
  the test charge radii are     0.7079  1.0397  0.7215  0.7167
  (the norm of the test charge is              1.0000)
       1 -62.7240       2 -58.4650       3 -58.8820       4 -58.8593       5 -58.8749
       6 -58.9477       7 -59.6649       8 -58.4981       9 -58.7309      10 -58.9517
      11 -58.5993      12 -58.9578      13 -58.8320      14 -59.1028      15 -56.7539
      16 -58.7676      17 -58.7019      18 -58.8944      19 -59.5412      20 -58.6358
      21 -58.9299      22 -58.6701      23 -59.3883      24 -58.8670      25 -58.9076
      26 -59.1377      27 -58.6972      28 -58.7383      29 -58.8889      30 -59.1168
      31 -58.5621      32 -59.4677      33 -58.7590      34 -58.8804      35 -58.8205
      36 -58.8331      37 -58.4918      38 -58.7049      39 -59.1594      40 -58.7345
      41 -58.9388      42 -58.9552      43 -58.4866      44 -58.7813      45 -58.7028
      46 -59.1664      47 -58.7363      48 -58.8662      49 -58.8630      50 -58.7842
      51 -58.6929      52 -58.8603      53 -58.8492      54 -58.9542      55 -59.2195
      56 -58.9126      57 -59.0634      58 -58.7931      59 -58.7600      60 -58.8001
      61 -58.8717      62 -59.0275      63 -58.7435      64 -59.1692      65 -58.9095
      66 -74.1441      67 -74.0179      68 -73.8005      69 -73.8807      70 -73.8133
      71 -73.8805      72 -74.0214      73 -74.2347      74 -74.5705      75 -74.0800
      76 -73.9635      77 -73.9605      78 -73.9810      79 -74.0020      80 -74.2300
      81 -73.9438      82 -73.9429      83 -73.8881      84 -74.3320      85 -73.9636
      86 -73.9456      87 -74.2271      88 -74.0966      89 -73.9214      90 -73.8302
      91 -74.0714      92 -74.2275      93 -74.5770      94 -74.1810      95 -74.2625
      96 -73.9092      97 -73.9881      98 -74.3821      99 -73.8757     100 -74.3693
     101 -73.9443     102 -73.8298     103 -73.8259     104 -73.9808     105 -73.6652
     106 -73.9457     107 -74.0509     108 -74.1205     109 -73.9155     110 -74.0467
     111 -74.1888     112 -74.7331     113 -74.0272     114 -74.4347     115 -73.6550
     116 -73.9361     117 -73.9519     118 -73.7802     119 -74.2462     120 -73.8480
     121 -74.0056     122 -74.3276     123 -74.1330     124 -74.4483     125 -74.0821
     126 -74.0713     127 -73.8297     128 -73.9477     129 -74.0971     130 -78.3644
     131 -78.3546     132 -79.1492     133 -79.4949     134 -79.5128     135 -78.3190
     136 -78.2735     137 -78.9899     138 -78.9391     139 -79.7135     140 -79.0333
     141 -79.1406     142 -79.0636     143 -79.5104     144 -79.5677     145 -79.3981
     146 -79.1585     147 -78.3647     148 -78.3716     149 -79.7067     150 -79.3213
     151 -79.2353     152 -79.0808     153 -79.0272     154 -78.5008     155 -78.5094
     156 -78.4672     157 -78.4100     158 -78.7992     159 -78.8347     160 -78.3863
     161 -78.3996     162 -78.4047     163 -78.3655     164 -79.2955     165 -78.5382
     166 -78.5792     167 -78.3657     168 -78.3602     169 -79.1859     170 -79.0128
     171 -78.3904     172 -79.3962     173 -78.3481     174 -78.2360     175 -79.6909
     176 -78.2917     177 -78.7713     178 -78.4094     179 -78.8871     180 -78.7263
     181 -78.4247     182 -78.8468     183 -78.3817     184 -79.4111     185 -79.0617
     186 -79.1147     187 -78.3677     188 -79.2377     189 -79.0043     190 -78.9859
     191 -79.6238     192 -78.2932     193 -79.4850     194 -78.2136     195 -78.5279
     196 -79.0246     197 -78.4732     198 -78.9646     199 -79.1042     200 -78.9575
     201 -79.0005     202 -79.3836     203 -78.8544     204 -78.9893     205 -79.0159
     206 -78.3716     207 -78.5506     208 -79.1939     209 -79.1667     210 -78.3559
     211 -78.6324     212 -78.3055     213 -79.2874     214 -78.2835     215 -79.1077
     216 -78.3126     217 -78.4169     218 -79.2173     219 -79.0282     220 -79.0011
     221 -79.1831     222 -79.3964     223 -79.4274     224 -79.1307     225 -79.1888
     226 -78.9789     227 -79.1387     228 -78.9651     229 -79.1260     230 -78.3113
     231 -79.3400     232 -78.4351     233 -79.1284     234 -78.3331     235 -78.3392
     236 -79.3281     237 -79.3316     238 -79.2406     239 -78.9776     240 -79.0255
     241 -78.9160     242 -79.5913     243 -79.5416     244 -79.2033     245 -78.8418
     246 -78.9112     247 -79.3455     248 -79.0898     249 -79.3260     250 -79.1538
     251 -78.8193     252 -79.1389     253 -78.7837     254 -79.5572     255 -78.9797
     256 -79.5841     257 -79.0007
 
 
 
 E-fermi :  -0.6974     XC(G=0):  -9.0582     alpha+bet : -7.7421


 spin component 1

 k-point     1 :       0.2500    0.2500    0.2500
  band No.  band energies     occupation 
      1     -43.3953      1.00000
      2     -35.6793      1.00000
      3     -35.6524      1.00000
      4     -35.5191      1.00000
      5     -35.5066      1.00000
      6     -35.5014      1.00000
      7     -35.4541      1.00000
      8     -35.4311      1.00000
      9     -35.4206      1.00000
     10     -35.3613      1.00000
     11     -35.2627      1.00000
     12     -35.2475      1.00000
     13     -35.2379      1.00000
     14     -35.2255      1.00000
     15     -35.2040      1.00000
     16     -35.1712      1.00000
     17     -35.1689      1.00000
     18     -35.1647      1.00000
     19     -35.1358      1.00000
     20     -35.1255      1.00000
     21     -35.1146      1.00000
     22     -35.0973      1.00000
     23     -35.0793      1.00000
     24     -35.0696      1.00000
     25     -35.0480      1.00000
     26     -35.0462      1.00000
     27     -35.0243      1.00000
     28     -35.0075      1.00000
     29     -35.0059      1.00000
     30     -35.0046      1.00000
     31     -35.0023      1.00000
     32     -34.9897      1.00000
     33     -34.9879      1.00000
     34     -34.9851      1.00000
     35     -34.9785      1.00000
     36     -34.9664      1.00000
     37     -34.9555      1.00000
     38     -34.9523      1.00000
     39     -34.9503      1.00000
     40     -34.9500      1.00000
     41     -34.9479      1.00000
     42     -34.9413      1.00000
     43     -34.9364      1.00000
     44     -34.9362      1.00000
     45     -34.9292      1.00000
     46     -34.9287      1.00000
     47     -34.9235      1.00000
     48     -34.9155      1.00000
     49     -34.9147      1.00000
     50     -34.9135      1.00000
     51     -34.9077      1.00000
     52     -34.9049      1.00000
     53     -34.8975      1.00000
     54     -34.8955      1.00000
     55     -34.8954      1.00000
     56     -34.8888      1.00000
     57     -34.8868      1.00000
     58     -34.8864      1.00000
     59     -34.8692      1.00000
     60     -34.8613      1.00000
     61     -34.8583      1.00000
     62     -34.8544      1.00000
     63     -34.8526      1.00000
     64     -34.8479      1.00000
     65     -34.8456      1.00000
     66     -34.8449      1.00000
     67     -34.8400      1.00000
     68     -34.8339      1.00000
     69     -34.8199      1.00000
     70     -34.8158      1.00000
     71     -34.8101      1.00000
     72     -34.8067      1.00000
     73     -34.8010      1.00000
     74     -34.7941      1.00000
     75     -34.7888      1.00000
     76     -34.7873      1.00000
     77     -34.7869      1.00000
     78     -34.7849      1.00000
     79     -34.7847      1.00000
     80     -34.7836      1.00000
     81     -34.7826      1.00000
     82     -34.7786      1.00000
     83     -34.7775      1.00000
     84     -34.7764      1.00000
     85     -34.7725      1.00000
     86     -34.7717      1.00000
     87     -34.7708      1.00000
     88     -34.7702      1.00000
     89     -34.7654      1.00000
     90     -34.7587      1.00000
     91     -34.7584      1.00000
     92     -34.7582      1.00000
     93     -34.7567      1.00000
     94     -34.7541      1.00000
     95     -34.7533      1.00000
     96     -34.7488      1.00000
     97     -34.7478      1.00000
     98     -34.7456      1.00000
     99     -34.7439      1.00000
    100     -34.7412      1.00000
    101     -34.7388      1.00000
    102     -34.7375      1.00000
    103     -34.7363      1.00000
    104     -34.7333      1.00000
    105     -34.7326      1.00000
    106     -34.7303      1.00000
    107     -34.7276      1.00000
    108     -34.7212      1.00000
    109     -34.7204      1.00000
    110     -34.7183      1.00000
    111     -34.7138      1.00000
    112     -34.7110      1.00000
    113     -34.7109      1.00000
    114     -34.7070      1.00000
    115     -34.7060      1.00000
    116     -34.7029      1.00000
    117     -34.7027      1.00000
    118     -34.6960      1.00000
    119     -34.6952      1.00000
    120     -34.6944      1.00000
    121     -34.6941      1.00000
    122     -34.6932      1.00000
    123     -34.6915      1.00000
    124     -34.6877      1.00000
    125     -34.6860      1.00000
    126     -34.6829      1.00000
    127     -34.6805      1.00000
    128     -34.6792      1.00000
    129     -34.6707      1.00000
    130     -34.6679      1.00000
    131     -34.6676      1.00000
    132     -34.6676      1.00000
    133     -34.6671      1.00000
    134     -34.6645      1.00000
    135     -34.6601      1.00000
    136     -34.6574      1.00000
    137     -34.6514      1.00000
    138     -34.6377      1.00000
    139     -34.6330      1.00000
    140     -34.6328      1.00000
    141     -34.6304      1.00000
    142     -34.6283      1.00000
    143     -34.6261      1.00000
    144     -34.6228      1.00000
    145     -34.6202      1.00000
    146     -34.6186      1.00000
    147     -34.6142      1.00000
    148     -34.6141      1.00000
    149     -34.6132      1.00000
    150     -34.6036      1.00000
    151     -34.6031      1.00000
    152     -34.6016      1.00000
    153     -34.5986      1.00000
    154     -34.5965      1.00000
    155     -34.5895      1.00000
    156     -34.5872      1.00000
    157     -34.5841      1.00000
    158     -34.5816      1.00000
    159     -34.5694      1.00000
    160     -34.5693      1.00000
    161     -34.5653      1.00000
    162     -34.5541      1.00000
    163     -34.5523      1.00000
    164     -34.5467      1.00000
    165     -34.5439      1.00000
    166     -34.5419      1.00000
[...]
   81        1.573   3.457   0.000   5.030
   82        1.574   3.458   0.000   5.033
   83        1.574   3.458   0.000   5.032
   84        1.576   3.467   0.000   5.043
   85        1.575   3.459   0.000   5.034
   86        1.568   3.465   0.000   5.033
   87        1.576   3.460   0.000   5.036
   88        1.575   3.463   0.000   5.037
   89        1.575   3.457   0.000   5.031
   90        1.575   3.453   0.000   5.028
   91        1.574   3.456   0.000   5.030
   92        1.574   3.456   0.000   5.030
   93        1.577   3.467   0.000   5.044
   94        1.576   3.467   0.000   5.043
   95        1.576   3.468   0.000   5.044
   96        1.574   3.461   0.000   5.035
   97        1.575   3.463   0.000   5.038
   98        1.576   3.470   0.000   5.046
   99        1.574   3.462   0.000   5.036
  100        1.575   3.456   0.000   5.031
  101        1.566   3.465   0.000   5.031
  102        1.575   3.457   0.000   5.031
  103        1.574   3.456   0.000   5.030
  104        1.574   3.458   0.000   5.031
  105        1.569   3.478   0.000   5.047
  106        1.575   3.461   0.000   5.036
  107        1.575   3.460   0.000   5.035
  108        1.576   3.472   0.000   5.048
  109        1.575   3.461   0.000   5.035
  110        1.575   3.457   0.000   5.031
  111        1.576   3.470   0.000   5.046
  112        1.576   3.461   0.000   5.037
  113        1.577   3.471   0.000   5.048
  114        1.577   3.473   0.000   5.050
  115        1.574   3.467   0.000   5.042
  116        1.575   3.461   0.000   5.036
  117        1.575   3.458   0.000   5.033
  118        1.576   3.459   0.000   5.035
  119        1.576   3.473   0.000   5.049
  120        1.575   3.457   0.000   5.032
  121        1.574   3.460   0.000   5.034
  122        1.577   3.466   0.000   5.042
  123        1.576   3.465   0.000   5.041
  124        1.576   3.466   0.000   5.042
  125        1.575   3.465   0.000   5.040
  126        1.576   3.469   0.000   5.045
  127        1.574   3.456   0.000   5.029
  128        1.574   3.458   0.000   5.032
  129        1.576   3.468   0.000   5.044
  130        1.737   4.368   0.000   6.104
  131        1.737   4.369   0.000   6.105
  132        1.737   4.377   0.000   6.115
  133        1.738   4.380   0.000   6.118
  134        1.739   4.374   0.000   6.113
  135        1.737   4.369   0.000   6.106
  136        1.737   4.366   0.000   6.102
  137        1.738   4.379   0.000   6.118
  138        1.738   4.379   0.000   6.118
  139        1.739   4.383   0.000   6.122
  140        1.739   4.379   0.000   6.118
  141        1.738   4.379   0.000   6.117
  142        1.738   4.379   0.000   6.116
  143        1.738   4.386   0.000   6.124
  144        1.739   4.385   0.000   6.124
  145        1.738   4.382   0.000   6.119
  146        1.737   4.380   0.000   6.117
  147        1.736   4.367   0.000   6.103
  148        1.736   4.368   0.000   6.104
  149        1.739   4.384   0.000   6.123
  150        1.738   4.388   0.000   6.126
  151        1.738   4.374   0.000   6.112
  152        1.738   4.376   0.000   6.113
  153        1.737   4.379   0.000   6.116
  154        1.737   4.369   0.000   6.106
  155        1.737   4.369   0.000   6.106
  156        1.737   4.368   0.000   6.105
  157        1.736   4.367   0.000   6.102
  158        1.738   4.374   0.000   6.112
  159        1.739   4.373   0.000   6.111
  160        1.737   4.367   0.000   6.103
  161        1.736   4.368   0.000   6.104
  162        1.736   4.365   0.000   6.101
  163        1.736   4.363   0.000   6.099
  164        1.737   4.376   0.000   6.113
  165        1.737   4.369   0.000   6.105
  166        1.736   4.368   0.000   6.104
  167        1.736   4.368   0.000   6.104
  168        1.737   4.369   0.000   6.105
  169        1.738   4.373   0.000   6.111
  170        1.737   4.377   0.000   6.115
  171        1.737   4.365   0.000   6.102
  172        1.737   4.382   0.000   6.120
  173        1.737   4.369   0.000   6.106
  174        1.736   4.362   0.000   6.099
  175        1.738   4.374   0.000   6.112
  176        1.737   4.364   0.000   6.101
  177        1.737   4.374   0.000   6.111
  178        1.737   4.368   0.000   6.104
  179        1.738   4.374   0.000   6.112
  180        1.737   4.375   0.000   6.112
  181        1.736   4.369   0.000   6.105
  182        1.737   4.376   0.000   6.114
  183        1.737   4.366   0.000   6.103
  184        1.737   4.378   0.000   6.116
  185        1.737   4.376   0.000   6.113
  186        1.737   4.377   0.000   6.115
  187        1.737   4.368   0.000   6.104
  188        1.738   4.375   0.000   6.113
  189        1.738   4.378   0.000   6.116
  190        1.738   4.379   0.000   6.117
  191        1.739   4.378   0.000   6.117
  192        1.737   4.366   0.000   6.103
  193        1.738   4.383   0.000   6.121
  194        1.736   4.365   0.000   6.102
  195        1.737   4.366   0.000   6.103
  196        1.737   4.379   0.000   6.116
  197        1.737   4.366   0.000   6.103
  198        1.737   4.377   0.000   6.114
  199        1.738   4.379   0.000   6.117
  200        1.738   4.375   0.000   6.113
  201        1.738   4.375   0.000   6.112
  202        1.738   4.376   0.000   6.114
  203        1.737   4.377   0.000   6.114
  204        1.738   4.372   0.000   6.110
  205        1.737   4.374   0.000   6.111
  206        1.737   4.370   0.000   6.106
  207        1.737   4.368   0.000   6.105
  208        1.737   4.377   0.000   6.115
  209        1.737   4.374   0.000   6.111
  210        1.737   4.368   0.000   6.105
  211        1.737   4.369   0.000   6.106
  212        1.737   4.368   0.000   6.104
  213        1.739   4.374   0.000   6.112
  214        1.736   4.365   0.000   6.101
  215        1.738   4.378   0.000   6.116
  216        1.736   4.364   0.000   6.100
  217        1.737   4.366   0.000   6.103
  218        1.737   4.377   0.000   6.114
  219        1.738   4.377   0.000   6.115
  220        1.738   4.379   0.000   6.117
  221        1.738   4.381   0.000   6.119
  222        1.738   4.380   0.000   6.118
  223        1.737   4.380   0.000   6.117
  224        1.738   4.379   0.000   6.117
  225        1.738   4.376   0.000   6.114
  226        1.738   4.378   0.000   6.116
  227        1.737   4.378   0.000   6.115
  228        1.738   4.376   0.000   6.114
  229        1.738   4.378   0.000   6.116
  230        1.737   4.369   0.000   6.106
  231        1.738   4.378   0.000   6.116
  232        1.737   4.376   0.000   6.113
  233        1.738   4.376   0.000   6.114
  234        1.737   4.367   0.000   6.104
  235        1.737   4.368   0.000   6.105
  236        1.738   4.386   0.000   6.124
  237        1.739   4.381   0.000   6.120
  238        1.737   4.377   0.000   6.114
  239        1.738   4.374   0.000   6.113
  240        1.737   4.375   0.000   6.112
  241        1.738   4.378   0.000   6.116
  242        1.738   4.384   0.000   6.123
  243        1.738   4.386   0.000   6.124
  244        1.738   4.380   0.000   6.118
  245        1.738   4.375   0.000   6.113
  246        1.738   4.374   0.000   6.112
  247        1.738   4.382   0.000   6.120
  248        1.738   4.375   0.000   6.112
  249        1.738   4.382   0.000   6.120
  250        1.738   4.374   0.000   6.112
  251        1.737   4.377   0.000   6.115
  252        1.737   4.379   0.000   6.116
  253        1.738   4.374   0.000   6.113
  254        1.739   4.384   0.000   6.123
  255        1.738   4.376   0.000   6.114
  256        1.738   4.385   0.000   6.124
  257        1.738   4.377   0.000   6.116
--------------------------------------------------
tot        345.3291194.438 111.8701651.636
 


 magnetization (x)
 
# of ion       s       p       d       tot
------------------------------------------
    1        0.000   0.000   0.000   0.000
    2        0.000   0.000   0.000   0.000
    3        0.000   0.000   0.000   0.000
    4        0.000  -0.000   0.000   0.000
    5       -0.000  -0.000  -0.000  -0.000
    6        0.000   0.000   0.008   0.008
    7        0.000   0.000   0.023   0.023
    8        0.000   0.000   0.000   0.000
    9       -0.000  -0.000   0.000   0.000
   10        0.000   0.000   0.000   0.000
   11        0.000   0.000   0.001   0.001
   12       -0.000   0.000  -0.000  -0.000
   13        0.000   0.000   0.000   0.000
   14        0.000   0.000   0.000   0.000
   15        0.005   0.006   0.897   0.909
   16        0.000   0.000   0.000   0.000
   17       -0.000  -0.000   0.000  -0.000
   18       -0.000  -0.000   0.000   0.000
   19       -0.000  -0.000   0.000   0.000
   20       -0.000  -0.000  -0.000  -0.000
   21       -0.000  -0.000  -0.000  -0.000
   22        0.000   0.000   0.000   0.000
   23       -0.000  -0.000   0.000   0.000
   24        0.000  -0.000   0.000   0.000
   25       -0.000   0.000   0.000   0.000
   26       -0.000  -0.000  -0.000  -0.000
   27       -0.000  -0.000   0.000   0.000
   28       -0.000  -0.000  -0.000  -0.000
   29       -0.000  -0.000   0.000   0.000
   30       -0.000   0.000   0.000   0.000
   31       -0.000  -0.000   0.002   0.001
   32        0.000  -0.000   0.000   0.000
   33       -0.000  -0.000   0.000   0.000
   34        0.000   0.000   0.001   0.001
   35        0.000   0.000   0.004   0.004
   36        0.000  -0.000   0.000   0.000
   37       -0.000  -0.000  -0.000  -0.000
   38        0.000   0.000   0.001   0.001
   39        0.000   0.000   0.001   0.001
   40       -0.000  -0.000   0.000   0.000
   41       -0.000   0.000  -0.000  -0.000
   42        0.000   0.000   0.000   0.000
   43        0.000   0.000   0.031   0.032
   44        0.000   0.000   0.000   0.000
   45       -0.000  -0.000   0.000   0.000
   46        0.000   0.000   0.000   0.000
   47        0.000   0.000   0.004   0.004
   48       -0.000  -0.000  -0.000  -0.000
   49       -0.000   0.000   0.000   0.000
   50       -0.000  -0.000   0.000   0.000
   51       -0.000  -0.000   0.000  -0.000
   52       -0.000  -0.000   0.000  -0.000
   53       -0.000  -0.000  -0.000  -0.000
   54       -0.000  -0.000  -0.000  -0.000
   55       -0.000  -0.000  -0.000  -0.000
   56       -0.000  -0.000   0.000   0.000
   57       -0.000  -0.000   0.000   0.000
   58        0.000  -0.000   0.000   0.000
   59       -0.000  -0.000   0.000   0.000
   60        0.000  -0.000   0.000   0.000
   61       -0.000  -0.000   0.000   0.000
   62       -0.000  -0.000   0.000  -0.000
   63       -0.000  -0.000  -0.000  -0.000
   64       -0.000  -0.000   0.000  -0.000
   65       -0.000  -0.000   0.000   0.000
   66       -0.000   0.000   0.000   0.000
   67       -0.000  -0.000   0.000  -0.000
   68       -0.000  -0.000   0.000  -0.000
   69       -0.000  -0.000   0.000  -0.000
   70       -0.000  -0.000   0.000  -0.000
   71       -0.000  -0.000   0.000  -0.000
   72       -0.000  -0.000   0.000  -0.000
   73       -0.000  -0.000   0.000  -0.000
   74        0.000  -0.000   0.000  -0.000
   75       -0.000  -0.000   0.000  -0.000
   76       -0.000  -0.003   0.000  -0.003
   77       -0.000  -0.000   0.000  -0.000
   78       -0.000   0.000   0.000   0.000
   79       -0.000   0.000   0.000   0.000
   80       -0.000  -0.000   0.000  -0.000
   81       -0.000  -0.000   0.000  -0.000
   82       -0.000  -0.000   0.000  -0.000
   83       -0.000  -0.000   0.000  -0.000
   84       -0.000  -0.000   0.000  -0.000
   85       -0.000  -0.000   0.000  -0.000
   86       -0.000  -0.000   0.000  -0.000
   87       -0.000  -0.000   0.000  -0.000
   88       -0.000  -0.000   0.000  -0.000
   89       -0.000  -0.000   0.000  -0.000
   90       -0.000  -0.000   0.000  -0.000
   91       -0.000  -0.000   0.000  -0.000
   92       -0.000  -0.000   0.000  -0.000
   93       -0.000  -0.000   0.000  -0.000
   94       -0.000  -0.000   0.000  -0.000
   95       -0.000  -0.000   0.000  -0.000
   96       -0.000  -0.000   0.000  -0.000
   97       -0.000  -0.000   0.000  -0.000
   98       -0.000  -0.000   0.000  -0.000
   99       -0.000  -0.000   0.000  -0.000
  100       -0.000  -0.000   0.000  -0.000
  101       -0.000  -0.001   0.000  -0.001
  102       -0.000  -0.000   0.000  -0.000
  103       -0.000  -0.000   0.000  -0.000
  104       -0.000   0.000   0.000   0.000
  105       -0.001  -0.014   0.000  -0.015
  106       -0.000  -0.000   0.000  -0.000
  107       -0.000   0.000   0.000   0.000
  108       -0.000  -0.000   0.000  -0.000
  109       -0.000  -0.000   0.000  -0.000
  110       -0.000  -0.000   0.000  -0.000
  111       -0.000  -0.000   0.000  -0.000
  112       -0.000  -0.001   0.000  -0.001
  113       -0.000  -0.000   0.000  -0.000
  114       -0.000  -0.000   0.000  -0.000
  115       -0.001  -0.016   0.000  -0.017
  116       -0.000  -0.000   0.000  -0.000
  117       -0.000  -0.000   0.000  -0.000
  118       -0.000  -0.000   0.000  -0.000
  119       -0.000  -0.000   0.000  -0.000
  120       -0.000  -0.000   0.000  -0.000
  121       -0.000  -0.000   0.000  -0.000
  122       -0.000   0.000   0.000   0.000
  123       -0.000  -0.000   0.000  -0.000
  124       -0.000  -0.000   0.000  -0.000
  125       -0.000  -0.000   0.000  -0.000
  126       -0.000  -0.000   0.000  -0.000
  127       -0.000  -0.000   0.000  -0.000
  128       -0.000  -0.000   0.000  -0.000
  129       -0.000  -0.000   0.000  -0.000
  130        0.000  -0.000   0.000  -0.000
  131       -0.000  -0.000   0.000  -0.000
  132       -0.000  -0.000   0.000  -0.000
  133        0.000  -0.000   0.000  -0.000
  134       -0.000  -0.003   0.000  -0.004
  135       -0.000  -0.000   0.000  -0.000
  136       -0.000  -0.000   0.000  -0.000
  137       -0.000   0.000   0.000   0.000
  138       -0.000  -0.000   0.000  -0.000
  139       -0.000  -0.000   0.000  -0.000
  140       -0.000   0.000   0.000   0.000
  141       -0.000   0.000   0.000   0.000
  142       -0.000  -0.000   0.000  -0.000
  143        0.000  -0.000   0.000  -0.000
  144       -0.000  -0.000   0.000  -0.000
  145       -0.000  -0.000   0.000  -0.000
  146       -0.000  -0.000   0.000  -0.000
  147       -0.000  -0.000   0.000  -0.000
  148       -0.000  -0.000   0.000  -0.000
  149       -0.000  -0.000   0.000  -0.000
  150       -0.000  -0.000   0.000  -0.000
  151       -0.000  -0.000   0.000  -0.000
  152        0.000  -0.000   0.000  -0.000
  153       -0.000  -0.000   0.000  -0.000
  154        0.000   0.000   0.000   0.000
  155        0.000  -0.000   0.000  -0.000
  156       -0.000  -0.000   0.000  -0.000
  157        0.000   0.000   0.000   0.000
  158       -0.000  -0.000   0.000  -0.000
  159       -0.000  -0.000   0.000  -0.000
  160       -0.000   0.000   0.000   0.000
  161       -0.000  -0.000   0.000  -0.000
  162       -0.000  -0.000   0.000  -0.000
  163       -0.000  -0.000   0.000  -0.000
  164        0.000  -0.000   0.000  -0.000
  165       -0.000  -0.000   0.000  -0.000
  166       -0.000  -0.000   0.000  -0.000
  167        0.000  -0.000   0.000  -0.000
  168       -0.000  -0.000   0.000  -0.000
  169        0.000  -0.000   0.000  -0.000
  170       -0.000  -0.000   0.000  -0.000
  171        0.000   0.000   0.000   0.000
  172       -0.000  -0.000   0.000  -0.000
  173       -0.000  -0.000   0.000  -0.000
  174        0.000  -0.000   0.000  -0.000
  175       -0.000  -0.000   0.000  -0.000
  176       -0.000  -0.000   0.000  -0.000
  177        0.000  -0.000   0.000  -0.000
  178       -0.000  -0.000   0.000  -0.000
  179       -0.000  -0.000   0.000  -0.000
  180       -0.000   0.001   0.000   0.001
  181       -0.000  -0.000   0.000  -0.000
  182        0.000  -0.000   0.000  -0.000
  183       -0.000  -0.000   0.000  -0.000
  184       -0.000  -0.000   0.000  -0.000
  185       -0.000  -0.000   0.000  -0.000
  186       -0.000  -0.000   0.000  -0.000
  187       -0.000  -0.000   0.000  -0.000
  188        0.000  -0.000   0.000  -0.000
  189       -0.000  -0.000   0.000  -0.000
  190       -0.000  -0.000   0.000  -0.000
  191       -0.000  -0.000   0.000  -0.000
  192       -0.000  -0.000   0.000  -0.000
  193        0.000   0.000   0.000   0.000
  194       -0.000  -0.000   0.000  -0.000
  195       -0.000  -0.000   0.000  -0.000
  196       -0.000  -0.000   0.000  -0.000
  197       -0.000  -0.000   0.000  -0.000
  198        0.000  -0.000   0.000  -0.000
  199       -0.000  -0.000   0.000  -0.000
  200       -0.000  -0.000   0.000  -0.000
  201       -0.000  -0.000   0.000  -0.000
  202       -0.000  -0.000   0.000  -0.000
  203       -0.000  -0.000   0.000  -0.000
  204        0.000  -0.000   0.000  -0.000
  205       -0.000  -0.000   0.000  -0.000
  206       -0.000  -0.000   0.000  -0.000
  207       -0.000  -0.000   0.000  -0.000
  208       -0.000  -0.000   0.000  -0.000
  209       -0.000  -0.000   0.000  -0.000
  210        0.000  -0.000   0.000  -0.000
  211       -0.000  -0.000   0.000  -0.000
  212       -0.000  -0.000   0.000  -0.000
  213       -0.000  -0.000   0.000  -0.000
  214       -0.000  -0.000   0.000  -0.000
  215        0.000  -0.000   0.000  -0.000
  216       -0.000  -0.000   0.000  -0.000
  217       -0.000  -0.000   0.000  -0.000
  218       -0.000  -0.000   0.000  -0.000
  219       -0.000  -0.000   0.000  -0.000
  220       -0.000   0.000   0.000   0.000
  221       -0.000  -0.000   0.000  -0.000
  222        0.000  -0.000   0.000  -0.000
  223       -0.000   0.000   0.000   0.000
  224       -0.000  -0.000   0.000  -0.000
  225       -0.000  -0.000   0.000  -0.000
  226        0.000  -0.000   0.000  -0.000
  227       -0.000  -0.000   0.000  -0.000
  228       -0.000  -0.000   0.000  -0.000
  229       -0.000  -0.000   0.000  -0.000
  230       -0.000  -0.000   0.000  -0.000
  231       -0.000  -0.000   0.000  -0.000
  232       -0.000  -0.005   0.000  -0.005
  233       -0.000  -0.000   0.000  -0.000
  234       -0.000  -0.000   0.000  -0.000
  235       -0.000  -0.000   0.000  -0.000
  236       -0.000  -0.000   0.000  -0.000
  237       -0.000  -0.000   0.000  -0.000
  238       -0.000  -0.000   0.000  -0.000
  239       -0.000  -0.000   0.000  -0.000
  240       -0.000  -0.000   0.000  -0.000
  241       -0.000  -0.000   0.000  -0.000
  242       -0.000  -0.000   0.000  -0.000
  243       -0.000   0.000   0.000   0.000
  244       -0.000  -0.000   0.000  -0.000
  245       -0.000  -0.000   0.000  -0.000
  246       -0.000  -0.000   0.000  -0.000
  247       -0.000  -0.000   0.000  -0.000
  248       -0.000  -0.000   0.000  -0.000
  249       -0.000  -0.000   0.000  -0.000
  250       -0.000  -0.000   0.000  -0.000
  251       -0.000  -0.000   0.000  -0.000
  252       -0.000  -0.000   0.000  -0.000
  253       -0.000  -0.000   0.000  -0.000
  254       -0.000   0.000   0.000   0.000
  255       -0.000  -0.000   0.000  -0.000
  256       -0.000  -0.000   0.000  -0.000
  257       -0.000  -0.000   0.000  -0.000
--------------------------------------------------
tot          0.002  -0.040   0.975   0.937
 

 total amount of memory used by VASP MPI-rank0   291719. kBytes
=======================================================================

   base      :      30000. kBytes
   nonlr-proj:      49684. kBytes
   fftplans  :      27976. kBytes
   grid      :      34041. kBytes
   one-center:       1026. kBytes
   wavefun   :     148992. kBytes
 
  
  
 General timing and accounting informations for this job:
 ========================================================
  
                  Total CPU time used (sec):      882.206
                            User time (sec):      550.216
                          System time (sec):      331.990
                         Elapsed time (sec):      910.752
  
                   Maximum memory used (kb):      622108.
                   Average memory used (kb):           0.
  
                          Minor page faults:        81013
                          Major page faults:           10
                 Voluntary context switches:        16596
