 vasp.5.4.4.18Apr17-6-g9f103f2a35 (build Jul 16 2019 12:12:28) complex          
  
 executed on             LinuxIFC date 2020.01.06  13:15:53
 running on   96 total cores
 distrk:  each k-point on   96 cores,    1 groups
 distr:  one band on NCORES_PER_BAND=   8 cores,   12 groups


--------------------------------------------------------------------------------------------------------


 INCAR:
 POTCAR:    PAW_PBE Li_sv 10Sep2004               
 POTCAR:    PAW_PBE Ti_pv 07Sep2000               
 POTCAR:    PAW_PBE O 08Apr2002                   
 POTCAR:    PAW_PBE F 08Apr2002                   
 POTCAR:    PAW_PBE Li_sv 10Sep2004               
   VRHFIN =Li: 1s2s2p                                                           
   LEXCH  = PE                                                                  
   EATOM  =   202.7858 eV,   14.9043 Ry                                         
                                                                                
   TITEL  = PAW_PBE Li_sv 10Sep2004                                             
   LULTRA =        F    use ultrasoft PP ?                                      
   IUNSCR =        0    unscreen: 0-lin 1-nonlin 2-no                           
   RPACOR =    0.000    partial core radius                                     
   POMASS =    7.010; ZVAL   =    3.000    mass and valenz                      
   RCORE  =    1.700    outmost cutoff radius                                   
   RWIGS  =    2.050; RWIGS  =    1.085    wigner-seitz radius (au A)           
   ENMAX  =  499.034; ENMIN  =  374.276 eV                                      
   ICORE  =        2    local potential                                         
   LCOR   =        T    correct aug charges                                     
   LPAW   =        T    paw PP                                                  
   EAUG   =  628.945                                                            
   RMAX   =    1.732    core radius for proj-oper                               
   RAUG   =    1.300    factor for augmentation sphere                          
   RDEP   =    1.728    radius for radial grids                                 
   RDEPT  =    1.329    core radius for aug-charge                              
                                                                                
   Atomic configuration                                                         
    4 entries                                                                   
     n  l   j            E        occ.                                          
     1  0  0.50       -51.8549   2.0000                                         
     2  0  0.50        -2.8742   1.0000                                         
     2  1  0.50        -1.3606   0.0000                                         
     3  2  1.50        -1.3606   0.0000                                         
   Description                                                                  
     l       E           TYP  RCUT    TYP  RCUT                                 
     0    -51.8548813     23  1.400                                             
     0     -2.8742052     23  1.700                                             
     1     -1.3605826     23  1.400                                             
     2     -1.3605826     23  1.400                                             
  local pseudopotential read in
  atomic valenz-charges read in
  non local Contribution for L=           0  read in
    real space projection operators read in
  non local Contribution for L=           0  read in
    real space projection operators read in
  non local Contribution for L=           1  read in
    real space projection operators read in
    PAW grid and wavefunctions read in
 
   number of l-projection  operators is LMAX  =           3
   number of lm-projection operators is LMMAX =           5
 
 POTCAR:    PAW_PBE Ti_pv 07Sep2000               
   VRHFIN =Ti: d3 s1                                                            
   LEXCH  = PE                                                                  
   EATOM  =  1042.5995 eV,   76.6289 Ry                                         
                                                                                
   TITEL  = PAW_PBE Ti_pv 07Sep2000                                             
   LULTRA =        F    use ultrasoft PP ?                                      
   IUNSCR =        1    unscreen: 0-lin 1-nonlin 2-no                           
   RPACOR =    2.200    partial core radius                                     
   POMASS =   47.880; ZVAL   =   10.000    mass and valenz                      
   RCORE  =    2.500    outmost cutoff radius                                   
   RWIGS  =    2.500; RWIGS  =    1.323    wigner-seitz radius (au A)           
   ENMAX  =  222.335; ENMIN  =  166.751 eV                                      
   RCLOC  =    1.701    cutoff for local pot                                    
   LCOR   =        T    correct aug charges                                     
   LPAW   =        T    paw PP                                                  
   EAUG   =  482.848                                                            
   DEXC   =    0.000                                                            
   RMAX   =    2.564    core radius for proj-oper                               
   RAUG   =    1.300    factor for augmentation sphere                          
   RDEP   =    2.538    radius for radial grids                                 
   RDEPT  =    1.952    core radius for aug-charge                              
                                                                                
   Atomic configuration                                                         
    8 entries                                                                   
     n  l   j            E        occ.                                          
     1  0  0.50     -4865.3608   2.0000                                         
     2  0  0.50      -533.1368   2.0000                                         
     2  1  1.50      -440.5031   6.0000                                         
     3  0  0.50       -59.3186   2.0000                                         
     3  1  1.50       -35.7012   6.0000                                         
     3  2  2.50        -1.9157   3.0000                                         
     4  0  0.50        -3.7291   1.0000                                         
     4  3  2.50        -1.3606   0.0000                                         
   Description                                                                  
     l       E           TYP  RCUT    TYP  RCUT                                 
     1    -35.7012140     23  2.300                                             
     1     -1.3605826     23  2.300                                             
     2     -1.9156996     23  2.500                                             
     2     -0.4063033     23  2.500                                             
     0     -3.7290856     23  2.500                                             
     0     20.4087390     23  2.500                                             
  local pseudopotential read in
  partial core-charges read in
  partial kinetic energy density read in
  atomic valenz-charges read in
  non local Contribution for L=           1  read in
    real space projection operators read in
  non local Contribution for L=           1  read in
    real space projection operators read in
  non local Contribution for L=           2  read in
    real space projection operators read in
  non local Contribution for L=           2  read in
    real space projection operators read in
  non local Contribution for L=           0  read in
    real space projection operators read in
  non local Contribution for L=           0  read in
    real space projection operators read in
    PAW grid and wavefunctions read in
 
   number of l-projection  operators is LMAX  =           6
   number of lm-projection operators is LMMAX =          18
 
 POTCAR:    PAW_PBE O 08Apr2002                   
   VRHFIN =O: s2p4                                                              
   LEXCH  = PE                                                                  
   EATOM  =   432.3788 eV,   31.7789 Ry                                         
                                                                                
   TITEL  = PAW_PBE O 08Apr2002                                                 
   LULTRA =        F    use ultrasoft PP ?                                      
   IUNSCR =        1    unscreen: 0-lin 1-nonlin 2-no                           
   RPACOR =    1.200    partial core radius                                     
   POMASS =   16.000; ZVAL   =    6.000    mass and valenz                      
   RCORE  =    1.520    outmost cutoff radius                                   
   RWIGS  =    1.550; RWIGS  =    0.820    wigner-seitz radius (au A)           
   ENMAX  =  400.000; ENMIN  =  300.000 eV                                      
   ICORE  =        2    local potential                                         
   LCOR   =        T    correct aug charges                                     
   LPAW   =        T    paw PP                                                  
   EAUG   =  605.392                                                            
   DEXC   =    0.000                                                            
   RMAX   =    1.553    core radius for proj-oper                               
   RAUG   =    1.300    factor for augmentation sphere                          
   RDEP   =    1.550    radius for radial grids                                 
   RDEPT  =    1.329    core radius for aug-charge                              
                                                                                
   Atomic configuration                                                         
    4 entries                                                                   
     n  l   j            E        occ.                                          
     1  0  0.50      -514.6923   2.0000                                         
     2  0  0.50       -23.9615   2.0000                                         
     2  1  0.50        -9.0305   4.0000                                         
     3  2  1.50        -9.5241   0.0000                                         
   Description                                                                  
     l       E           TYP  RCUT    TYP  RCUT                                 
     0    -23.9615318     23  1.200                                             
     0     -9.5240782     23  1.200                                             
     1     -9.0304911     23  1.520                                             
     1      8.1634956     23  1.520                                             
     2     -9.5240782      7  1.500                                             
  local pseudopotential read in
  partial core-charges read in
  partial kinetic energy density read in
  kinetic energy density of atom read in
  atomic valenz-charges read in
  non local Contribution for L=           0  read in
    real space projection operators read in
  non local Contribution for L=           0  read in
    real space projection operators read in
  non local Contribution for L=           1  read in
    real space projection operators read in
  non local Contribution for L=           1  read in
    real space projection operators read in
    PAW grid and wavefunctions read in
 
   number of l-projection  operators is LMAX  =           4
   number of lm-projection operators is LMMAX =           8
 
 POTCAR:    PAW_PBE F 08Apr2002                   
   VRHFIN =F: s2p5                                                              
   LEXCH  = PE                                                                  
   EATOM  =   659.6475 eV,   48.4827 Ry                                         
                                                                                
   TITEL  = PAW_PBE F 08Apr2002                                                 
   LULTRA =        F    use ultrasoft PP ?                                      
   IUNSCR =        1    unscreen: 0-lin 1-nonlin 2-no                           
   RPACOR =    1.200    partial core radius                                     
   POMASS =   18.998; ZVAL   =    7.000    mass and valenz                      
   RCORE  =    1.520    outmost cutoff radius                                   
   RWIGS  =    1.500; RWIGS  =    0.794    wigner-seitz radius (au A)           
   ENMAX  =  400.000; ENMIN  =  300.000 eV                                      
   ICORE  =        2    local potential                                         
   LCOR   =        T    correct aug charges                                     
   LPAW   =        T    paw PP                                                  
   EAUG   =  613.614                                                            
   RMAX   =    1.555    core radius for proj-oper                               
   RAUG   =    1.300    factor for augmentation sphere                          
   RDEP   =    1.539    radius for radial grids                                 
   RDEPT  =    1.299    core radius for aug-charge                              
                                                                                
   Atomic configuration                                                         
    4 entries                                                                   
     n  l   j            E        occ.                                          
     1  0  0.50      -663.3661   2.0000                                         
     2  0  0.50       -29.8995   2.0000                                         
     2  1  0.50       -11.1114   5.0000                                         
     3  2  1.50       -10.8847   0.0000                                         
   Description                                                                  
     l       E           TYP  RCUT    TYP  RCUT                                 
     0    -29.8995018     23  1.200                                             
     0     -9.5240782     23  1.200                                             
     1    -11.1113914     23  1.520                                             
     1      1.3605826     23  1.520                                             
     2    -10.8846608      7  1.500                                             
  local pseudopotential read in
  partial core-charges read in
  partial kinetic energy density read in
  atomic valenz-charges read in
  non local Contribution for L=           0  read in
    real space projection operators read in
  non local Contribution for L=           0  read in
    real space projection operators read in
  non local Contribution for L=           1  read in
    real space projection operators read in
  non local Contribution for L=           1  read in
    real space projection operators read in
    PAW grid and wavefunctions read in
 
   number of l-projection  operators is LMAX  =           4
   number of lm-projection operators is LMMAX =           8
 
 Optimization of the real space projectors (new method)

 maximal supplied QI-value         = 22.11
 optimisation between [QCUT,QGAM] = [ 11.28, 22.77] = [ 35.61,145.23] Ry 
 Optimized for a Real-space Cutoff    1.31 Angstroem

   l    n(q)    QCUT    max X(q) W(low)/X(q) W(high)/X(q)  e(spline) 
   0      9    11.276    10.506    0.19E-04    0.17E-04    0.32E-07
   0      9    11.276     8.367    0.38E-04    0.40E-04    0.65E-07
   1      8    11.276     8.983    0.55E-04    0.98E-04    0.20E-06
 Optimization of the real space projectors (new method)

 maximal supplied QI-value         = 15.12
 optimisation between [QCUT,QGAM] = [ 11.34, 22.83] = [ 36.00,145.93] Ry 
 Optimized for a Real-space Cutoff    1.56 Angstroem

   l    n(q)    QCUT    max X(q) W(low)/X(q) W(high)/X(q)  e(spline) 
   1     10    11.338     4.216    0.27E-04    0.12E-04    0.66E-07
   1     10    11.338     5.422    0.81E-04    0.24E-04    0.19E-06
   2     10    11.338    72.084    0.64E-04    0.21E-03    0.51E-06
   2     10    11.338    65.965    0.63E-04    0.21E-03    0.50E-06
   0     11    11.338    41.531    0.33E-04    0.54E-04    0.13E-06
   0     11    11.338    16.290    0.26E-04    0.41E-04    0.11E-06
 Optimization of the real space projectors (new method)

 maximal supplied QI-value         = 24.76
 optimisation between [QCUT,QGAM] = [ 11.39, 22.77] = [ 36.31,145.25] Ry 
 Optimized for a Real-space Cutoff    1.20 Angstroem

   l    n(q)    QCUT    max X(q) W(low)/X(q) W(high)/X(q)  e(spline) 
   0      8    11.387    20.381    0.89E-04    0.31E-03    0.27E-06
   0      8    11.387    15.268    0.93E-04    0.32E-03    0.29E-06
   1      8    11.387     5.964    0.53E-04    0.28E-03    0.29E-06
   1      8    11.387     5.382    0.37E-04    0.22E-03    0.26E-06
 Optimization of the real space projectors (new method)

 maximal supplied QI-value         = 24.76
 optimisation between [QCUT,QGAM] = [ 11.39, 22.77] = [ 36.31,145.25] Ry 
 Optimized for a Real-space Cutoff    1.20 Angstroem

   l    n(q)    QCUT    max X(q) W(low)/X(q) W(high)/X(q)  e(spline) 
   0      8    11.387    14.049    0.69E-04    0.23E-03    0.18E-06
   0      8    11.387     8.945    0.88E-04    0.30E-03    0.26E-06
   1      8    11.387     7.086    0.62E-04    0.27E-03    0.27E-06
   1      8    11.387     6.747    0.46E-04    0.23E-03    0.25E-06

 ----------------------------------------------------------------------------- 
|                                                                             |
|  ADVICE TO THIS USER RUNNING 'VASP/VAMP'   (HEAR YOUR MASTER'S VOICE ...):  |
|                                                                             |
|      You enforced a specific xc-type in the INCAR file,                     |
|      a different type was found on the POTCAR file                          |
|          I HOPE YOU KNOW, WHAT YOU ARE  DOING                               |
|                                                                             |
 ----------------------------------------------------------------------------- 

  PAW_PBE Li_sv 10Sep2004               :
 energy of atom  1       EATOM= -202.7858
 kinetic energy error for atom=    0.0143 (will be added to EATOM!!)
  PAW_PBE Ti_pv 07Sep2000               :
 energy of atom  2       EATOM=-1042.5995
 kinetic energy error for atom=    0.0024 (will be added to EATOM!!)
  PAW_PBE O 08Apr2002                   :
 energy of atom  3       EATOM= -432.3788
 kinetic energy error for atom=    0.0224 (will be added to EATOM!!)
  PAW_PBE F 08Apr2002                   :
 energy of atom  4       EATOM= -659.6475
 kinetic energy error for atom=    0.0354 (will be added to EATOM!!)
 
 
 POSCAR: Li1 Ti64 O64 F128                       
  positions in direct lattice
  velocities in cartesian coordinates
 exchange correlation table for  LEXCH =       14
   RHO(1)=    0.500       N(1)  =     2000
   RHO(2)=  100.500       N(2)  =     4000

 VTST: version 3.2, (02/03/18)

 CHAIN: initializing optimizer
 
 OPT: Using VASP QUASI-newton optimizer
 CHAIN: Read ICHAIN            0
 
 POSCAR: Li1 Ti64 O64 F128                       
  positions in direct lattice
  velocities in cartesian coordinates
 


--------------------------------------------------------------------------------------------------------


 ion  position               nearest neighbor table
   1  0.176  0.133  0.609-  83 2.02  76 2.02 234 2.02  51 2.81
   2  0.995  0.995  0.995- 118 1.86 103 1.89  68 1.89 212 2.03 171 2.03 130 2.04
   3  0.998  0.993  0.493- 119 1.82  67 1.83 193 1.97 172 1.97 213 1.99 131 2.05
   4  0.006  0.495  0.997-  89 1.84 117 1.86 138 1.93 132 1.97 214 2.02 194 2.02
   5  0.994  0.502  0.507-  66 1.84 104 1.85 223 1.92 215 1.94 137 2.03 173 2.03
   6  0.494  0.994  0.001- 101 1.83 121 1.84 140 1.96 133 1.97 216 2.01 174 2.02
   7  0.502  0.009  0.499- 112 1.77 134 1.92 139 1.92 191 1.93 175 1.93 225 2.03
   8  0.504  0.496  0.996-  90 1.88  70 1.88 120 1.89 192 2.03 135 2.03 217 2.05
   9  0.492  0.500  0.495- 102 1.82  69 1.85 224 1.98 218 1.99 136 2.01 176 2.04
  10  0.006  0.003  0.257-  91 1.84  67 1.86 219 1.93 227 1.97 130 2.01 197 2.06
  11  0.999  0.007  0.757-  68 1.79 113 1.85 177 1.95 198 1.98 228 2.03 131 2.06
  12  0.994  0.492  0.252- 122 1.82 107 1.84 137 1.93 132 1.97 178 2.03 220 2.04
  13  0.993  0.497  0.742-  66 1.82 108 1.82 226 1.94 221 1.97 138 2.02 179 2.04
  14  0.506  0.009  0.252- 114 1.82  92 1.84 133 1.93 139 1.98 195 2.00 231 2.05
  15  0.492  0.005  0.750- 115 1.83 105 1.83 140 1.93 134 1.99 232 2.01 180 2.02
  16  0.493  0.497  0.257-  69 1.83 106 1.84 229 1.96 222 2.00 135 2.02 181 2.03
  17  0.501  0.504  0.759-  70 1.80 116 1.87 182 1.94 196 1.97 230 2.04 136 2.07
  18  0.996  0.257  0.002- 117 1.82 110 1.88 141 1.93 146 1.98 183 2.01 212 2.02
  19  0.999  0.247  0.495-  74 1.88 202 2.02 142 2.02 213 2.03 223 2.03 184 2.03
  20  0.998  0.758  0.006- 118 1.81  71 1.85 203 1.95 185 1.98 148 2.04 214 2.05
  21  0.997  0.758  0.506- 119 1.82  72 1.84 204 1.95 186 1.98 215 2.02 147 2.02
  22  0.495  0.258  0.001- 120 1.80 109 1.85 150 1.96 143 1.98 187 2.02 216 2.07
  23  0.510  0.246  0.499-  93 1.78 112 1.91 144 1.93 149 1.94 224 1.97 199 2.02
  24  0.507  0.756  1.000-  94 1.82 121 1.84 152 1.94 145 1.99 217 2.01 200 2.02
  25  0.507  0.753  0.509-  73 1.79  95 1.83 218 1.96 225 1.97 201 2.02 151 2.07
  26  1.000  0.256  0.259-  74 1.78 122 1.84 209 1.96 188 1.98 219 2.04 141 2.04
  27  0.006  0.240  0.747- 113 1.81  96 1.85 142 1.94 146 1.95 210 2.04 226 2.05
  28  0.006  0.748  0.243-  71 1.82  97 1.85 220 1.93 227 1.98 147 2.05 211 2.05
  29  0.993  0.751  0.743- 111 1.83  72 1.83 228 1.94 221 1.97 189 2.02 148 2.02
  30  0.508  0.242  0.251-  98 1.81 114 1.83 143 1.93 149 1.96 229 2.01 205 2.03
  31  0.507  0.243  0.750-  99 1.83 115 1.85 150 1.93 144 1.97 230 2.01 206 2.03
  32  0.506  0.752  0.252- 100 1.79 151 1.92 231 1.93 145 1.94 222 1.94 207 2.00
  33  0.501  0.742  0.744- 116 1.81  73 1.84 190 1.93 208 1.97 152 2.02 232 2.06
  34  0.255  0.999  0.007-  75 1.84 101 1.85 246 1.93 233 1.97 171 2.00 157 2.08
  35  0.250  0.991  0.507- 128 1.79  76 1.89 172 1.95 191 1.98 156 1.99 234 2.05
  36  0.244  0.508  0.997- 123 1.83  89 1.83 159 1.94 153 1.97 192 2.02 245 2.04
  37  0.255  0.498  0.508-  77 1.85 102 1.87 127 1.90 173 2.02 235 2.02 158 2.04
  38  0.757  0.000  0.995- 103 1.79  81 1.87 236 1.95 249 1.96 154 2.05 174 2.05
  39  0.750  0.007  0.495- 124 1.83  80 1.84 193 1.94 155 2.00 175 2.00 250 2.03
  40  0.742  0.500  0.005-  90 1.80  78 1.86 237 1.95 247 1.96 161 2.03 194 2.05
  41  0.756  0.498  0.505- 104 1.84  79 1.85 248 1.95 238 1.99 160 2.02 176 2.03
  42  0.244  0.004  0.244-  75 1.83  91 1.84 239 1.94 252 1.96 195 2.05 156 2.08
  43  0.256  0.998  0.744- 105 1.82  76 1.88 253 1.92 240 1.98 157 2.00 177 2.03
  44  0.255  0.492  0.251- 106 1.83 129 1.83 158 1.93 153 1.97 178 2.03 241 2.04
  45  0.248  0.508  0.743-  77 1.79 125 1.83 179 1.94 196 1.97 159 2.05 251 2.05
  46  0.745  0.001  0.257-  80 1.85  92 1.86 256 1.94 242 1.95 197 2.00 154 2.01
  47  0.749  0.006  0.756-  81 1.82 126 1.84 180 1.94 198 1.97 257 2.03 155 2.07
  48  0.756  0.498  0.243-  78 1.82 107 1.84 243 1.96 254 1.96 181 2.04 160 2.05
  49  0.757  0.497  0.743- 108 1.83  79 1.83 255 1.94 244 1.98 182 2.03 161 2.03
  50  0.258  0.251  0.005- 109 1.83  82 1.85 245 1.94 233 1.98 183 2.04 168 2.04
  51  0.256  0.260  0.505- 127 1.77  83 1.91 199 1.94 184 1.96 167 1.99 234 2.12   1 2.81
  52  0.252  0.743  0.993- 123 1.82  86 1.84 200 1.94 185 1.96 162 2.04 246 2.05
  53  0.252  0.755  0.493-  85 1.82 128 1.88 201 1.95 186 1.97 235 1.97 163 2.05
  54  0.758  0.251  0.006- 110 1.80  84 1.85 236 1.94 247 1.94 170 2.03 187 2.04
  55  0.744  0.242  0.498- 124 1.83  93 1.87 169 1.93 202 1.93 164 1.97 248 2.03
  56  0.742  0.749  0.994-  94 1.82  88 1.83 237 1.94 249 1.95 203 2.02 165 2.04
  57  0.741  0.752  0.494-  95 1.82  87 1.86 250 1.95 238 1.96 166 2.01 204 2.03
  58  0.251  0.257  0.242- 129 1.82  82 1.82 205 1.96 188 1.96 239 2.04 167 2.07
  59  0.246  0.251  0.744-  96 1.85  83 1.86 251 1.92 240 1.99 168 2.00 206 2.02
  60  0.244  0.749  0.256-  97 1.82  85 1.86 241 1.93 252 1.98 162 2.02 207 2.06
  61  0.249  0.743  0.757- 125 1.82  86 1.83 189 1.93 208 1.97 163 2.04 253 2.06
  62  0.743  0.251  0.241-  84 1.80  98 1.84 254 1.93 242 1.95 209 2.01 169 2.06
  63  0.745  0.241  0.750- 126 1.82  99 1.85 170 1.94 164 1.98 210 2.02 255 2.04
  64  0.745  0.750  0.257-  87 1.82 100 1.90 243 1.93 256 1.95 211 1.98 165 2.02
  65  0.757  0.750  0.757- 111 1.81  88 1.84 257 1.94 244 1.96 190 2.03 166 2.05
  66  0.008  0.496  0.625-  13 1.82   5 1.84
  67  0.989  0.011  0.376-   3 1.83  10 1.86
  68  0.992  0.007  0.873-  11 1.79   2 1.89
  69  0.499  0.491  0.375-  16 1.83   9 1.85
  70  0.494  0.495  0.875-  17 1.80   8 1.88
  71  0.999  0.751  0.126-  28 1.82  20 1.85
  72  0.001  0.752  0.625-  29 1.83  21 1.84
  73  0.502  0.750  0.625-  25 1.79  33 1.84
  74  0.001  0.239  0.373-  26 1.78  19 1.88
  75  0.248  0.010  0.126-  42 1.83  34 1.84
  76  0.236  0.018  0.625-  43 1.88  35 1.89   1 2.02
  77  0.240  0.507  0.626-  45 1.79  37 1.85
  78  0.750  0.489  0.125-  48 1.82  40 1.86
  79  0.745  0.492  0.624-  49 1.83  41 1.85
  80  0.757  0.002  0.376-  39 1.84  46 1.85
  81  0.753  0.001  0.874-  47 1.82  38 1.87
  82  0.252  0.243  0.125-  58 1.82  50 1.85
  83  0.257  0.234  0.626-  59 1.86  51 1.91   1 2.02
  84  0.747  0.261  0.125-  62 1.80  54 1.85
  85  0.254  0.756  0.376-  53 1.82  60 1.86
  86  0.252  0.762  0.875-  61 1.83  52 1.84
  87  0.752  0.750  0.374-  64 1.82  57 1.86
  88  0.748  0.750  0.876-  56 1.83  65 1.84
  89  0.125  0.505  0.994-  36 1.83   4 1.84
  90  0.625  0.509  0.998-  40 1.80   8 1.88
  91  0.125  0.005  0.259-  42 1.84  10 1.84
  92  0.624  0.003  0.258-  14 1.84  46 1.86
  93  0.624  0.261  0.500-  23 1.78  55 1.87
  94  0.624  0.741  0.003-  56 1.82  24 1.82
  95  0.624  0.765  0.496-  57 1.82  25 1.83
  96  0.126  0.240  0.741-  59 1.85  27 1.85
  97  0.126  0.750  0.252-  60 1.82  28 1.85
  98  0.625  0.243  0.255-  30 1.81  62 1.84
  99  0.625  0.248  0.744-  31 1.83  63 1.85
 100  0.622  0.752  0.251-  32 1.79  64 1.90
 101  0.375  0.999  1.000-   6 1.83  34 1.85
 102  0.375  0.509  0.504-   9 1.82  37 1.87
 103  0.873  0.000  0.006-  38 1.79   2 1.89
 104  0.874  0.507  0.500-  41 1.84   5 1.85
 105  0.375  0.992  0.742-  43 1.82  15 1.83
 106  0.374  0.495  0.248-  44 1.83  16 1.84
 107  0.875  0.496  0.252-  48 1.84  12 1.84
 108  0.875  0.500  0.746-  13 1.82  49 1.83
 109  0.376  0.249  0.997-  50 1.83  22 1.85
 110  0.874  0.249  1.000-  54 1.80  18 1.88
 111  0.875  0.749  0.749-  65 1.81  29 1.83
 112  0.513  0.123  0.491-   7 1.77  23 1.91
 113  0.992  0.125  0.737-  27 1.81  11 1.85
 114  0.493  0.125  0.266-  14 1.82  30 1.83
 115  0.496  0.123  0.751-  15 1.83  31 1.85
 116  0.497  0.625  0.753-  33 1.81  17 1.87
 117  0.002  0.375  0.998-  18 1.82   4 1.86
 118  0.003  0.875  0.996-  20 1.81   2 1.86
 119  0.990  0.875  0.494-   3 1.82  21 1.82
 120  0.504  0.374  0.010-  22 1.80   8 1.89
 121  0.505  0.876  0.007-  24 1.84   6 1.84
 122  0.009  0.375  0.253-  12 1.82  26 1.84
 123  0.257  0.626  0.992-  52 1.82  36 1.83
 124  0.736  0.124  0.506-  55 1.83  39 1.83
 125  0.254  0.625  0.760-  61 1.82  45 1.83
 126  0.756  0.124  0.741-  63 1.82  47 1.84
 127  0.256  0.375  0.504-  51 1.77  37 1.90
 128  0.258  0.876  0.511-  35 1.79  53 1.88
 129  0.241  0.374  0.249-  58 1.82  44 1.83
 130  0.006  0.996  0.127-  10 2.01   2 2.04
 131  0.012  0.989  0.625-   3 2.05  11 2.06
 132  0.001  0.504  0.124-   4 1.97  12 1.97
 133  0.502  0.011  0.127-  14 1.93   6 1.97
 134  0.511  0.999  0.622-   7 1.92  15 1.99
 135  0.502  0.510  0.127-  16 2.02   8 2.03
 136  0.507  0.503  0.625-   9 2.01  17 2.07
 137  0.003  0.506  0.376-  12 1.93   5 2.03
 138  0.995  0.503  0.873-   4 1.93  13 2.02
 139  0.490  0.986  0.377-   7 1.92  14 1.98
 140  0.502  0.996  0.874-  15 1.93   6 1.96
 141  0.003  0.251  0.126-  18 1.93  26 2.04
 142  0.993  0.264  0.624-  27 1.94  19 2.02
 143  0.501  0.236  0.127-  30 1.93  22 1.98
 144  0.491  0.243  0.623-  23 1.93  31 1.97
 145  0.496  0.743  0.127-  32 1.94  24 1.99
 146  0.003  0.243  0.874-  27 1.95  18 1.98
 147  0.995  0.745  0.375-  21 2.02  28 2.05
 148  0.001  0.746  0.874-  29 2.02  20 2.04
 149  0.497  0.266  0.376-  23 1.94  30 1.96
 150  0.505  0.255  0.874-  31 1.93  22 1.96
 151  0.492  0.758  0.376-  32 1.92  25 2.07
 152  0.497  0.756  0.874-  24 1.94  33 2.02
 153  0.245  0.504  0.124-  44 1.97  36 1.97
 154  0.743  0.000  0.127-  46 2.01  38 2.05
 155  0.739  0.993  0.623-  39 2.00  47 2.07
 156  0.261  0.996  0.378-  35 1.99  42 2.08
 157  0.251  0.988  0.873-  43 2.00  34 2.08
 158  0.248  0.503  0.376-  44 1.93  37 2.04
 159  0.259  0.488  0.873-  36 1.94  45 2.05
 160  0.745  0.508  0.375-  41 2.02  48 2.05
 161  0.752  0.507  0.874-  40 2.03  49 2.03
 162  0.252  0.748  0.125-  60 2.02  52 2.04
 163  0.249  0.743  0.625-  61 2.04  53 2.05
 164  0.754  0.262  0.624-  55 1.97  63 1.98
 165  0.752  0.751  0.126-  64 2.02  56 2.04
 166  0.747  0.751  0.625-  57 2.01  65 2.05
 167  0.248  0.250  0.376-  51 1.99  58 2.07
 168  0.247  0.259  0.874-  59 2.00  50 2.04
 169  0.755  0.241  0.374-  55 1.93  62 2.06
 170  0.748  0.241  0.875-  63 1.94  54 2.03
 171  0.126  0.003  0.995-  34 2.00   2 2.03
 172  0.125  0.995  0.489-  35 1.95   3 1.97
 173  0.125  0.499  0.493-  37 2.02   5 2.03
 174  0.625  0.003  1.000-   6 2.02  38 2.05
 175  0.623  0.980  0.491-   7 1.93  39 2.00
 176  0.624  0.491  0.498-  41 2.03   9 2.04
 177  0.126  0.007  0.756-  11 1.95  43 2.03
 178  0.125  0.510  0.249-  44 2.03  12 2.03
 179  0.124  0.499  0.763-  45 1.94  13 2.04
 180  0.623  0.999  0.750-  47 1.94  15 2.02
 181  0.624  0.502  0.250-  16 2.03  48 2.04
 182  0.626  0.496  0.755-  17 1.94  49 2.03
 183  0.126  0.248  0.998-  18 2.01  50 2.04
 184  0.130  0.244  0.514-  51 1.96  19 2.03
 185  0.125  0.744  0.000-  52 1.96  20 1.98
 186  0.124  0.756  0.497-  53 1.97  21 1.98
 187  0.626  0.247  0.998-  22 2.02  54 2.04
 188  0.126  0.235  0.249-  58 1.96  26 1.98
 189  0.124  0.749  0.751-  61 1.93  29 2.02
 190  0.626  0.750  0.751-  33 1.93  65 2.03
 191  0.377  0.013  0.511-   7 1.93  35 1.98
 192  0.373  0.495  0.007-  36 2.02   8 2.03
 193  0.874  0.012  0.516-  39 1.94   3 1.97
 194  0.875  0.496  0.999-   4 2.02  40 2.05
 195  0.376  0.995  0.249-  14 2.00  42 2.05
 196  0.374  0.493  0.741-  45 1.97  17 1.97
 197  0.874  0.997  0.242-  46 2.00  10 2.06
 198  0.874  0.988  0.736-  47 1.97  11 1.98
 199  0.379  0.238  0.493-  51 1.94  23 2.02
 200  0.376  0.759  0.002-  52 1.94  24 2.02
 201  0.377  0.740  0.502-  53 1.95  25 2.02
 202  0.869  0.243  0.501-  55 1.93  19 2.02
 203  0.872  0.756  1.000-  20 1.95  56 2.02
 204  0.872  0.739  0.504-  21 1.95  57 2.03
 205  0.377  0.259  0.252-  58 1.96  30 2.03
 206  0.376  0.254  0.756-  59 2.02  31 2.03
 207  0.377  0.752  0.248-  32 2.00  60 2.06
 208  0.375  0.760  0.748-  33 1.97  61 1.97
 209  0.873  0.257  0.248-  26 1.96  62 2.01
 210  0.875  0.257  0.753-  63 2.02  27 2.04
 211  0.874  0.750  0.249-  64 1.98  28 2.05
 212  0.003  0.126  0.006-  18 2.02   2 2.03
 213  0.010  0.119  0.521-   3 1.99  19 2.03
 214  0.993  0.626  0.999-   4 2.02  20 2.05
 215  0.006  0.627  0.499-   5 1.94  21 2.02
 216  0.503  0.124  0.994-   6 2.01  22 2.07
 217  0.488  0.628  0.997-  24 2.01   8 2.05
 218  0.510  0.627  0.493-  25 1.96   9 1.99
 219  0.990  0.126  0.238-  10 1.93  26 2.04
 220  0.996  0.624  0.250-  28 1.93  12 2.04
 221  0.005  0.624  0.750-  29 1.97  13 1.97
 222  0.498  0.626  0.259-  32 1.94  16 2.00
 223  0.999  0.378  0.491-   5 1.92  19 2.03
 224  0.489  0.372  0.510-  23 1.97   9 1.98
 225  0.484  0.879  0.503-  25 1.97   7 2.03
 226  0.004  0.373  0.758-  13 1.94  27 2.05
 227  0.997  0.876  0.257-  10 1.97  28 1.98
 228  0.005  0.875  0.754-  29 1.94  11 2.03
 229  0.505  0.372  0.238-  16 1.96  30 2.01
 230  0.500  0.373  0.742-  31 2.01  17 2.04
 231  0.498  0.877  0.243-  32 1.93  14 2.05
 232  0.505  0.876  0.749-  15 2.01  33 2.06
 233  0.248  0.125  0.986-  34 1.97  50 1.98
 234  0.241  0.124  0.495-   1 2.02  35 2.05  51 2.12
 235  0.243  0.628  0.497-  53 1.97  37 2.02
 236  0.745  0.126  0.006-  54 1.94  38 1.95
 237  0.762  0.625  0.006-  56 1.94  40 1.95
 238  0.738  0.626  0.504-  57 1.96  41 1.99
 239  0.262  0.127  0.261-  42 1.94  58 2.04
 240  0.256  0.124  0.765-  43 1.98  59 1.99
 241  0.254  0.625  0.250-  60 1.93  44 2.04
 242  0.760  0.126  0.244-  62 1.95  46 1.95
 243  0.749  0.625  0.244-  64 1.93  48 1.96
 244  0.744  0.624  0.745-  65 1.96  49 1.98
 245  0.247  0.376  0.005-  50 1.94  36 2.04
 246  0.243  0.875  0.010-  34 1.93  52 2.05
 247  0.746  0.375  0.985-  54 1.94  40 1.96
 248  0.756  0.373  0.488-  41 1.95  55 2.03
 249  0.743  0.875  0.005-  56 1.95  38 1.96
 250  0.765  0.876  0.501-  57 1.95  39 2.03
 251  0.247  0.375  0.744-  59 1.92  45 2.05
 252  0.252  0.877  0.245-  42 1.96  60 1.98
 253  0.241  0.874  0.736-  43 1.92  61 2.06
 254  0.744  0.374  0.266-  62 1.93  48 1.96
 255  0.750  0.372  0.760-  49 1.94  63 2.04
 256  0.751  0.875  0.247-  46 1.94  64 1.95
 257  0.746  0.875  0.747-  65 1.94  47 2.03
 

IMPORTANT INFORMATION: All symmetrisations will be switched off!
NOSYMM: (Re-)initialisation of all symmetry stuff for point group C_1.

 
 
 KPOINTS: Title                                   

Automatic generation of k-mesh.
Space group operators:
 irot       det(A)        alpha          n_x          n_y          n_z        tau_x        tau_y        tau_z
    1     1.000000     0.000001     1.000000     0.000000     0.000000     0.000000     0.000000     0.000000
 
 Subroutine IBZKPT returns following result:
 ===========================================
 
 Found      4 irreducible k-points:
 
 Following reciprocal coordinates:
            Coordinates               Weight
  0.250000  0.250000  0.250000      2.000000
 -0.250000  0.250000  0.250000      2.000000
  0.250000 -0.250000  0.250000      2.000000
 -0.250000 -0.250000  0.250000      2.000000
 
 Following cartesian coordinates:
            Coordinates               Weight
  0.016206  0.016206  0.016206      2.000000
 -0.016206  0.016206  0.016206      2.000000
  0.016206 -0.016206  0.016206      2.000000
 -0.016206 -0.016206  0.016206      2.000000
 


--------------------------------------------------------------------------------------------------------




 Dimension of arrays:
   k-points           NKPTS =      4   k-points in BZ     NKDIM =      4   number of bands    NBANDS=   1164
   number of dos      NEDOS =   3001   number of ions     NIONS =    257
   non local maximal  LDIM  =      6   non local SUM 2l+1 LMDIM =     18
   total plane-waves  NPLWV = ******
   max r-space proj   IRMAX =   7595   max aug-charges    IRDMAX= 146383
   dimension x,y,z NGX =   120 NGY =  120 NGZ =  120
   dimension x,y,z NGXF=   240 NGYF=  240 NGZF=  240
   support grid    NGXF=   480 NGYF=  480 NGZF=  480
   ions per type =               1  64  64 128
   NGX,Y,Z   is equivalent  to a cutoff of  12.93, 12.93, 12.93 a.u.
   NGXF,Y,Z  is equivalent  to a cutoff of  25.86, 25.86, 25.86 a.u.

 SYSTEM =  LTO                                     
 POSCAR =  Li1 Ti64 O64 F128                       

 Startparameter for this run:
   NWRITE =      2    write-flag & timer
   PREC   = accura    normal or accurate (medium, high low for compatibility)
   ISTART =      1    job   : 0-new  1-cont  2-samecut
   ICHARG =      0    charge: 1-file 2-atom 10-const
   ISPIN  =      2    spin polarized calculation?
   LNONCOLLINEAR =      F non collinear calculations
   LSORBIT =      F    spin-orbit coupling
   INIWAV =      1    electr: 0-lowe 1-rand  2-diag
   LASPH  =      T    aspherical Exc in radial PAW
   METAGGA=      F    non-selfconsistent MetaGGA calc.

 Electronic Relaxation 1
   ENCUT  =  500.0 eV  36.75 Ry    6.06 a.u.  28.13 28.13 28.13*2*pi/ulx,y,z
   ENINI  =  500.0     initial cutoff
   ENAUG  =  628.9 eV  augmentation charge cutoff
   NELM   =     60;   NELMIN=  2; NELMDL=  0     # of ELM steps 
   EDIFF  = 0.1E-05   stopping-criterion for ELM
   LREAL  =      T    real-space projection
   NLSPLINE    = F    spline interpolate recip. space projectors
   LCOMPAT=      F    compatible to vasp.4.4
   GGA_COMPAT  = T    GGA compatible to vasp.4.4-vasp.4.6
   LMAXPAW     = -100 max onsite density
   LMAXMIX     =    4 max onsite mixed and CHGCAR
   VOSKOWN=      0    Vosko Wilk Nusair interpolation
   ROPT   =   -0.00010  -0.00010  -0.00010  -0.00010
 Ionic relaxation
   EDIFFG = -.5E-01   stopping-criterion for IOM
   NSW    =    100    number of steps for IOM
   NBLOCK =      1;   KBLOCK =    100    inner block; outer block 
   IBRION =      1    ionic relax: 0-MD 1-quasi-New 2-CG
   NFREE  =      0    steps in history (QN), initial steepest desc. (CG)
   ISIF   =      2    stress and relaxation
   IWAVPR =     11    prediction:  0-non 1-charg 2-wave 3-comb
   ISYM   =      0    0-nonsym 1-usesym 2-fastsym
   LCORR  =      T    Harris-Foulkes like correction to forces

   POTIM  = 0.5000    time-step for ionic-motion
   TEIN   =    0.0    initial temperature
   TEBEG  =    0.0;   TEEND  =   0.0 temperature during run
   SMASS  =  -3.00    Nose mass-parameter (am)
   estimated Nose-frequenzy (Omega)   =  0.10E-29 period in steps =****** mass=  -0.544E-26a.u.
   SCALEE = 1.0000    scale energy and forces
   NPACO  =    256;   APACO  = 16.0  distance and # of slots for P.C.
   PSTRESS=    0.0 pullay stress

  Mass of Ions in am
   POMASS =   7.01 47.88 16.00 19.00
  Ionic Valenz
   ZVAL   =   3.00 10.00  6.00  7.00
  Atomic Wigner-Seitz radii
   RWIGS  =  -1.00 -1.00 -1.00 -1.00
  virtual crystal weights 
   VCA    =   1.00  1.00  1.00  1.00
   NELECT =    1923.0000    total number of electrons
   NUPDOWN=       1.0000    fix difference up-down

 DOS related values:
   EMIN   =  10.00;   EMAX   =-10.00  energy-range for DOS
   EFERMI =   0.00
   ISMEAR =     0;   SIGMA  =   0.01  broadening in eV -4-tet -1-fermi 0-gaus

 Electronic relaxation 2 (details)
   IALGO  =     38    algorithm
   LDIAG  =      T    sub-space diagonalisation (order eigenvalues)
   LSUBROT=      F    optimize rotation matrix (better conditioning)
   TURBO    =      0    0=normal 1=particle mesh
   IRESTART =      0    0=no restart 2=restart with 2 vectors
   NREBOOT  =      0    no. of reboots
   NMIN     =      0    reboot dimension
   EREF     =   0.00    reference energy to select bands
   IMIX   =      4    mixing-type and parameters
     AMIX     =   0.40;   BMIX     =  1.00
     AMIX_MAG =   1.60;   BMIX_MAG =  1.00
     AMIN     =   0.10
     WC   =   100.;   INIMIX=   1;  MIXPRE=   1;  MAXMIX= -45

 Intra band minimization:
   WEIMIN = 0.0010     energy-eigenvalue tresh-hold
   EBREAK =  0.21E-09  absolut break condition
   DEPER  =   0.30     relativ break condition  

   TIME   =   0.40     timestep for ELM

  volume/ion in A,a.u.               =      14.28        96.39
  Fermi-wavevector in a.u.,A,eV,Ry     =   1.319690  2.493853 23.695660  1.741582
  Thomas-Fermi vector in A             =   2.449570
 
 Write flags
   LWAVE        =      T    write WAVECAR
   LDOWNSAMPLE  =      F    k-point downsampling of WAVECAR
   LCHARG       =      T    write CHGCAR
   LVTOT        =      F    write LOCPOT, total local potential
   LVHAR        =      F    write LOCPOT, Hartree potential only
   LELF         =      F    write electronic localiz. function (ELF)
   LORBIT       =     11    0 simple, 1 ext, 2 COOP (PROOUT), +10 PAW based schemes


 Dipole corrections
   LMONO  =      F    monopole corrections only (constant potential shift)
   LDIPOL =      F    correct potential (dipole corrections)
   IDIPOL =      0    1-x, 2-y, 3-z, 4-all directions 
   EPSILON=  1.0000000 bulk dielectric constant

 LDA+U is selected, type is set to LDAUTYPE =  2
   angular momentum for each species LDAUL =    -1    2   -1   -1
   U (eV)           for each species LDAUU =   0.0  4.2  0.0  0.0
   J (eV)           for each species LDAUJ =   0.0  0.0  0.0  0.0
 Exchange correlation treatment:
   GGA     =    PS    GGA type
   LEXCH   =    14    internal setting for exchange type
   VOSKOWN=      0    Vosko Wilk Nusair interpolation
   LHFCALC =     F    Hartree Fock is set to
   LHFONE  =     F    Hartree Fock one center treatment
   AEXX    =    0.0000 exact exchange contribution

 Linear response parameters
   LEPSILON=     F    determine dielectric tensor
   LRPA    =     F    only Hartree local field effects (RPA)
   LNABLA  =     F    use nabla operator in PAW spheres
   LVEL    =     F    velocity operator in full k-point grid
   LINTERFAST=   F  fast interpolation
   KINTER  =     0    interpolate to denser k-point grid
   CSHIFT  =0.1000    complex shift for real part using Kramers Kronig
   OMEGAMAX=  -1.0    maximum frequency
   DEG_THRESHOLD= 0.2000000E-02 threshold for treating states as degnerate
   RTIME   =   -0.100 relaxation time in fs
  (WPLASMAI=    0.000 imaginary part of plasma frequency in eV, 0.658/RTIME)
   DFIELD  = 0.0000000 0.0000000 0.0000000 field for delta impulse in time
 
 Orbital magnetization related:
   ORBITALMAG=     F  switch on orbital magnetization
   LCHIMAG   =     F  perturbation theory with respect to B field
   DQ        =  0.001000  dq finite difference perturbation B field
   LLRAUG    =     F  two centre corrections for induced B field



--------------------------------------------------------------------------------------------------------


 quasi-Newton-method for relaxation of ions
 charge density and potential will be updated during run
 spin polarized calculation
 Variant of blocked Davidson
 Davidson routine will perform the subspace rotation
 perform sub-space diagonalisation
    after iterative eigenvector-optimisation
 modified Broyden-mixing scheme, WC =      100.0
 initial mixing is a Kerker type mixing with AMIX =  0.4000 and BMIX =      1.0000
 Hartree-type preconditioning will be used
 using additional bands          202
 real space projection scheme for non local part
 use partial core corrections
 calculate Harris-corrections to forces 
   (improved forces if not selfconsistent)
 use gradient corrections 
 use of overlap-Matrix (Vanderbilt PP)
 Gauss-broadening in eV      SIGMA  =   0.01


--------------------------------------------------------------------------------------------------------


  energy-cutoff  :      500.00
  volume of cell :     3671.03
      direct lattice vectors                 reciprocal lattice vectors
    15.426331000  0.000000000  0.000000000     0.064824228  0.000000000  0.000000000
     0.000000000 15.426331000  0.000000000     0.000000000  0.064824228  0.000000000
     0.000000000  0.000000000 15.426331000     0.000000000  0.000000000  0.064824228

  length of vectors
    15.426331000 15.426331000 15.426331000     0.064824228  0.064824228  0.064824228


 
 old parameters found on file WAVECAR:
  energy-cutoff  :      500.00
  volume of cell :     3671.03
      direct lattice vectors                 reciprocal lattice vectors
    15.426331000  0.000000000  0.000000000     0.064824228  0.000000000  0.000000000
     0.000000000 15.426331000  0.000000000     0.000000000  0.064824228  0.000000000
     0.000000000  0.000000000 15.426331000     0.000000000  0.000000000  0.064824228

  length of vectors

 
 k-points in units of 2pi/SCALE and weight: Title                                   
   0.01620606  0.01620606  0.01620606       0.250
  -0.01620606  0.01620606  0.01620606       0.250
   0.01620606 -0.01620606  0.01620606       0.250
  -0.01620606 -0.01620606  0.01620606       0.250
 
 k-points in reciprocal lattice and weights: Title                                   
   0.25000000  0.25000000  0.25000000       0.250
  -0.25000000  0.25000000  0.25000000       0.250
   0.25000000 -0.25000000  0.25000000       0.250
  -0.25000000 -0.25000000  0.25000000       0.250
 
 position of ions in fractional coordinates (direct lattice) 
   0.17574140  0.13320844  0.60856670
   0.99455919  0.99535865  0.99490605
   0.99778045  0.99296508  0.49323385
   0.00573380  0.49523094  0.99704263
   0.99400016  0.50218252  0.50670441
   0.49380084  0.99428020  0.00066460
   0.50159116  0.00881307  0.49890286
   0.50431290  0.49557914  0.99629314
   0.49212222  0.49961084  0.49510330
   0.00581017  0.00339565  0.25693118
   0.99922448  0.00651998  0.75692507
   0.99440011  0.49199548  0.25174516
   0.99325377  0.49686618  0.74165241
   0.50561530  0.00899643  0.25155001
   0.49213533  0.00507069  0.74999862
   0.49308186  0.49657922  0.25717753
   0.50054755  0.50415412  0.75860450
   0.99583553  0.25704035  0.00173578
   0.99942870  0.24701807  0.49450989
   0.99807310  0.75811820  0.00561187
   0.99660577  0.75754146  0.50560440
   0.49502981  0.25823564  0.00059070
   0.50975519  0.24647043  0.49908683
   0.50711809  0.75648028  0.99952838
   0.50693604  0.75344698  0.50884220
   0.99990935  0.25631339  0.25869731
   0.00600030  0.24037519  0.74747392
   0.00629375  0.74845063  0.24302480
   0.99289366  0.75062472  0.74317966
   0.50772333  0.24194665  0.25129695
   0.50720381  0.24311402  0.74971675
   0.50637287  0.75167794  0.25198997
   0.50098890  0.74200773  0.74373523
   0.25534345  0.99937499  0.00696756
   0.25036564  0.99146033  0.50665417
   0.24368153  0.50805094  0.99661632
   0.25461406  0.49773956  0.50790051
   0.75726254  0.00036889  0.99497833
   0.75004787  0.00698953  0.49495575
   0.74182500  0.50016229  0.00519542
   0.75553832  0.49789254  0.50526792
   0.24387846  0.00369578  0.24417297
   0.25646750  0.99750964  0.74384559
   0.25515461  0.49222297  0.25108243
   0.24769560  0.50833983  0.74255633
   0.74474755  0.00079107  0.25676727
   0.74890070  0.00595239  0.75614521
   0.75633899  0.49833316  0.24284933
   0.75721000  0.49659768  0.74253278
   0.25755912  0.25106571  0.00540375
   0.25558077  0.25965553  0.50459444
   0.25193702  0.74347559  0.99262113
   0.25200466  0.75518931  0.49340572
   0.75762412  0.25116784  0.00612277
   0.74381152  0.24206585  0.49818813
   0.74172069  0.74882337  0.99411030
   0.74146123  0.75224301  0.49416551
   0.25091042  0.25709057  0.24236082
   0.24553723  0.25123483  0.74418080
   0.24353604  0.74926467  0.25578771
   0.24851548  0.74302151  0.75747094
   0.74295225  0.25114598  0.24114112
   0.74489932  0.24091768  0.75004226
   0.74539724  0.74966520  0.25684519
   0.75716095  0.75033174  0.75674843
   0.00821191  0.49636684  0.62489292
   0.98942462  0.01086951  0.37629227
   0.99238019  0.00668672  0.87281512
   0.49901637  0.49076135  0.37542766
   0.49402132  0.49450512  0.87466706
   0.99932799  0.75134715  0.12557914
   0.00131307  0.75162177  0.62456793
   0.50170855  0.74978566  0.62469625
   0.00080929  0.23897379  0.37275931
   0.24801247  0.01021831  0.12571962
   0.23645544  0.01849920  0.62538466
   0.23965417  0.50658097  0.62649921
   0.74980312  0.48944272  0.12514446
   0.74548224  0.49185681  0.62434095
   0.75692331  0.00188602  0.37630037
   0.75265931  0.00103648  0.87364339
   0.25180099  0.24308084  0.12505175
   0.25689338  0.23441633  0.62552602
   0.74665589  0.26137358  0.12521751
   0.25442179  0.75561678  0.37575074
   0.25153128  0.76216688  0.87477127
   0.75189323  0.74957456  0.37433903
   0.74845119  0.74959581  0.87559130
   0.12487222  0.50490861  0.99414467
   0.62538737  0.50868259  0.99802325
   0.12536683  0.00488196  0.25859362
   0.62442240  0.00303332  0.25756295
   0.62418930  0.26056381  0.50005597
   0.62420048  0.74050345  0.00286167
   0.62418699  0.76538912  0.49595027
   0.12604890  0.24008352  0.74059241
   0.12567828  0.75016473  0.25215209
   0.62502779  0.24272809  0.25514893
   0.62538633  0.24759786  0.74399837
   0.62247249  0.75164088  0.25124589
   0.37510664  0.99888471  0.99960767
   0.37510429  0.50901083  0.50419552
   0.87273491  0.00033055  0.00622748
   0.87443253  0.50654217  0.50002570
   0.37452995  0.99248881  0.74155649
   0.37391121  0.49464883  0.24841563
   0.87490883  0.49553227  0.25218793
   0.87542748  0.50011739  0.74634844
   0.37563265  0.24943022  0.99736030
   0.87439984  0.24934991  0.99975961
   0.87455443  0.74871538  0.74917137
   0.51272430  0.12265411  0.49086254
   0.99152728  0.12462505  0.73706775
   0.49267660  0.12518543  0.26588921
   0.49621783  0.12337690  0.75088488
   0.49673809  0.62540907  0.75283437
   0.00188813  0.37498273  0.99787725
   0.00297323  0.87497709  0.99610642
   0.98967253  0.87502853  0.49383508
   0.50369812  0.37410151  0.00965200
   0.50534836  0.87553471  0.00721482
   0.00872501  0.37481676  0.25265692
   0.25672856  0.62588080  0.99205051
   0.73582439  0.12412593  0.50617436
   0.25384109  0.62549960  0.75983691
   0.75596114  0.12392231  0.74127153
   0.25572799  0.37466831  0.50416245
   0.25845546  0.87581709  0.51106964
   0.24050292  0.37432904  0.24914807
   0.00562853  0.99619607  0.12696485
   0.01221924  0.98917004  0.62497983
   0.00077576  0.50351141  0.12449384
   0.50198996  0.01123653  0.12672625
   0.51063959  0.99942909  0.62246794
   0.50172004  0.50988049  0.12736892
   0.50670982  0.50318676  0.62470558
   0.00338936  0.50590785  0.37581198
   0.99532653  0.50325446  0.87269783
   0.49047956  0.98634379  0.37702253
   0.50221954  0.99553240  0.87417799
   0.00306248  0.25135486  0.12628430
   0.99292153  0.26393004  0.62440567
   0.50099940  0.23585942  0.12650888
   0.49139123  0.24343464  0.62278668
   0.49571835  0.74294390  0.12708228
   0.00278206  0.24289973  0.87410619
   0.99473469  0.74542395  0.37522247
   0.00133002  0.74585184  0.87407230
   0.49671255  0.26630940  0.37572010
   0.50471285  0.25537567  0.87398484
   0.49230488  0.75840595  0.37575898
   0.49734539  0.75612029  0.87413091
   0.24516972  0.50381487  0.12442828
   0.74264947  0.00024187  0.12677053
   0.73850486  0.99256249  0.62306877
   0.26061390  0.99598974  0.37786820
   0.25070880  0.98847986  0.87289285
   0.24799947  0.50291702  0.37574966
   0.25923306  0.48785202  0.87325188
   0.74548829  0.50767479  0.37476682
   0.75235438  0.50698999  0.87395039
   0.25183467  0.74820267  0.12496172
   0.24883173  0.74305047  0.62537847
   0.75412805  0.26201075  0.62370367
   0.75179659  0.75083005  0.12595553
   0.74659579  0.75052111  0.62453319
   0.24766903  0.25011762  0.37626156
   0.24681031  0.25860097  0.87391313
   0.75466234  0.24074584  0.37356261
   0.74751217  0.24112926  0.87549962
   0.12599859  0.00330405  0.99525342
   0.12537684  0.99465896  0.48887187
   0.12464843  0.49935476  0.49287297
   0.62453900  0.00342603  0.99984028
   0.62335217  0.98020138  0.49149017
   0.62418236  0.49147572  0.49814513
   0.12593329  0.00732242  0.75623722
   0.12477012  0.50986909  0.24927228
   0.12401610  0.49853733  0.76323211
   0.62318238  0.99938231  0.75047118
   0.62439401  0.50201457  0.24994078
   0.62606807  0.49647151  0.75532158
   0.12583127  0.24803813  0.99826445
   0.12978326  0.24406160  0.51391685
   0.12523032  0.74404387  0.00042004
   0.12448261  0.75629509  0.49673375
   0.62567400  0.24706715  0.99801280
   0.12582197  0.23475082  0.24923582
   0.12370225  0.74882122  0.75112141
   0.62568587  0.75002372  0.75125521
   0.37709990  0.01254370  0.51095902
   0.37325079  0.49510704  0.00735707
   0.87384762  0.01158765  0.51614882
   0.87458285  0.49640612  0.99899074
   0.37649378  0.99491321  0.24869938
   0.37431197  0.49309604  0.74119430
   0.87352597  0.99662419  0.24205108
   0.87373932  0.98803454  0.73595137
   0.37913243  0.23826123  0.49291448
   0.37623656  0.75865284  0.00242670
   0.37700353  0.74036343  0.50243814
   0.86903457  0.24252276  0.50140690
   0.87204776  0.75580753  0.99956752
   0.87173947  0.73871893  0.50367375
   0.37747093  0.25882693  0.25237710
   0.37603167  0.25421641  0.75584473
   0.37654499  0.75158130  0.24767278
   0.37471136  0.76045667  0.74784320
   0.87300668  0.25706696  0.24809471
   0.87466902  0.25685774  0.75294243
   0.87351984  0.75035184  0.24902640
   0.00267745  0.12616108  0.00570092
   0.00998795  0.11875281  0.52061904
   0.99267448  0.62551206  0.99861791
   0.00643695  0.62732997  0.49928709
   0.50260703  0.12439943  0.99362955
   0.48830483  0.62759495  0.99674152
   0.51044284  0.62718110  0.49320873
   0.99004108  0.12626512  0.23801475
   0.99640767  0.62390221  0.25028473
   0.00525338  0.62379909  0.75010399
   0.49783649  0.62635495  0.25885505
   0.99856951  0.37848316  0.49120246
   0.48857408  0.37216828  0.51036153
   0.48419497  0.87866905  0.50314894
   0.00391039  0.37260918  0.75764996
   0.99742607  0.87597685  0.25692485
   0.00492962  0.87520242  0.75449311
   0.50549279  0.37175238  0.23784837
   0.49996660  0.37288255  0.74156066
   0.49849324  0.87652153  0.24280337
   0.50514134  0.87561524  0.74912769
   0.24777159  0.12483947  0.98592090
   0.24071693  0.12357129  0.49525519
   0.24282026  0.62768807  0.49696504
   0.74536442  0.12586379  0.00628491
   0.76222941  0.62523186  0.00592731
   0.73816937  0.62567987  0.50360837
   0.26179375  0.12669715  0.26123686
   0.25635749  0.12408647  0.76476243
   0.25407916  0.62459746  0.25024788
   0.76015148  0.12585833  0.24420779
   0.74916457  0.62503456  0.24446026
   0.74410042  0.62420706  0.74524209
   0.24726260  0.37612365  0.00516710
   0.24343230  0.87467118  0.00973308
   0.74569344  0.37470188  0.98467698
   0.75644472  0.37252474  0.48798978
   0.74304172  0.87475674  0.00485773
   0.76454998  0.87619041  0.50147733
   0.24711325  0.37544302  0.74384700
   0.25210054  0.87665794  0.24520727
   0.24079596  0.87447770  0.73552505
   0.74380940  0.37400153  0.26621348
   0.74981837  0.37242761  0.75993335
   0.75108066  0.87530462  0.24662600
   0.74579341  0.87487993  0.74690418
 
 position of ions in cartesian coordinates  (Angst):
   2.71104502  2.05491744  9.38795136
  15.34239927 15.35473201 15.34775004
  15.39209150 15.31780804  7.60878870
   0.08845146  7.63959639 15.38070956
  15.33377550  7.74683380  7.81658997
   7.61753517 15.33809554  0.01025234
   7.73771124  0.13595336  7.69624059
   7.77969773  7.64496781 15.36914780
   7.59164027  7.70716221  7.63762738
   0.08962958  0.05238234  3.96350536
  15.41436754  0.10057941 11.67657664
  15.33994520  7.58968506  3.88350420
  15.32226145  7.66482214 11.44097555
   7.79978903  0.13878195  3.88049364
   7.59184250  0.07822209 11.56972699
   7.60644399  7.66039546  3.96730573
   7.72161220  7.77724833 11.70248410
  15.36208857  3.96518948  0.02677674
  15.41751788  3.81058253  7.62847329
  15.39660593 11.69498228  0.08657061
  15.37397047 11.68608537  7.79962081
   7.63649366  3.98362849  0.00911236
   7.86365232  3.80213443  7.69907867
   7.82297158 11.66971520 15.41905566
   7.82016315 11.62292258  7.84956817
  15.42493268  3.95397512  3.99075028
   0.09256263  3.70810729 11.53078017
   0.09708951 11.54584711  3.74898099
  15.31670627 11.57938540 11.46453535
   7.83230816  3.73234909  3.87659000
   7.82429390  3.75035739 11.56537875
   7.81147551 11.59563271  3.88728074
   7.72842067 11.44645684 11.47310579
   3.93901254 15.41668943  0.10748383
   3.86222327 15.29459528  7.81581490
   3.75911195  7.83736193 15.37413321
   3.92776083  7.67829522  7.83504131
  11.68178257  0.00569062 15.34886510
  11.57048670  0.10782285  7.63535116
  11.44363803  7.71566907  0.08014628
  11.65518413  7.68065516  7.79443025
   3.76214983  0.05701229  3.76669305
   3.95635259 15.38791391 11.47480821
   3.93609953  7.59319447  3.87328062
   3.82103434  7.84181851 11.45491978
  11.48872227  0.01220334  3.96097682
  11.55279016  0.09182353 11.66454629
  11.66753567  7.68745222  3.74627416
  11.68097206  7.66068017 11.45455651
   3.97319220  3.87302273  0.08336003
   3.94267355  4.00553213  7.78404084
   3.88646393 11.46910057 15.31250217
   3.88750731 11.64980021  7.61143990
  11.68736050  3.87459822  0.09445188
  11.47428277  3.73418792  7.68521495
  11.44202893 11.55159719 15.33547460
  11.43802630 11.60434974  7.62316072
   3.87062717  3.96596426  3.73873824
   3.78773865  3.87563169 11.47997927
   3.75686762 11.55840488  3.94586593
   3.83368205 11.46209572 11.68499743
  11.46102739  3.87426109  3.71992272
  11.49106353  3.71647588 11.57040009
  11.49874457 11.56458358  3.96217893
  11.68021548 11.57486575 11.67385184
   0.12667968  7.65711913  9.63980509
  15.26319163  0.16767671  5.80480909
  15.30878533  0.10315159 13.46433500
   7.69799177  7.57064705  5.79147128
   7.62093643  7.62839970 13.49290365
  15.41596434 11.59052986  1.93722538
   0.02025583 11.59476618  9.63479167
   7.73952223 11.56644171  9.63677113
   0.01248434  3.68648874  5.75030852
   3.82592244  0.15763106  1.93939249
   3.64763987  0.28537471  9.64739073
   3.69698459  7.81468574  9.66458424
  11.56671116  7.55030537  1.93051985
  11.50005578  7.58754594  9.63129017
  11.67654956  0.02909444  5.80493403
  11.61077161  0.01598913 13.47711217
   3.88436549  3.74984542  1.92908965
   3.96292238  3.61618387  9.64957136
  11.51816088  4.03203529  1.93164679
   3.92479480 11.65639462  5.79645533
   3.88020483 11.75743859 13.49451110
  11.59895390 11.56318521  5.77467780
  11.54585580 11.56351312 13.50716118
   1.92632026  7.78888740 15.33600468
   9.64743251  7.84710604 15.39583695
   1.93395019  0.07531077  3.98915085
   9.63254659  0.04679303  3.97325134
   9.62895081  4.01954357  7.71402895
   9.62912318 11.42325126  0.04414510
   9.62891513 11.80714593  7.65069302
   1.94447205  3.70360780 11.42462366
   1.93875473 11.57228948  3.88978161
   9.64188559  3.74440392  3.93601190
   9.64741659  3.81952649 11.47716511
   9.60246662 11.59506107  3.87580223
   5.78651926 15.40912612 15.42027885
   5.78648293  7.85216958  7.77788691
  13.46309759  0.00509923  0.09606719
  13.48928562  7.81408725  7.71356199
   5.77762299 15.31046094 11.43949587
   5.76807805  7.63061662  3.83214179
  13.49663319  7.64424484  3.89033442
  13.50463402  7.71497643 11.51341806
   5.79463361  3.84779311 15.38561009
  13.48878136  3.84655422 15.42262273
  13.49116618 11.54993124 11.55696556
   7.90945479  1.89210285  7.57220808
  15.29562803  1.92250726 11.37025104
   7.60019224  1.93115192  4.10169496
   7.65482052  1.90325289 11.58339865
   7.66284624  9.64776735 11.61347214
   0.02912696  5.78460772 15.39358481
   0.04586602 13.49768617 15.36626732
  15.26701606 13.49847980  7.61806337
   7.77021389  5.77101368  0.14889499
   7.79567103 13.50628831  0.11129817
   0.13459486  5.78204745  3.89756920
   3.96037971  9.65504437 15.30369948
  11.35107061  1.91480769  7.80841320
   3.91583665  9.64916394 11.72149569
  11.66170675  1.91166656 11.43509998
   3.94494454  5.77975742  7.77737676
   3.98701944 13.51064429  7.88392939
   3.71007770  5.77452373  3.84344062
   0.08682759 15.36765039  1.95860180
   0.18849800 15.25926439  9.64114577
   0.01196720  7.76733364  1.92048326
   7.74386324  0.17333846  1.95492108
   7.87729527 15.41752390  9.60239644
   7.73969946  7.86558527  1.96483505
   7.81667347  7.76232545  9.63691506
   0.05228544  7.80430199  5.79739995
  15.35423652  7.76336991 13.46252560
   7.56629998 15.21566582  5.81607433
   7.74740493 15.35741232 13.48535909
   0.04724285  3.87748322  1.94810336
  15.31713623  4.07147217  9.63228851
   7.72858250  3.63844542  1.95156784
   7.58036383  3.75530330  9.60731348
   7.64711541 11.46089849  1.96041332
   0.04291691  3.74705166 13.48425134
  15.34510652 11.49915655  5.78830602
   0.02051730 11.50575741 13.48372864
   7.66245217  4.10817701  5.79598258
   7.78586749  3.93950967 13.48237944
   7.59445801 11.69942118  5.79658242
   7.67221454 11.66416192 13.48463269
   3.78206931  7.77201502  1.91947182
  11.45635647  0.00373120  1.95560414
  11.39242041 15.31159758  9.61166503
   4.02031631 15.36446737  5.82911987
   3.86751689 15.24861743 13.46553396
   3.82572185  7.75816439  5.79643862
   3.99901496  7.52576674 13.47107249
  11.50014915  7.83155934  5.78127698
  11.60606765  7.82099533 13.48184793
   3.88488494 11.54202202  1.92770087
   3.83856056 11.46254252  9.64729530
  11.63342890  4.04186454  9.62145918
  11.59746299 11.58255294  1.94303172
  11.51723385 11.57778709  9.63425573
   3.82062441  3.85839724  5.80433539
   3.80737760  3.98926418 13.48127315
  11.64167100  3.71382496  5.76270048
  11.53137009  3.71973977 13.50574699
   1.94369590  0.05096934 15.35310875
   1.93410471 15.34393839  7.54149921
   1.92286798  7.70321184  7.60322162
   9.63434526  0.05285109 15.42386711
   9.61603688 15.12091087  7.58189007
   9.62884366  7.58166709  7.68455174
   1.94268868  0.11295802 11.66596563
   1.92474513  7.86540930  3.84535664
   1.91311347  7.69060183 11.77387114
   9.61341772 15.41680223 11.57701680
   9.63210866  7.74424298  3.85566917
   9.65793331  7.65873385 11.65184072
   1.94111482  3.82631830 15.39955786
   2.00207955  3.76497496  7.92785143
   1.93184435 11.47786701  0.00647974
   1.92030998 11.66685846  7.66277929
   9.65185418  3.81133963 15.39567582
   1.94097138  3.62134378  3.84479425
   1.90827180 11.55156396 11.58704753
   9.65203734 11.57011414 11.58911150
   5.81726785  0.19350334  7.88222303
   5.75789023  7.63768508  0.11349267
  13.48026264  0.17875489  7.96228257
  13.49160446  7.65772518 15.41076189
   5.80791762 15.34786048  3.83651902
   5.77426029  7.60666276 11.43390867
  13.47530079 15.37425461  3.73396010
  13.47859202 15.24174782 11.35302942
   5.84862237  3.67549656  7.60386199
   5.80394976 11.70322979  0.03743505
   5.81578130 11.42109133  7.75077713
  13.40601487  3.74123641  7.73486888
  13.45249735 11.65933714 15.41965947
  13.44774163 11.39572269  7.76983793
   5.82299157  3.99274987  3.89325267
   5.80078906  3.92162655 11.65991096
   5.80870765 11.59414185  3.82068233
   5.78042143 11.73105628 11.53647674
  13.46729009  3.96560001  3.82719113
  13.49293387  3.96237253 11.61513911
  13.47520615 11.57517578  3.84156365
   0.04130318  1.94620259  0.08794433
   0.15407749  1.83192017  8.03124167
  15.31332510  9.64935613 15.40501048
   0.09929853  9.67739970  7.70216786
   7.75338236  1.91902679 15.32805828
   7.53275195  9.68148750 15.37606466
   7.87426025  9.67510324  7.60840105
  15.27270135  1.94780750  3.67169438
  15.37091458  9.62452207  3.86097504
   0.08104042  9.62293128 11.57135250
   7.67979047  9.66235875  3.99318371
  15.40426385  5.83860647  7.57745168
   7.53690551  5.74119105  7.87300595
   7.46935185 13.55463954  7.76174215
   0.06032290  5.74799257 11.68775908
  15.38662468 13.51310882  3.96340777
   0.07604588 13.50116220 11.63906052
   7.79789912  5.73477530  3.66912764
   7.71265021  5.75220960 11.43956022
   7.68992169 13.52151126  3.74556508
   7.79247753 13.50753055 11.55629176
   3.82220663  1.92581493 15.20914222
   3.71337899  1.90625158  7.63997055
   3.74582569  9.68292397  7.66634716
  11.49823818  1.94161650  0.09695305
  11.75840324  9.64503355  0.09143672
  11.38724502  9.65194482  7.76882941
   4.03851710  1.95447222  4.02992625
   3.95465556  1.91419903 11.79747838
   3.91950916  9.63524710  3.86040657
  11.72634835  1.94153230  3.76723021
  11.55686058  9.64199008  3.77112482
  11.47873939  9.62922467 11.49635109
   3.81435474  5.80220786  0.07970943
   3.75526721 13.49296706  0.15014568
  11.50331379  5.78027523 15.18995307
  11.66916670  5.74668996  7.52789190
  11.46240750 13.49428699  0.07493701
  11.79420108 13.51640327  7.73595531
   3.81205084  5.79170823 11.47483009
   3.88898644 13.52361561  3.78264855
   3.71459815 13.48998247 11.34645282
  11.47425001  5.76947137  4.10669733
  11.56694644  5.74519151 11.72298333
  11.58641885 13.50273878  3.80453431
  11.50485594 13.49618742 11.52199107
 


--------------------------------------------------------------------------------------------------------


 k-point  1 :   0.2500 0.2500 0.2500  plane waves:   93161
 k-point  2 :  -0.2500 0.2500 0.2500  plane waves:   93161
 k-point  3 :   0.2500-0.2500 0.2500  plane waves:   93161
 k-point  4 :  -0.2500-0.2500 0.2500  plane waves:   93161

 maximum and minimum number of plane-waves per node :     11686    11606

 maximum number of plane-waves:     93161
 maximum index in each direction: 
   IXMAX=   28   IYMAX=   28   IZMAX=   27
   IXMIN=  -28   IYMIN=  -28   IZMIN=  -28


 real space projection operators:
  total allocation   :     105573.42 KBytes
  max/ min on nodes  :      13239.34      13152.97


 parallel 3D FFT for wavefunctions:
    minimum data exchange during FFTs selected (reduces bandwidth)
 parallel 3D FFT for charge:
    minimum data exchange during FFTs selected (reduces bandwidth)


 total amount of memory used by VASP MPI-rank0   291478. kBytes
=======================================================================

   base      :      30000. kBytes
   nonlr-proj:      49443. kBytes
   fftplans  :      27976. kBytes
   grid      :      34041. kBytes
   one-center:       1026. kBytes
   wavefun   :     148992. kBytes
 
     INWAV:  cpu time   58.6513: real time   59.3513
 Broyden mixing: mesh for mixing (old mesh)
   NGX = 57   NGY = 57   NGZ = 57
  (NGX  =240   NGY  =240   NGZ  =240)
  gives a total of 185193 points

 charge density for first step will be calculated from the start-wavefunctions


--------------------------------------------------------------------------------------------------------


 Maximum index for non-local projection operator          969
 Maximum index for augmentation-charges         3292 (set IRDMAX)


--------------------------------------------------------------------------------------------------------


 initial charge from wavefunction
 First call to EWALD:  gamma=   0.115
 Maximum number of real-space cells 3x 3x 3
 Maximum number of reciprocal cells 3x 3x 3

    FEWALD:  cpu time    0.0170: real time    0.0170


--------------------------------------- Iteration      1(   1)  ---------------------------------------


    POTLOK:  cpu time    0.2691: real time    0.2835
    SETDIJ:  cpu time    1.3662: real time    1.3666
     EDDAV:  cpu time  130.3606: real time  131.0480
       DOS:  cpu time    0.0021: real time    0.0021
    CHARGE:  cpu time    5.2475: real time    5.3151
    MIXING:  cpu time    0.0134: real time    0.0134
    --------------------------------------------
      LOOP:  cpu time  137.2589: real time  138.0288

 eigenvalue-minimisations  : 23736
 total energy-change (2. order) :-0.1758127E+04  (-0.1067204E-05)
 number of electron    1923.0000022 magnetization       1.0000000
 augmentation part      496.9428884 magnetization       0.5782328

 Broyden mixing:
  rms(total) = 0.56320E-03    rms(broyden)= 0.54037E-03
  rms(prec ) = 0.74714E-03
  weight for this iteration     100.00

 Free energy of the ion-electron system (eV)
  ---------------------------------------------------
  alpha Z        PSCENC =      6118.73324990
  Ewald energy   TEWEN  =   -103356.56512528
  -Hartree energ DENC   =    -65268.58572968
  -exchange      EXHF   =         0.00000000
  -V(xc)+E(xc)   XCENC  =      8970.06776390
  PAW double counting   =    197818.23157669  -198824.17631616
  entropy T*S    EENTRO =        -0.00000000
  eigenvalues    EBANDS =    -25793.08450245
  atomic energy  EATOM  =    178577.25249613
  Solvation  Ediel_sol  =         0.00000000
  ---------------------------------------------------
  free energy    TOTEN  =     -1758.12658695 eV

  energy without entropy =    -1758.12658695  energy(sigma->0) =    -1758.12658695


--------------------------------------------------------------------------------------------------------




--------------------------------------- Iteration      1(   2)  ---------------------------------------


    POTLOK:  cpu time    0.2781: real time    0.2813
    SETDIJ:  cpu time    1.4568: real time    1.4790
     EDDAV:  cpu time  136.0758: real time  136.9337
       DOS:  cpu time    0.0020: real time    0.0019
    CHARGE:  cpu time    5.3457: real time    5.3505
    MIXING:  cpu time    0.0073: real time    0.0073
    --------------------------------------------
      LOOP:  cpu time  143.1656: real time  144.0537

 eigenvalue-minimisations  : 25128
 total energy-change (2. order) : 0.3007008E-06  (-0.1330192E-05)
 number of electron    1923.0000022 magnetization       1.0000000
 augmentation part      496.9423821 magnetization       0.5782323

 Broyden mixing:
  rms(total) = 0.70531E-03    rms(broyden)= 0.68720E-03
  rms(prec ) = 0.81298E-03
  weight for this iteration     100.00

 eigenvalues of (default mixing * dielectric matrix)
  average eigenvalue GAMMA=   0.4012
  0.4012

 Free energy of the ion-electron system (eV)
  ---------------------------------------------------
  alpha Z        PSCENC =      6118.73324990
  Ewald energy   TEWEN  =   -103356.56512528
  -Hartree energ DENC   =    -65268.60133470
  -exchange      EXHF   =         0.00000000
  -V(xc)+E(xc)   XCENC  =      8970.06756818
  PAW double counting   =    197818.17730157  -198824.12020962
  entropy T*S    EENTRO =        -0.00000000
  eigenvalues    EBANDS =    -25793.07053283
  atomic energy  EATOM  =    178577.25249613
  Solvation  Ediel_sol  =         0.00000000
  ---------------------------------------------------
  free energy    TOTEN  =     -1758.12658665 eV

  energy without entropy =    -1758.12658665  energy(sigma->0) =    -1758.12658665


--------------------------------------------------------------------------------------------------------




--------------------------------------- Iteration      1(   3)  ---------------------------------------


    POTLOK:  cpu time    0.2620: real time    0.2622
    SETDIJ:  cpu time    1.4181: real time    1.4192
     EDDAV:  cpu time   83.2942: real time   83.7176
       DOS:  cpu time    0.0019: real time    0.0019
    --------------------------------------------
      LOOP:  cpu time   84.9761: real time   85.4008

 eigenvalue-minimisations  : 12648
 total energy-change (2. order) : 0.6679329E-06  (-0.1399447E-06)
 number of electron    1923.0000022 magnetization       1.0000000
 augmentation part      496.9423821 magnetization       0.5782323

 Free energy of the ion-electron system (eV)
  ---------------------------------------------------
  alpha Z        PSCENC =      6118.73324990
  Ewald energy   TEWEN  =   -103356.56512528
  -Hartree energ DENC   =    -65268.60555719
  -exchange      EXHF   =         0.00000000
  -V(xc)+E(xc)   XCENC  =      8970.06804478
  PAW double counting   =    197818.17240895  -198824.11604518
  entropy T*S    EENTRO =        -0.00000000
  eigenvalues    EBANDS =    -25793.06605809
  atomic energy  EATOM  =    178577.25249613
  Solvation  Ediel_sol  =         0.00000000
  ---------------------------------------------------
  free energy    TOTEN  =     -1758.12658598 eV

  energy without entropy =    -1758.12658598  energy(sigma->0) =    -1758.12658598


--------------------------------------------------------------------------------------------------------




 average (electrostatic) potential at core
  the test charge radii are     0.7079  1.0397  0.7215  0.7167
  (the norm of the test charge is              1.0000)
       1 -63.1025       2 -58.4503       3 -58.7962       4 -58.7451       5 -58.7472
       6 -58.8376       7 -59.7689       8 -58.4526       9 -58.7266      10 -58.8862
      11 -58.6332      12 -58.7027      13 -58.7414      14 -59.0723      15 -59.0164
      16 -58.7630      17 -58.6765      18 -58.7897      19 -56.8487      20 -58.5881
      21 -58.8147      22 -58.6277      23 -59.3261      24 -58.8400      25 -58.8726
      26 -58.5687      27 -58.8176      28 -58.6935      29 -58.8160      30 -59.0621
      31 -59.0085      32 -59.4509      33 -58.7939      34 -58.8506      35 -58.9890
      36 -58.6927      37 -58.4973      38 -58.7012      39 -59.0982      40 -58.6487
      41 -58.8119      42 -58.8494      43 -59.0663      44 -58.7438      45 -58.6492
      46 -59.1386      47 -58.8304      48 -58.7296      49 -58.7882      50 -58.7512
      51 -58.7395      52 -58.7091      53 -58.9279      54 -58.8563      55 -59.1832
      56 -58.8426      57 -59.0298      58 -58.7473      59 -58.9610      60 -58.8187
      61 -58.7509      62 -58.9744      63 -58.9496      64 -59.1312      65 -58.8557
      66 -74.0349      67 -73.9769      68 -73.8243      69 -73.8721      70 -73.7994
      71 -73.8469      72 -73.9620      73 -74.2346      74 -73.7996      75 -74.0314
      76 -74.1130      77 -73.9574      78 -73.8861      79 -73.9195      80 -74.2397
      81 -74.0222      82 -73.9799      83 -73.9830      84 -74.2979      85 -74.0068
      86 -73.9185      87 -74.1997      88 -74.0579      89 -73.8451      90 -73.7759
      91 -74.0224      92 -74.2189      93 -74.5432      94 -74.1406      95 -74.2521
      96 -74.0718      97 -73.9812      98 -74.3364      99 -74.1286     100 -74.3483
     101 -73.9669     102 -73.8202     103 -73.8548     104 -73.8868     105 -74.3320
     106 -73.9067     107 -73.9012     108 -74.0667     109 -73.8990     110 -74.0017
     111 -74.1574     112 -74.8214     113 -74.0929     114 -74.3967     115 -74.1479
     116 -73.9857     117 -73.8737     118 -73.7425     119 -74.1044     120 -73.8177
     121 -73.9720     122 -73.9928     123 -74.0135     124 -74.4142     125 -74.0862
     126 -74.1915     127 -74.0614     128 -74.2178     129 -74.0713     130 -78.3199
     131 -78.2811     132 -79.0272     133 -79.5977     134 -79.8838     135 -78.3044
     136 -78.2741     137 -78.8388     138 -78.8585     139 -79.9028     140 -79.5539
     141 -78.8624     142 -79.0311     143 -79.5068     144 -79.6790     145 -79.3876
     146 -79.1657     147 -78.3500     148 -78.3471     149 -79.7067     150 -79.4501
     151 -79.2419     152 -79.0872     153 -79.0070     154 -78.5445     155 -78.5647
     156 -78.5981     157 -78.5307     158 -78.8097     159 -78.8101     160 -78.3376
     161 -78.3281     162 -78.4154     163 -78.3593     164 -79.3356     165 -78.5325
     166 -78.5685     167 -78.5767     168 -78.5225     169 -79.1623     170 -79.1119
     171 -78.3764     172 -79.5187     173 -78.2897     174 -78.3201     175 -79.8226
     176 -78.2752     177 -79.0017     178 -78.3512     179 -78.8990     180 -79.0458
     181 -78.3431     182 -78.8644     183 -78.3979     184 -79.1010     185 -79.0303
     186 -79.1555     187 -78.3808     188 -79.1209     189 -79.0014     190 -79.0063
     191 -79.8531     192 -78.2731     193 -79.5568     194 -78.2010     195 -78.5644
     196 -79.0586     197 -78.5058     198 -79.1537     199 -79.2245     200 -78.9363
     201 -79.0727     202 -78.9558     203 -78.8644     204 -79.0025     205 -79.0285
     206 -78.5685     207 -78.5518     208 -79.2037     209 -79.0245     210 -78.5562
     211 -78.6361     212 -78.2670     213 -78.7199     214 -78.2482     215 -78.9109
     216 -78.3198     217 -78.3551     218 -79.2335     219 -78.9065     220 -78.8372
     221 -79.1279     222 -79.3477     223 -78.8370     224 -79.1993     225 -79.2250
     226 -78.9563     227 -79.0589     228 -78.9730     229 -79.0849     230 -78.5468
     231 -79.2802     232 -78.4974     233 -79.0586     234 -78.6574     235 -78.6543
     236 -79.3464     237 -79.3260     238 -79.2082     239 -78.9775     240 -79.2433
     241 -78.9119     242 -79.5535     243 -79.5031     244 -79.1860     245 -78.8214
     246 -78.8730     247 -79.3344     248 -79.0148     249 -79.3425     250 -79.1451
     251 -79.0676     252 -79.1380     253 -79.0902     254 -79.4915     255 -78.9915
     256 -79.5682     257 -79.0438
 
 
 
 E-fermi :  -0.6343     XC(G=0):  -9.0453     alpha+bet : -7.7421


 spin component 1

 k-point     1 :       0.2500    0.2500    0.2500
  band No.  band energies     occupation 
      1     -43.7761      1.00000
      2     -35.7987      1.00000
      3     -35.7666      1.00000
      4     -35.5866      1.00000
      5     -35.4303      1.00000
      6     -35.4175      1.00000
      7     -35.3772      1.00000
      8     -35.2241      1.00000
      9     -35.2226      1.00000
     10     -35.2044      1.00000
     11     -35.1949      1.00000
     12     -35.1811      1.00000
     13     -35.1384      1.00000
     14     -35.1333      1.00000
     15     -35.1316      1.00000
     16     -35.1122      1.00000
     17     -35.0817      1.00000
     18     -35.0805      1.00000
     19     -35.0680      1.00000
     20     -35.0637      1.00000
     21     -35.0589      1.00000
     22     -35.0556      1.00000
     23     -35.0391      1.00000
     24     -35.0292      1.00000
     25     -35.0082      1.00000
     26     -34.9888      1.00000
     27     -34.9760      1.00000
     28     -34.9751      1.00000
     29     -34.9662      1.00000
     30     -34.9649      1.00000
     31     -34.9606      1.00000
     32     -34.9602      1.00000
     33     -34.9599      1.00000
     34     -34.9550      1.00000
     35     -34.9362      1.00000
     36     -34.9345      1.00000
     37     -34.9190      1.00000
     38     -34.9122      1.00000
     39     -34.9117      1.00000
     40     -34.9099      1.00000
     41     -34.8962      1.00000
     42     -34.8957      1.00000
     43     -34.8936      1.00000
     44     -34.8920      1.00000
     45     -34.8914      1.00000
     46     -34.8897      1.00000
     47     -34.8844      1.00000
     48     -34.8777      1.00000
     49     -34.8767      1.00000
     50     -34.8743      1.00000
     51     -34.8735      1.00000
     52     -34.8642      1.00000
     53     -34.8591      1.00000
     54     -34.8577      1.00000
     55     -34.8522      1.00000
     56     -34.8519      1.00000
     57     -34.8464      1.00000
     58     -34.8417      1.00000
     59     -34.8404      1.00000
     60     -34.8376      1.00000
     61     -34.8348      1.00000
     62     -34.8286      1.00000
     63     -34.8273      1.00000
     64     -34.8213      1.00000
     65     -34.8188      1.00000
     66     -34.8160      1.00000
     67     -34.8152      1.00000
     68     -34.8132      1.00000
     69     -34.7990      1.00000
     70     -34.7952      1.00000
     71     -34.7934      1.00000
     72     -34.7890      1.00000
     73     -34.7888      1.00000
     74     -34.7837      1.00000
     75     -34.7835      1.00000
     76     -34.7801      1.00000
     77     -34.7790      1.00000
     78     -34.7776      1.00000
     79     -34.7734      1.00000
     80     -34.7700      1.00000
     81     -34.7668      1.00000
     82     -34.7660      1.00000
     83     -34.7657      1.00000
     84     -34.7649      1.00000
     85     -34.7579      1.00000
     86     -34.7542      1.00000
     87     -34.7477      1.00000
     88     -34.7468      1.00000
     89     -34.7443      1.00000
     90     -34.7428      1.00000
     91     -34.7414      1.00000
     92     -34.7366      1.00000
     93     -34.7354      1.00000
     94     -34.7290      1.00000
     95     -34.7267      1.00000
     96     -34.7251      1.00000
     97     -34.7238      1.00000
     98     -34.7187      1.00000
     99     -34.7130      1.00000
    100     -34.7121      1.00000
    101     -34.7083      1.00000
    102     -34.7006      1.00000
    103     -34.7000      1.00000
    104     -34.6996      1.00000
    105     -34.6987      1.00000
    106     -34.6969      1.00000
    107     -34.6943      1.00000
    108     -34.6936      1.00000
    109     -34.6888      1.00000
    110     -34.6885      1.00000
    111     -34.6876      1.00000
    112     -34.6873      1.00000
[...]
   81        1.574   3.460   0.000   5.033
   82        1.575   3.463   0.000   5.038
   83        1.567   3.480   0.000   5.048
   84        1.576   3.472   0.000   5.048
   85        1.575   3.461   0.000   5.036
   86        1.575   3.464   0.000   5.039
   87        1.576   3.463   0.000   5.038
   88        1.575   3.466   0.000   5.040
   89        1.575   3.461   0.000   5.036
   90        1.575   3.458   0.000   5.033
   91        1.574   3.458   0.000   5.032
   92        1.574   3.459   0.000   5.032
   93        1.578   3.470   0.000   5.049
   94        1.577   3.471   0.000   5.048
   95        1.576   3.472   0.000   5.048
   96        1.572   3.463   0.000   5.035
   97        1.575   3.465   0.000   5.040
   98        1.576   3.474   0.000   5.050
   99        1.575   3.464   0.000   5.039
  100        1.576   3.458   0.000   5.033
  101        1.574   3.460   0.000   5.035
  102        1.575   3.460   0.000   5.034
  103        1.576   3.459   0.000   5.035
  104        1.574   3.459   0.000   5.033
  105        1.576   3.470   0.000   5.046
  106        1.575   3.462   0.000   5.037
  107        1.574   3.462   0.000   5.037
  108        1.576   3.474   0.000   5.049
  109        1.575   3.464   0.000   5.038
  110        1.575   3.460   0.000   5.035
  111        1.576   3.473   0.000   5.049
  112        1.577   3.459   0.000   5.036
  113        1.576   3.470   0.000   5.046
  114        1.577   3.472   0.000   5.049
  115        1.574   3.463   0.000   5.038
  116        1.575   3.462   0.000   5.036
  117        1.575   3.461   0.000   5.036
  118        1.576   3.462   0.000   5.037
  119        1.576   3.473   0.000   5.049
  120        1.575   3.458   0.000   5.034
  121        1.574   3.462   0.000   5.036
  122        1.575   3.470   0.000   5.046
  123        1.576   3.471   0.000   5.047
  124        1.576   3.468   0.000   5.044
  125        1.576   3.474   0.000   5.049
  126        1.576   3.469   0.000   5.045
  127        1.576   3.463   0.000   5.039
  128        1.576   3.464   0.000   5.040
  129        1.576   3.470   0.000   5.046
  130        1.737   4.367   0.000   6.104
  131        1.736   4.366   0.000   6.102
  132        1.737   4.380   0.000   6.117
  133        1.738   4.386   0.000   6.125
  134        1.739   4.385   0.000   6.123
  135        1.737   4.368   0.000   6.105
  136        1.736   4.366   0.000   6.103
  137        1.738   4.380   0.000   6.119
  138        1.739   4.381   0.000   6.119
  139        1.740   4.384   0.000   6.124
  140        1.738   4.388   0.000   6.126
  141        1.738   4.379   0.000   6.117
  142        1.738   4.385   0.000   6.123
  143        1.738   4.385   0.000   6.123
  144        1.739   4.385   0.000   6.124
  145        1.738   4.382   0.000   6.120
  146        1.737   4.381   0.000   6.118
  147        1.736   4.368   0.000   6.105
  148        1.736   4.368   0.000   6.105
  149        1.739   4.385   0.000   6.124
  150        1.738   4.387   0.000   6.126
  151        1.738   4.375   0.000   6.114
  152        1.738   4.379   0.000   6.116
  153        1.737   4.381   0.000   6.118
  154        1.737   4.370   0.000   6.107
  155        1.737   4.369   0.000   6.106
  156        1.736   4.366   0.000   6.102
  157        1.736   4.365   0.000   6.101
  158        1.738   4.377   0.000   6.114
  159        1.738   4.375   0.000   6.113
  160        1.737   4.367   0.000   6.104
  161        1.736   4.368   0.000   6.105
  162        1.736   4.368   0.000   6.104
  163        1.736   4.366   0.000   6.103
  164        1.738   4.378   0.000   6.116
  165        1.737   4.369   0.000   6.106
  166        1.736   4.369   0.000   6.106
  167        1.736   4.369   0.000   6.106
  168        1.737   4.370   0.000   6.107
  169        1.738   4.377   0.000   6.115
  170        1.738   4.379   0.000   6.117
  171        1.737   4.370   0.000   6.107
  172        1.738   4.386   0.000   6.123
  173        1.737   4.370   0.000   6.107
  174        1.737   4.369   0.000   6.106
  175        1.739   4.379   0.000   6.118
  176        1.737   4.367   0.000   6.103
  177        1.738   4.379   0.000   6.116
  178        1.737   4.369   0.000   6.105
  179        1.738   4.377   0.000   6.115
  180        1.738   4.380   0.000   6.118
  181        1.736   4.368   0.000   6.104
  182        1.738   4.378   0.000   6.115
  183        1.737   4.370   0.000   6.107
  184        1.736   4.386   0.000   6.122
  185        1.737   4.382   0.000   6.119
  186        1.737   4.380   0.000   6.117
  187        1.737   4.370   0.000   6.107
  188        1.738   4.381   0.000   6.118
  189        1.738   4.381   0.000   6.120
  190        1.738   4.380   0.000   6.119
  191        1.738   4.384   0.000   6.122
  192        1.737   4.369   0.000   6.106
  193        1.739   4.383   0.000   6.121
  194        1.736   4.368   0.000   6.104
  195        1.737   4.370   0.000   6.107
  196        1.737   4.381   0.000   6.118
  197        1.737   4.368   0.000   6.105
  198        1.738   4.378   0.000   6.115
  199        1.738   4.381   0.000   6.119
  200        1.738   4.380   0.000   6.118
  201        1.738   4.379   0.000   6.117
  202        1.738   4.384   0.000   6.122
  203        1.738   4.380   0.000   6.118
  204        1.738   4.377   0.000   6.115
  205        1.737   4.378   0.000   6.115
  206        1.737   4.369   0.000   6.106
  207        1.737   4.369   0.000   6.106
  208        1.738   4.381   0.000   6.118
  209        1.737   4.380   0.000   6.117
  210        1.737   4.369   0.000   6.105
  211        1.737   4.371   0.000   6.108
  212        1.737   4.369   0.000   6.105
  213        1.737   4.379   0.000   6.116
  214        1.736   4.367   0.000   6.104
  215        1.738   4.380   0.000   6.118
  216        1.736   4.367   0.000   6.103
  217        1.737   4.366   0.000   6.103
  218        1.737   4.378   0.000   6.115
  219        1.739   4.377   0.000   6.115
  220        1.738   4.379   0.000   6.117
  221        1.738   4.381   0.000   6.119
  222        1.737   4.379   0.000   6.116
  223        1.737   4.382   0.000   6.119
  224        1.738   4.379   0.000   6.117
  225        1.738   4.378   0.000   6.115
  226        1.738   4.377   0.000   6.114
  227        1.737   4.378   0.000   6.115
  228        1.738   4.378   0.000   6.116
  229        1.738   4.377   0.000   6.115
  230        1.737   4.369   0.000   6.106
  231        1.738   4.376   0.000   6.114
  232        1.737   4.369   0.000   6.106
  233        1.738   4.379   0.000   6.116
  234        1.737   4.378   0.000   6.115
  235        1.738   4.375   0.000   6.113
  236        1.738   4.387   0.000   6.126
  237        1.739   4.385   0.000   6.124
  238        1.737   4.378   0.000   6.116
  239        1.738   4.376   0.000   6.114
  240        1.738   4.377   0.000   6.115
  241        1.738   4.377   0.000   6.115
  242        1.738   4.386   0.000   6.124
  243        1.738   4.387   0.000   6.125
  244        1.737   4.380   0.000   6.118
  245        1.738   4.377   0.000   6.115
  246        1.738   4.376   0.000   6.114
  247        1.738   4.384   0.000   6.123
  248        1.738   4.376   0.000   6.114
  249        1.738   4.386   0.000   6.124
  250        1.738   4.376   0.000   6.114
  251        1.738   4.378   0.000   6.117
  252        1.737   4.380   0.000   6.118
  253        1.739   4.375   0.000   6.114
  254        1.739   4.385   0.000   6.124
  255        1.738   4.377   0.000   6.115
  256        1.739   4.386   0.000   6.125
  257        1.738   4.379   0.000   6.118
--------------------------------------------------
tot        345.4901195.251 112.3821653.123
 


 magnetization (x)
 
# of ion       s       p       d       tot
------------------------------------------
    1        0.000   0.000   0.000   0.000
    2       -0.000  -0.000   0.000   0.000
    3        0.000  -0.000   0.005   0.005
    4        0.000  -0.000  -0.000  -0.000
    5       -0.000  -0.000   0.006   0.006
    6       -0.000  -0.000  -0.000  -0.000
    7        0.000   0.000   0.000   0.000
    8       -0.000  -0.000   0.000   0.000
    9        0.000   0.000   0.000   0.000
   10       -0.000  -0.000  -0.000  -0.000
   11       -0.000   0.000   0.000   0.000
   12        0.000  -0.000  -0.000  -0.000
   13       -0.000  -0.000  -0.000  -0.000
   14       -0.000  -0.000  -0.000  -0.000
   15       -0.000  -0.000  -0.000  -0.000
   16       -0.000  -0.000  -0.000  -0.000
   17        0.000  -0.000   0.000   0.000
   18       -0.000  -0.000  -0.000  -0.000
   19        0.005   0.006   0.923   0.934
   20        0.000   0.000  -0.000  -0.000
   21       -0.000  -0.000   0.000   0.000
   22        0.000  -0.000  -0.000  -0.000
   23       -0.000   0.000   0.001   0.001
   24       -0.000  -0.000  -0.000  -0.000
   25        0.000   0.000   0.000   0.000
   26       -0.000  -0.000  -0.004  -0.005
   27       -0.000  -0.000  -0.000  -0.000
   28        0.000   0.000   0.000   0.000
   29       -0.000  -0.000  -0.000  -0.000
   30       -0.000  -0.000  -0.000  -0.000
   31       -0.000  -0.000   0.000   0.000
   32        0.000  -0.000   0.000   0.000
   33       -0.000  -0.000  -0.000  -0.000
   34        0.000   0.000  -0.000  -0.000
   35        0.000   0.000   0.000   0.000
   36       -0.000  -0.000   0.000   0.000
   37        0.000   0.000   0.001   0.001
   38       -0.000  -0.000  -0.000  -0.000
   39        0.000   0.000   0.003   0.003
   40       -0.000  -0.000  -0.000  -0.000
   41        0.000   0.000   0.002   0.002
   42        0.000  -0.000   0.000   0.000
   43       -0.000  -0.000  -0.000  -0.000
   44       -0.000  -0.000   0.000   0.000
   45       -0.000  -0.000   0.000  -0.000
   46       -0.000  -0.000  -0.000  -0.000
   47       -0.000  -0.000   0.000   0.000
   48        0.000  -0.000   0.000   0.000
   49       -0.000  -0.000  -0.000  -0.000
   50       -0.000  -0.000  -0.000  -0.000
   51       -0.000  -0.000   0.003   0.003
   52       -0.000   0.000  -0.000  -0.000
   53        0.000   0.000   0.000   0.000
   54       -0.000  -0.000  -0.000  -0.000
   55       -0.000  -0.000   0.010   0.010
   56        0.000  -0.000  -0.000  -0.000
   57        0.000   0.000   0.000   0.000
   58        0.000   0.000   0.000   0.000
   59       -0.000  -0.000  -0.000  -0.000
   60       -0.000  -0.000  -0.000  -0.000
   61       -0.000   0.000   0.000   0.000
   62        0.000  -0.000   0.000   0.000
   63       -0.000  -0.000   0.000   0.000
   64       -0.000   0.000  -0.000  -0.000
   65       -0.000  -0.000   0.000   0.000
   66       -0.000  -0.000   0.000  -0.000
   67       -0.000  -0.000   0.000  -0.000
   68       -0.000  -0.000   0.000  -0.000
   69       -0.000  -0.000   0.000  -0.000
   70        0.000  -0.000   0.000  -0.000
   71       -0.000  -0.000   0.000  -0.000
   72       -0.000  -0.000   0.000  -0.000
   73       -0.000  -0.000   0.000  -0.000
   74       -0.001  -0.018   0.000  -0.019
   75       -0.000  -0.000   0.000  -0.000
   76       -0.000  -0.000   0.000  -0.000
   77       -0.000  -0.000   0.000  -0.000
   78       -0.000  -0.000   0.000  -0.000
   79       -0.000  -0.000   0.000  -0.000
   80       -0.000  -0.000   0.000  -0.000
   81       -0.000  -0.000   0.000  -0.000
   82       -0.000  -0.000   0.000  -0.000
   83       -0.000  -0.000   0.000  -0.000
   84       -0.000  -0.000   0.000  -0.000
   85       -0.000  -0.000   0.000  -0.000
   86       -0.000  -0.000   0.000  -0.000
   87       -0.000  -0.000   0.000  -0.000
   88        0.000  -0.000   0.000  -0.000
   89        0.000   0.000   0.000   0.000
   90        0.000  -0.000   0.000  -0.000
   91       -0.000  -0.000   0.000  -0.000
   92       -0.000  -0.000   0.000  -0.000
   93       -0.000  -0.001   0.000  -0.001
   94       -0.000  -0.000   0.000  -0.000
   95       -0.000  -0.000   0.000  -0.000
   96       -0.000  -0.000   0.000  -0.000
   97       -0.000  -0.000   0.000  -0.000
   98       -0.000  -0.000   0.000  -0.000
   99       -0.000  -0.000   0.000  -0.000
  100        0.000  -0.000   0.000  -0.000
  101       -0.000  -0.000   0.000  -0.000
  102       -0.000  -0.000   0.000  -0.000
  103       -0.000  -0.000   0.000  -0.000
  104       -0.000  -0.001   0.000  -0.001
  105        0.000  -0.000   0.000  -0.000
  106       -0.000  -0.000   0.000  -0.000
  107        0.000   0.000   0.000   0.000
  108       -0.000  -0.000   0.000  -0.000
  109       -0.000  -0.000   0.000  -0.000
  110        0.000   0.000   0.000   0.000
  111        0.000  -0.000   0.000  -0.000
  112       -0.000  -0.000   0.000  -0.000
  113       -0.000  -0.000   0.000  -0.000
  114       -0.000  -0.000   0.000  -0.000
  115        0.000  -0.000   0.000  -0.000
  116       -0.000  -0.000   0.000  -0.000
  117        0.000   0.000   0.000   0.000
  118       -0.000  -0.000   0.000  -0.000
  119       -0.000  -0.000   0.000  -0.000
  120        0.000   0.000   0.000   0.000
  121       -0.000   0.000   0.000  -0.000
  122        0.000  -0.000   0.000  -0.000
  123       -0.000  -0.000   0.000  -0.000
  124       -0.000  -0.001   0.000  -0.001
  125       -0.000  -0.000   0.000  -0.000
  126        0.000  -0.000   0.000  -0.000
  127       -0.000  -0.000   0.000  -0.000
  128        0.000  -0.000   0.000  -0.000
  129        0.000  -0.000   0.000  -0.000
  130       -0.000  -0.000   0.000  -0.000
  131       -0.000  -0.000   0.000  -0.000
  132       -0.000  -0.000   0.000  -0.000
  133        0.000  -0.000   0.000  -0.000
  134       -0.000  -0.000   0.000  -0.000
  135       -0.000  -0.000   0.000  -0.000
  136       -0.000  -0.000   0.000  -0.000
  137       -0.000  -0.000   0.000  -0.000
  138       -0.000  -0.000   0.000  -0.000
  139       -0.000  -0.000   0.000  -0.000
  140       -0.000  -0.000   0.000  -0.000
  141       -0.000  -0.000   0.000  -0.000
  142       -0.000  -0.005   0.000  -0.005
  143        0.000  -0.000   0.000  -0.000
  144       -0.000  -0.000   0.000  -0.000
  145       -0.000  -0.000   0.000  -0.000
  146       -0.000  -0.000   0.000  -0.000
  147       -0.000  -0.000   0.000  -0.000
  148       -0.000  -0.000   0.000  -0.000
  149       -0.000  -0.000   0.000  -0.000
  150       -0.000  -0.000   0.000  -0.000
  151        0.000  -0.000   0.000  -0.000
  152        0.000  -0.000   0.000  -0.000
  153        0.000  -0.000   0.000  -0.000
  154       -0.000  -0.000   0.000  -0.000
  155       -0.000  -0.000   0.000  -0.000
  156        0.000  -0.000   0.000  -0.000
  157        0.000  -0.000   0.000  -0.000
  158       -0.000  -0.000   0.000  -0.000
  159       -0.000  -0.000   0.000  -0.000
  160       -0.000  -0.000   0.000  -0.000
  161       -0.000  -0.000   0.000  -0.000
  162       -0.000  -0.000   0.000  -0.000
  163       -0.000  -0.000   0.000  -0.000
  164       -0.000  -0.000   0.000  -0.000
  165       -0.000  -0.000   0.000  -0.000
  166       -0.000  -0.000   0.000  -0.000
  167       -0.000  -0.000   0.000  -0.000
  168       -0.000  -0.000   0.000  -0.000
  169       -0.000  -0.000   0.000  -0.000
  170        0.000  -0.000   0.000  -0.000
  171       -0.000  -0.000   0.000  -0.000
  172        0.000   0.000   0.000   0.000
  173        0.000  -0.000   0.000  -0.000
  174        0.000  -0.000   0.000  -0.000
  175       -0.000  -0.000   0.000  -0.000
  176       -0.000  -0.000   0.000  -0.000
  177       -0.000  -0.000   0.000  -0.000
  178        0.000   0.000   0.000   0.000
  179       -0.000  -0.000   0.000  -0.000
  180       -0.000  -0.000   0.000  -0.000
  181       -0.000  -0.000   0.000  -0.000
  182       -0.000  -0.000   0.000  -0.000
  183        0.000  -0.000   0.000  -0.000
  184       -0.000   0.002   0.000   0.002
  185        0.000   0.000   0.000   0.000
  186       -0.000  -0.000   0.000  -0.000
  187       -0.000  -0.000   0.000  -0.000
  188       -0.000  -0.000   0.000  -0.000
  189        0.000  -0.000   0.000  -0.000
  190        0.000  -0.000   0.000  -0.000
  191        0.000   0.000   0.000   0.000
  192       -0.000  -0.000   0.000  -0.000
  193        0.000  -0.000   0.000  -0.000
  194       -0.000   0.000   0.000   0.000
  195       -0.000  -0.000   0.000  -0.000
  196        0.000  -0.000   0.000  -0.000
  197       -0.000  -0.000   0.000  -0.000
  198       -0.000  -0.000   0.000  -0.000
  199        0.000  -0.000   0.000  -0.000
  200       -0.000   0.000   0.000   0.000
  201       -0.000   0.000   0.000   0.000
  202       -0.000   0.001   0.000   0.001
  203       -0.000  -0.000   0.000  -0.000
  204       -0.000  -0.000   0.000  -0.000
  205       -0.000  -0.000   0.000  -0.000
  206       -0.000  -0.000   0.000  -0.000
  207       -0.000  -0.000   0.000  -0.000
  208       -0.000  -0.000   0.000  -0.000
  209       -0.000  -0.000   0.000  -0.000
  210       -0.000  -0.000   0.000  -0.000
  211       -0.000  -0.000   0.000  -0.000
  212       -0.000  -0.000   0.000  -0.000
  213       -0.000   0.001   0.000   0.001
  214       -0.000  -0.000   0.000  -0.000
  215       -0.000  -0.000   0.000  -0.000
  216       -0.000   0.000   0.000  -0.000
  217       -0.000  -0.000   0.000  -0.000
  218       -0.000   0.000   0.000   0.000
  219       -0.000  -0.000   0.000  -0.000
  220        0.000  -0.000   0.000  -0.000
  221       -0.000  -0.000   0.000  -0.000
  222       -0.000  -0.000   0.000  -0.000
  223       -0.000   0.002   0.000   0.002
  224       -0.000  -0.000   0.000  -0.000
  225       -0.000  -0.000   0.000  -0.000
  226       -0.000  -0.000   0.000  -0.000
  227       -0.000  -0.000   0.000  -0.000
  228       -0.000  -0.000   0.000  -0.000
  229        0.000  -0.000   0.000  -0.000
  230       -0.000  -0.000   0.000  -0.000
  231       -0.000  -0.000   0.000  -0.000
  232       -0.000  -0.000   0.000  -0.000
  233       -0.000   0.000   0.000  -0.000
  234        0.000   0.000   0.000   0.000
  235        0.000   0.000   0.000   0.000
  236        0.000   0.000   0.000   0.000
  237       -0.000  -0.000   0.000  -0.000
  238        0.000   0.000   0.000   0.000
  239       -0.000   0.000   0.000   0.000
  240        0.000   0.000   0.000   0.000
  241        0.000  -0.000   0.000  -0.000
  242       -0.000  -0.000   0.000  -0.000
  243        0.000  -0.000   0.000   0.000
  244       -0.000  -0.000   0.000  -0.000
  245       -0.000   0.000   0.000   0.000
  246        0.000   0.000   0.000   0.000
  247        0.000   0.000   0.000   0.000
  248        0.000  -0.000   0.000  -0.000
  249       -0.000  -0.000   0.000  -0.000
  250       -0.000  -0.000   0.000  -0.000
  251       -0.000  -0.000   0.000  -0.000
  252        0.000   0.000   0.000   0.000
  253       -0.000  -0.000   0.000  -0.000
  254       -0.000  -0.000   0.000  -0.000
  255       -0.000  -0.000   0.000  -0.000
  256        0.000  -0.000   0.000  -0.000
  257       -0.000  -0.000   0.000  -0.000
--------------------------------------------------
tot          0.002  -0.017   0.952   0.937
 

 total amount of memory used by VASP MPI-rank0   291478. kBytes
=======================================================================

   base      :      30000. kBytes
   nonlr-proj:      49443. kBytes
   fftplans  :      27976. kBytes
   grid      :      34041. kBytes
   one-center:       1026. kBytes
   wavefun   :     148992. kBytes
 
  
  
 General timing and accounting informations for this job:
 ========================================================
  
                  Total CPU time used (sec):      989.506
                            User time (sec):      653.041
                          System time (sec):      336.465
                         Elapsed time (sec):     1026.178
  
                   Maximum memory used (kb):      620364.
                   Average memory used (kb):           0.
  
                          Minor page faults:        90977
                          Major page faults:            4
                 Voluntary context switches:        16932
