       N       E                     dE             d eps       ncg     rms          rms(c)
DAV:   1    -0.206585861754E+03   -0.20659E+03   -0.44830E-03 20176   0.411E-01    0.524E-03
DAV:   2    -0.206585861693E+03    0.60685E-07   -0.32318E-06 19304   0.914E-03
   1 F= -.20658586E+03 E0= -.20658586E+03  d E =-.206586E+03  mag=    -2.0000
