 vasp.5.4.4.18Apr17-6-g9f103f2a35 (build Apr 30 2017 20:10:35) complex          
  
 executed on             LinuxIFC date 2017.08.07  13:10:53
 running on   64 total cores
 distrk:  each k-point on   64 cores,    1 groups
 distr:  one band on NCORES_PER_BAND=   8 cores,    8 groups


--------------------------------------------------------------------------------------------------------


 INCAR:
 POTCAR:   PAW_PBE Ti_pv 07Sep2000                
 POTCAR:   PAW_PBE O 08Apr2002                    
 POTCAR:    PAW_PBE F 08Apr2002                   
 POTCAR:   PAW_PBE Ti_pv 07Sep2000                
   VRHFIN =Ti: d3 s1                                                            
   LEXCH  = PE                                                                  
   EATOM  =  1042.3781 eV,   76.6126 Ry                                         
                                                                                
   TITEL  = PAW_PBE Ti_pv 07Sep2000                                             
   LULTRA =        F    use ultrasoft PP ?                                      
   IUNSCR =        1    unscreen: 0-lin 1-nonlin 2-no                           
   RPACOR =    2.200    partial core radius                                     
   POMASS =   47.880; ZVAL   =   10.000    mass and valenz                      
   RCORE  =    2.500    outmost cutoff radius                                   
   RWIGS  =    2.500; RWIGS  =    1.323    wigner-seitz radius (au A)           
   ENMAX  =  222.338; ENMIN  =  166.753 eV                                      
   RCLOC  =    1.701    cutoff for local pot                                    
   LCOR   =        T    correct aug charges                                     
   LPAW   =        T    paw PP                                                  
   EAUG   =  482.848                                                            
   DEXC   =    -.008                                                            
   RMAX   =    3.092    core radius for proj-oper                               
   RAUG   =    1.300    factor for augmentation sphere                          
   RDEP   =    2.538    radius for radial grids                                 
   QCUT   =   -4.042; QGAM   =    8.085    optimization parameters              
                                                                                
   Description                                                                  
     l     E      TYP  RCUT    TYP  RCUT                                        
     1   .000     23  2.300                                                     
     1  -.100     23  2.300                                                     
     2   .000     23  2.500                                                     
     2   .000     23  2.500                                                     
     0   .000     23  2.500                                                     
     0  1.500     23  2.500                                                     
     3   .000      7   .000                                                     
  local pseudopotential read in
  partial core-charges read in
  atomic valenz-charges read in
  non local Contribution for L=           1  read in
    real space projection operators read in
  non local Contribution for L=           1  read in
    real space projection operators read in
  non local Contribution for L=           2  read in
    real space projection operators read in
  non local Contribution for L=           2  read in
    real space projection operators read in
  non local Contribution for L=           0  read in
    real space projection operators read in
  non local Contribution for L=           0  read in
    real space projection operators read in
    PAW grid and wavefunctions read in
 
   number of l-projection  operators is LMAX  =           6
   number of lm-projection operators is LMMAX =          18
 
 POTCAR:   PAW_PBE O 08Apr2002                    
   VRHFIN =O: s2p4                                                              
   LEXCH  = PE                                                                  
   EATOM  =   432.3788 eV,   31.7789 Ry                                         
                                                                                
   TITEL  = PAW_PBE O 08Apr2002                                                 
   LULTRA =        F    use ultrasoft PP ?                                      
   IUNSCR =        0    unscreen: 0-lin 1-nonlin 2-no                           
   RPACOR =     .000    partial core radius                                     
   POMASS =   16.000; ZVAL   =    6.000    mass and valenz                      
   RCORE  =    1.520    outmost cutoff radius                                   
   RWIGS  =    1.550; RWIGS  =     .820    wigner-seitz radius (au A)           
   ENMAX  =  400.000; ENMIN  =  300.000 eV                                      
   ICORE  =        2    local potential                                         
   LCOR   =        T    correct aug charges                                     
   LPAW   =        T    paw PP                                                  
   EAUG   =  605.392                                                            
   DEXC   =     .000                                                            
   RMAX   =    2.264    core radius for proj-oper                               
   RAUG   =    1.300    factor for augmentation sphere                          
   RDEP   =    1.550    radius for radial grids                                 
   QCUT   =   -5.520; QGAM   =   11.041    optimization parameters              
                                                                                
   Description                                                                  
     l     E      TYP  RCUT    TYP  RCUT                                        
     0   .000     23  1.200                                                     
     0  -.700     23  1.200                                                     
     1   .000     23  1.520                                                     
     1   .600     23  1.520                                                     
     2   .000      7  1.500                                                     
  local pseudopotential read in
  atomic valenz-charges read in
  non local Contribution for L=           0  read in
    real space projection operators read in
  non local Contribution for L=           0  read in
    real space projection operators read in
  non local Contribution for L=           1  read in
    real space projection operators read in
  non local Contribution for L=           1  read in
    real space projection operators read in
    PAW grid and wavefunctions read in
 
   number of l-projection  operators is LMAX  =           4
   number of lm-projection operators is LMMAX =           8
 
 POTCAR:    PAW_PBE F 08Apr2002                   
   VRHFIN =F: s2p5                                                              
   LEXCH  = PE                                                                  
   EATOM  =   659.6475 eV,   48.4827 Ry                                         
                                                                                
   TITEL  = PAW_PBE F 08Apr2002                                                 
   LULTRA =        F    use ultrasoft PP ?                                      
   IUNSCR =        1    unscreen: 0-lin 1-nonlin 2-no                           
   RPACOR =    1.200    partial core radius                                     
   POMASS =   18.998; ZVAL   =    7.000    mass and valenz                      
   RCORE  =    1.520    outmost cutoff radius                                   
   RWIGS  =    1.500; RWIGS  =    0.794    wigner-seitz radius (au A)           
   ENMAX  =  400.000; ENMIN  =  300.000 eV                                      
   ICORE  =        2    local potential                                         
   LCOR   =        T    correct aug charges                                     
   LPAW   =        T    paw PP                                                  
   EAUG   =  613.614                                                            
   RMAX   =    1.555    core radius for proj-oper                               
   RAUG   =    1.300    factor for augmentation sphere                          
   RDEP   =    1.539    radius for radial grids                                 
   RDEPT  =    1.299    core radius for aug-charge                              
                                                                                
   Atomic configuration                                                         
    4 entries                                                                   
     n  l   j            E        occ.                                          
     1  0  0.50      -663.3661   2.0000                                         
     2  0  0.50       -29.8995   2.0000                                         
     2  1  0.50       -11.1114   5.0000                                         
     3  2  1.50       -10.8847   0.0000                                         
   Description                                                                  
     l       E           TYP  RCUT    TYP  RCUT                                 
     0    -29.8995018     23  1.200                                             
     0     -9.5240782     23  1.200                                             
     1    -11.1113914     23  1.520                                             
     1      1.3605826     23  1.520                                             
     2    -10.8846608      7  1.500                                             
  local pseudopotential read in
  partial core-charges read in
  partial kinetic energy density read in
  atomic valenz-charges read in
  non local Contribution for L=           0  read in
    real space projection operators read in
  non local Contribution for L=           0  read in
    real space projection operators read in
  non local Contribution for L=           1  read in
    real space projection operators read in
  non local Contribution for L=           1  read in
    real space projection operators read in
    PAW grid and wavefunctions read in
 
   number of l-projection  operators is LMAX  =           4
   number of lm-projection operators is LMMAX =           8
 
 Optimization of the real space projectors (new method)

 maximal supplied QI-value         = 15.12
 optimisation between [QCUT,QGAM] = [ 13.45, 27.06] = [ 50.69,205.06] Ry 
 Optimized for a Real-space Cutoff    1.49 Angstroem

   l    n(q)    QCUT    max X(q) W(low)/X(q) W(high)/X(q)  e(spline) 
   1     12    13.455     4.841    0.13E-05    0.83E-06    0.56E-07
   1     12    13.455     5.701    0.32E-04    0.25E-04    0.17E-06
   2     11    13.455     4.569    0.64E-05    0.34E-05    0.50E-07
   2     11    13.455    32.276    0.49E-04    0.38E-04    0.46E-06
   0     12    13.455    30.046    0.17E-04    0.41E-05    0.51E-07
   0     12    13.455    45.433    0.12E-04    0.27E-04    0.38E-06
 Optimization of the real space projectors (new method)

 maximal supplied QI-value         = 24.76
 optimisation between [QCUT,QGAM] = [ 13.37, 26.98] = [ 50.04,203.89] Ry 
 Optimized for a Real-space Cutoff    1.17 Angstroem

   l    n(q)    QCUT    max X(q) W(low)/X(q) W(high)/X(q)  e(spline) 
   0      9    13.368     4.192    0.20E-04    0.58E-05    0.56E-07
   0      9    13.368     8.473    0.60E-04    0.52E-04    0.21E-06
   1      9    13.368     2.474    0.22E-04    0.17E-04    0.28E-07
   1      9    13.368     3.912    0.94E-04    0.97E-04    0.20E-06
 Optimization of the real space projectors (new method)

 maximal supplied QI-value         = 24.76
 optimisation between [QCUT,QGAM] = [ 13.37, 26.98] = [ 50.04,203.89] Ry 
 Optimized for a Real-space Cutoff    1.17 Angstroem

   l    n(q)    QCUT    max X(q) W(low)/X(q) W(high)/X(q)  e(spline) 
   0      9    13.368    14.049    0.39E-04    0.34E-04    0.16E-06
   0      9    13.368     8.945    0.54E-04    0.47E-04    0.20E-06
   1      9    13.368     7.086    0.99E-04    0.10E-03    0.23E-06
   1      9    13.368     6.747    0.86E-04    0.89E-04    0.21E-06

 ----------------------------------------------------------------------------- 
|                                                                             |
|  ADVICE TO THIS USER RUNNING 'VASP/VAMP'   (HEAR YOUR MASTER'S VOICE ...):  |
|                                                                             |
|      You enforced a specific xc-type in the INCAR file,                     |
|      a different type was found on the POTCAR file                          |
|          I HOPE YOU KNOW, WHAT YOU ARE  DOING                               |
|                                                                             |
 ----------------------------------------------------------------------------- 

 PAW_PBE Ti_pv 07Sep2000                :
 energy of atom  1       EATOM=-1042.3781
 kinetic energy error for atom=    0.0006 (will be added to EATOM!!)
 PAW_PBE O 08Apr2002                    :
 energy of atom  2       EATOM= -432.3788
 kinetic energy error for atom=    0.0091 (will be added to EATOM!!)
  PAW_PBE F 08Apr2002                   :
 energy of atom  3       EATOM= -659.6475
 kinetic energy error for atom=    0.0140 (will be added to EATOM!!)
 
 
 POSCAR: TiOF2 2x2x2 config 1999                 
  positions in direct lattice
  velocities in cartesian coordinates
 exchange correlation table for  LEXCH =       14
   RHO(1)=    0.500       N(1)  =     2000
   RHO(2)=  100.500       N(2)  =     4000

 VTST: version 3.1, (03/28/14)

 CHAIN: initializing optimizer
 
 OPT: Using VASP QUASI-newton optimizer
 CHAIN: Read ICHAIN            0
 
 POSCAR: TiOF2 2x2x2 config 1999                 
  positions in direct lattice
  velocities in cartesian coordinates
 


--------------------------------------------------------------------------------------------------------


 ion  position               nearest neighbor table
   1  1.000  0.000  1.000-  17 1.90  20 1.90  29 1.96  30 1.96  23 2.02  25 2.03
   2  0.000  0.001  0.500-  18 1.86  21 1.86  30 1.88  29 1.88  26 1.88  24 1.89
   3  0.000  0.500  1.000-  32 1.85  31 1.85  19 1.87  22 1.87  25 1.91  23 1.91
   4  1.000  0.501  0.500-  10 1.83   9 1.83  31 1.99  32 1.99  26 2.04  24 2.05
   5  0.500  0.002  0.000-  13 1.87  14 1.87  27 1.95  28 1.97  17 2.01  20 2.01
   6  0.500  0.985  0.500-  12 1.82  14 1.97  13 1.98  11 2.04  21 2.05  18 2.05
   7  0.500  0.500  1.000-  16 1.85  15 1.85  27 1.96  28 1.98  22 2.04  19 2.04
   8  0.500  0.505  0.500-  12 1.96  15 1.99  16 1.99  11 2.05   9 2.08  10 2.08
   9  0.234  0.503  0.500-   4 1.83   8 2.08
  10  0.766  0.503  0.500-   4 1.83   8 2.08
  11  0.500  0.244  0.500-   6 2.04   8 2.05
  12  0.500  0.754  0.500-   6 1.82   8 1.96
  13  0.500  0.007  0.243-   5 1.87   6 1.98
  14  0.500  0.007  0.757-   5 1.87   6 1.97
  15  0.500  0.493  0.241-   7 1.85   8 1.99
  16  0.500  0.493  0.759-   7 1.85   8 1.99
  17  0.243  0.999  1.000-   1 1.90   5 2.01
  18  0.238  0.998  0.500-   2 1.86   6 2.05
  19  0.239  0.501  0.000-   3 1.87   7 2.04
  20  0.757  0.999  1.000-   1 1.90   5 2.01
  21  0.762  0.998  0.500-   2 1.86   6 2.05
  22  0.761  0.501  1.000-   3 1.87   7 2.04
  23  0.000  0.258  0.000-   3 1.91   1 2.02
  24  0.000  0.241  0.500-   2 1.89   4 2.05
  25  1.000  0.743  1.000-   3 1.91   1 2.03
  26  0.000  0.761  0.500-   2 1.88   4 2.04
  27  0.500  0.250  1.000-   5 1.95   7 1.96
  28  0.500  0.751  1.000-   5 1.97   7 1.98
  29  1.000  0.001  0.256-   2 1.88   1 1.96
  30  0.000  0.001  0.744-   2 1.88   1 1.96
  31  1.000  0.499  0.241-   3 1.85   4 1.99
  32  0.000  0.499  0.759-   3 1.85   4 1.99
 

IMPORTANT INFORMATION: All symmetrisations will be switched off!
NOSYMM: (Re-)initialisation of all symmetry stuff for point group C_1.

 
 
 KPOINTS: Title                                   

Automatic generation of k-mesh.
Space group operators:
 irot       det(A)        alpha          n_x          n_y          n_z        tau_x        tau_y        tau_z
    1     1.000000     0.000000     1.000000     0.000000     0.000000     0.000000     0.000000     0.000000
 
 Subroutine IBZKPT returns following result:
 ===========================================
 
 Found     32 irreducible k-points:
 
 Following reciprocal coordinates:
            Coordinates               Weight
  0.125000  0.125000  0.125000      2.000000
  0.375000  0.125000  0.125000      2.000000
 -0.375000  0.125000  0.125000      2.000000
 -0.125000  0.125000  0.125000      2.000000
  0.125000  0.375000  0.125000      2.000000
  0.375000  0.375000  0.125000      2.000000
 -0.375000  0.375000  0.125000      2.000000
 -0.125000  0.375000  0.125000      2.000000
  0.125000 -0.375000  0.125000      2.000000
  0.375000 -0.375000  0.125000      2.000000
 -0.375000 -0.375000  0.125000      2.000000
 -0.125000 -0.375000  0.125000      2.000000
  0.125000 -0.125000  0.125000      2.000000
  0.375000 -0.125000  0.125000      2.000000
 -0.375000 -0.125000  0.125000      2.000000
 -0.125000 -0.125000  0.125000      2.000000
  0.125000  0.125000  0.375000      2.000000
  0.375000  0.125000  0.375000      2.000000
 -0.375000  0.125000  0.375000      2.000000
 -0.125000  0.125000  0.375000      2.000000
  0.125000  0.375000  0.375000      2.000000
  0.375000  0.375000  0.375000      2.000000
 -0.375000  0.375000  0.375000      2.000000
 -0.125000  0.375000  0.375000      2.000000
  0.125000 -0.375000  0.375000      2.000000
  0.375000 -0.375000  0.375000      2.000000
 -0.375000 -0.375000  0.375000      2.000000
 -0.125000 -0.375000  0.375000      2.000000
  0.125000 -0.125000  0.375000      2.000000
  0.375000 -0.125000  0.375000      2.000000
 -0.375000 -0.125000  0.375000      2.000000
 -0.125000 -0.125000  0.375000      2.000000
 
 Following cartesian coordinates:
            Coordinates               Weight
  0.015997  0.015895  0.016285      2.000000
  0.047992  0.015895  0.016285      2.000000
 -0.047992  0.015895  0.016285      2.000000
 -0.015998  0.015895  0.016285      2.000000
  0.015997  0.047688  0.016283      2.000000
  0.047992  0.047688  0.016283      2.000000
 -0.047992  0.047688  0.016283      2.000000
 -0.015998  0.047688  0.016283      2.000000
  0.015997 -0.047690  0.016289      2.000000
  0.047992 -0.047690  0.016289      2.000000
 -0.047993 -0.047690  0.016289      2.000000
 -0.015998 -0.047690  0.016289      2.000000
  0.015997 -0.015897  0.016287      2.000000
  0.047992 -0.015897  0.016287      2.000000
 -0.047993 -0.015897  0.016287      2.000000
 -0.015998 -0.015897  0.016287      2.000000
  0.015997  0.015893  0.048857      2.000000
  0.047992  0.015893  0.048857      2.000000
 -0.047993  0.015893  0.048857      2.000000
 -0.015998  0.015893  0.048857      2.000000
  0.015997  0.047686  0.048855      2.000000
  0.047992  0.047686  0.048855      2.000000
 -0.047993  0.047686  0.048855      2.000000
 -0.015998  0.047686  0.048855      2.000000
  0.015997 -0.047692  0.048861      2.000000
  0.047992 -0.047692  0.048861      2.000000
 -0.047993 -0.047692  0.048861      2.000000
 -0.015998 -0.047692  0.048861      2.000000
  0.015997 -0.015899  0.048859      2.000000
  0.047992 -0.015899  0.048859      2.000000
 -0.047993 -0.015899  0.048859      2.000000
 -0.015998 -0.015899  0.048859      2.000000
 


--------------------------------------------------------------------------------------------------------




 Dimension of arrays:
   k-points           NKPTS =     32   k-points in BZ     NKDIM =     32   number of bands    NBANDS=    160
   number of dos      NEDOS =   3001   number of ions     NIONS =     32
   non local maximal  LDIM  =      6   non local SUM 2l+1 LMDIM =     18
   total plane-waves  NPLWV = 343000
   max r-space proj   IRMAX =  10085   max aug-charges    IRDMAX= 226077
   dimension x,y,z NGX =    70 NGY =   70 NGZ =   70
   dimension x,y,z NGXF=   140 NGYF=  140 NGZF=  140
   support grid    NGXF=   280 NGYF=  280 NGZF=  280
   ions per type =               8   8  16
   NGX,Y,Z   is equivalent  to a cutoff of  14.89, 14.80, 15.16 a.u.
   NGXF,Y,Z  is equivalent  to a cutoff of  29.79, 29.60, 30.32 a.u.

 SYSTEM =  LTO                                     
 POSCAR =  TiOF2 2x2x2 config 1999                 

 Startparameter for this run:
   NWRITE =      2    write-flag & timer
   PREC   = accura    normal or accurate (medium, high low for compatibility)
   ISTART =      1    job   : 0-new  1-cont  2-samecut
   ICHARG =      0    charge: 1-file 2-atom 10-const
   ISPIN  =      2    spin polarized calculation?
   LNONCOLLINEAR =      F non collinear calculations
   LSORBIT =      F    spin-orbit coupling
   INIWAV =      1    electr: 0-lowe 1-rand  2-diag
   LASPH  =      T    aspherical Exc in radial PAW
   METAGGA=      F    non-selfconsistent MetaGGA calc.

 Electronic Relaxation 1
   ENCUT  =  700.0 eV  51.45 Ry    7.17 a.u.  16.86 16.96 16.56*2*pi/ulx,y,z
   ENINI  =  700.0     initial cutoff
   ENAUG  =  613.6 eV  augmentation charge cutoff
   NELM   =     60;   NELMIN=  2; NELMDL=  0     # of ELM steps 
   EDIFF  = 0.1E-05   stopping-criterion for ELM
   LREAL  =      T    real-space projection
   NLSPLINE    = F    spline interpolate recip. space projectors
   LCOMPAT=      F    compatible to vasp.4.4
   GGA_COMPAT  = T    GGA compatible to vasp.4.4-vasp.4.6
   LMAXPAW     = -100 max onsite density
   LMAXMIX     =    4 max onsite mixed and CHGCAR
   VOSKOWN=      0    Vosko Wilk Nusair interpolation
   ROPT   =   -0.00010  -0.00010  -0.00010
 Ionic relaxation
   EDIFFG = -.1E-01   stopping-criterion for IOM
   NSW    =    100    number of steps for IOM
   NBLOCK =      1;   KBLOCK =    100    inner block; outer block 
   IBRION =      1    ionic relax: 0-MD 1-quasi-New 2-CG
   NFREE  =      0    steps in history (QN), initial steepest desc. (CG)
   ISIF   =      3    stress and relaxation
   IWAVPR =     11    prediction:  0-non 1-charg 2-wave 3-comb
   ISYM   =      0    0-nonsym 1-usesym 2-fastsym
   LCORR  =      T    Harris-Foulkes like correction to forces

   POTIM  = 0.5000    time-step for ionic-motion
   TEIN   =    0.0    initial temperature
   TEBEG  =    0.0;   TEEND  =   0.0 temperature during run
   SMASS  =  -3.00    Nose mass-parameter (am)
   estimated Nose-frequenzy (Omega)   =  0.10E-29 period in steps =****** mass=  -0.140E-26a.u.
   SCALEE = 1.0000    scale energy and forces
   NPACO  =    256;   APACO  = 16.0  distance and # of slots for P.C.
   PSTRESS=    0.0 pullay stress

  Mass of Ions in am
   POMASS =  47.88 16.00 19.00
  Ionic Valenz
   ZVAL   =  10.00  6.00  7.00
  Atomic Wigner-Seitz radii
   RWIGS  =  -1.00 -1.00 -1.00
  virtual crystal weights 
   VCA    =   1.00  1.00  1.00
   NELECT =     240.0000    total number of electrons
   NUPDOWN=      -1.0000    fix difference up-down

 DOS related values:
   EMIN   =  10.00;   EMAX   =-10.00  energy-range for DOS
   EFERMI =   0.00
   ISMEAR =     0;   SIGMA  =   0.01  broadening in eV -4-tet -1-fermi 0-gaus

 Electronic relaxation 2 (details)
   IALGO  =     38    algorithm
   LDIAG  =      T    sub-space diagonalisation (order eigenvalues)
   LSUBROT=      F    optimize rotation matrix (better conditioning)
   TURBO    =      0    0=normal 1=particle mesh
   IRESTART =      0    0=no restart 2=restart with 2 vectors
   NREBOOT  =      0    no. of reboots
   NMIN     =      0    reboot dimension
   EREF     =   0.00    reference energy to select bands
   IMIX   =      4    mixing-type and parameters
     AMIX     =   0.40;   BMIX     =  1.00
     AMIX_MAG =   1.60;   BMIX_MAG =  1.00
     AMIN     =   0.10
     WC   =   100.;   INIMIX=   1;  MIXPRE=   1;  MAXMIX= -45

 Intra band minimization:
   WEIMIN = 0.0010     energy-eigenvalue tresh-hold
   EBREAK =  0.16E-08  absolut break condition
   DEPER  =   0.30     relativ break condition  

   TIME   =   0.40     timestep for ELM

  volume/ion in A,a.u.               =      14.74        99.45
  Fermi-wavevector in a.u.,A,eV,Ry     =   1.307045  2.469956 23.243723  1.708365
  Thomas-Fermi vector in A             =   2.437806
 
 Write flags
   LWAVE        =      T    write WAVECAR
   LDOWNSAMPLE  =      F    k-point downsampling of WAVECAR
   LCHARG       =      T    write CHGCAR
   LVTOT        =      F    write LOCPOT, total local potential
   LVHAR        =      F    write LOCPOT, Hartree potential only
   LELF         =      F    write electronic localiz. function (ELF)
   LORBIT       =     11    0 simple, 1 ext, 2 COOP (PROOUT), +10 PAW based schemes


 Dipole corrections
   LMONO  =      F    monopole corrections only (constant potential shift)
   LDIPOL =      F    correct potential (dipole corrections)
   IDIPOL =      0    1-x, 2-y, 3-z, 4-all directions 
   EPSILON=  1.0000000 bulk dielectric constant

 LDA+U is selected, type is set to LDAUTYPE =  2
   angular momentum for each species LDAUL =     2   -1   -1
   U (eV)           for each species LDAUU =   4.2  0.0  0.0
   J (eV)           for each species LDAUJ =   0.0  0.0  0.0
 Exchange correlation treatment:
   GGA     =    PS    GGA type
   LEXCH   =    14    internal setting for exchange type
   VOSKOWN=      0    Vosko Wilk Nusair interpolation
   LHFCALC =     F    Hartree Fock is set to
   LHFONE  =     F    Hartree Fock one center treatment
   AEXX    =    0.0000 exact exchange contribution

 Linear response parameters
   LEPSILON=     F    determine dielectric tensor
   LRPA    =     F    only Hartree local field effects (RPA)
   LNABLA  =     F    use nabla operator in PAW spheres
   LVEL    =     F    velocity operator in full k-point grid
   LINTERFAST=   F  fast interpolation
   KINTER  =     0    interpolate to denser k-point grid
   CSHIFT  =0.1000    complex shift for real part using Kramers Kronig
   OMEGAMAX=  -1.0    maximum frequency
   DEG_THRESHOLD= 0.2000000E-02 threshold for treating states as degnerate
   RTIME   =   -0.100 relaxation time in fs
  (WPLASMAI=    0.000 imaginary part of plasma frequency in eV, 0.658/RTIME)
   DFIELD  = 0.0000000 0.0000000 0.0000000 field for delta impulse in time
 
 Orbital magnetization related:
   ORBITALMAG=     F  switch on orbital magnetization
   LCHIMAG   =     F  perturbation theory with respect to B field
   DQ        =  0.001000  dq finite difference perturbation B field
   LLRAUG    =     F  two centre corrections for induced B field



--------------------------------------------------------------------------------------------------------


 quasi-Newton-method for relaxation of ions
 charge density and potential will be updated during run
 spin polarized calculation
 Variant of blocked Davidson
 Davidson routine will perform the subspace rotation
 perform sub-space diagonalisation
    after iterative eigenvector-optimisation
 modified Broyden-mixing scheme, WC =      100.0
 initial mixing is a Kerker type mixing with AMIX =  0.4000 and BMIX =      1.0000
 Hartree-type preconditioning will be used
 using additional bands           40
 real space projection scheme for non local part
 use partial core corrections
 calculate Harris-corrections to forces 
   (improved forces if not selfconsistent)
 use gradient corrections 
 use of overlap-Matrix (Vanderbilt PP)
 Gauss-broadening in eV      SIGMA  =   0.01


--------------------------------------------------------------------------------------------------------


  energy-cutoff  :      700.00
  volume of cell :      471.59
      direct lattice vectors                 reciprocal lattice vectors
     7.813729406 -0.000002361  0.000025635     0.127979861  0.000000063  0.000000629
    -0.000003901  7.863430001  0.000498026     0.000000038  0.127170968 -0.000008069
    -0.000037724  0.000487009  7.675278936    -0.000000427 -0.000008252  0.130288425

  length of vectors
     7.813729406  7.863430017  7.675278951     0.127979861  0.127170968  0.130288425


 
 old parameters found on file WAVECAR:
  energy-cutoff  :      700.00
  volume of cell :      471.40
      direct lattice vectors                 reciprocal lattice vectors
     7.812493352  0.000008623  0.000168432     0.128000109 -0.000000117 -0.000001710
     0.000007166  7.860721094  0.000150861    -0.000000140  0.127214792 -0.000002453
     0.000102560  0.000147994  7.676112776    -0.000002809 -0.000002500  0.130274272

  length of vectors

 
 k-points in units of 2pi/SCALE and weight: Title                                   
   0.01599743  0.01589535  0.01628512       0.031
   0.04799240  0.01589536  0.01628528       0.031
  -0.04799250  0.01589532  0.01628481       0.031
  -0.01599753  0.01589533  0.01628497       0.031
   0.01599744  0.04768809  0.01628311       0.031
   0.04799241  0.04768811  0.01628326       0.031
  -0.04799249  0.04768806  0.01628279       0.031
  -0.01599752  0.04768807  0.01628295       0.031
   0.01599741 -0.04769014  0.01628916       0.031
   0.04799238 -0.04769012  0.01628931       0.031
  -0.04799252 -0.04769017  0.01628884       0.031
  -0.01599755 -0.04769015  0.01628900       0.031
   0.01599742 -0.01589739  0.01628714       0.031
   0.04799239 -0.01589738  0.01628730       0.031
  -0.04799251 -0.01589743  0.01628683       0.031
  -0.01599754 -0.01589741  0.01628698       0.031
   0.01599733  0.01589328  0.04885723       0.031
   0.04799229  0.01589330  0.04885739       0.031
  -0.04799260  0.01589325  0.04885691       0.031
  -0.01599764  0.01589327  0.04885707       0.031
   0.01599734  0.04768603  0.04885521       0.031
   0.04799230  0.04768604  0.04885537       0.031
  -0.04799259  0.04768599  0.04885490       0.031
  -0.01599763  0.04768601  0.04885505       0.031
   0.01599731 -0.04769220  0.04886126       0.031
   0.04799227 -0.04769218  0.04886142       0.031
  -0.04799262 -0.04769223  0.04886095       0.031
  -0.01599766 -0.04769222  0.04886111       0.031
   0.01599732 -0.01589946  0.04885925       0.031
   0.04799228 -0.01589944  0.04885940       0.031
  -0.04799261 -0.01589949  0.04885893       0.031
  -0.01599765 -0.01589947  0.04885909       0.031
 
 k-points in reciprocal lattice and weights: Title                                   
   0.12500000  0.12500000  0.12500000       0.031
   0.37500000  0.12500000  0.12500000       0.031
  -0.37500000  0.12500000  0.12500000       0.031
  -0.12500000  0.12500000  0.12500000       0.031
   0.12500000  0.37500000  0.12500000       0.031
   0.37500000  0.37500000  0.12500000       0.031
  -0.37500000  0.37500000  0.12500000       0.031
  -0.12500000  0.37500000  0.12500000       0.031
   0.12500000 -0.37500000  0.12500000       0.031
   0.37500000 -0.37500000  0.12500000       0.031
  -0.37500000 -0.37500000  0.12500000       0.031
  -0.12500000 -0.37500000  0.12500000       0.031
   0.12500000 -0.12500000  0.12500000       0.031
   0.37500000 -0.12500000  0.12500000       0.031
  -0.37500000 -0.12500000  0.12500000       0.031
  -0.12500000 -0.12500000  0.12500000       0.031
   0.12500000  0.12500000  0.37500000       0.031
   0.37500000  0.12500000  0.37500000       0.031
  -0.37500000  0.12500000  0.37500000       0.031
  -0.12500000  0.12500000  0.37500000       0.031
   0.12500000  0.37500000  0.37500000       0.031
   0.37500000  0.37500000  0.37500000       0.031
  -0.37500000  0.37500000  0.37500000       0.031
  -0.12500000  0.37500000  0.37500000       0.031
   0.12500000 -0.37500000  0.37500000       0.031
   0.37500000 -0.37500000  0.37500000       0.031
  -0.37500000 -0.37500000  0.37500000       0.031
  -0.12500000 -0.37500000  0.37500000       0.031
   0.12500000 -0.12500000  0.37500000       0.031
   0.37500000 -0.12500000  0.37500000       0.031
  -0.37500000 -0.12500000  0.37500000       0.031
  -0.12500000 -0.12500000  0.37500000       0.031
 
 position of ions in fractional coordinates (direct lattice) 
   0.99999999  0.00009947  0.99998695
   0.00000125  0.00067774  0.49999084
   0.00000127  0.50009026  0.99998866
   0.99999968  0.50095907  0.50000544
   0.49999898  0.00215485  0.00025384
   0.49999929  0.98532911  0.50030606
   0.50000068  0.49959185  0.99996755
   0.49998876  0.50533248  0.49998615
   0.23434742  0.50337767  0.50000130
   0.76565951  0.50337599  0.50000631
   0.50000070  0.24443647  0.49999459
   0.50000073  0.75447020  0.49996179
   0.50000495  0.00652225  0.24322222
   0.49999422  0.00660675  0.75655180
   0.50000345  0.49332842  0.24054806
   0.49999823  0.49339695  0.75947283
   0.24314446  0.99923442  0.99997637
   0.23770891  0.99829388  0.49995227
   0.23919130  0.50128589  0.00000602
   0.75685380  0.99923701  0.99996033
   0.76228963  0.99829483  0.49997413
   0.76080961  0.50128546  0.99999756
   0.00000022  0.25760487  0.00000428
   0.00000184  0.24058018  0.49999601
   0.99999973  0.74253503  0.99999563
   0.00000049  0.76101837  0.50000097
   0.49999783  0.24976666  0.99994493
   0.50000100  0.75140693  0.99995755
   0.99998790  0.00070846  0.25566728
   0.00001104  0.00069160  0.74430421
   0.99999715  0.49914840  0.24099513
   0.00000598  0.49915846  0.75902296
 
 position of ions in cartesian coordinates  (Angst):
   7.81369164  0.00126682  7.67520447
  -0.00000908  0.00557283  3.83756948
  -0.00002977  3.93291178  7.67544096
   7.81370610  3.93949771  3.83795631
   3.90685674  0.01694344  0.00196222
   3.90683643  7.74830896  3.84049209
   3.90683037  3.92899136  7.67529147
   3.90675602  3.97388892  3.83779768
   1.83110651  3.95851804  3.83790612
   5.98263538  3.95850357  3.83795819
   3.90685037  1.92235142  3.83773248
   3.90684857  5.93296588  3.83773479
   3.90689418  0.05140455  1.86681443
   3.90679099  0.05231895  5.80676223
   3.90688064  3.87936947  1.84653198
   3.90682032  3.88016105  5.82942434
   1.89982341  7.85789638  7.67560141
   1.85737031  7.85025698  3.83777640
   1.86897415  3.94182598  0.00030202
   5.91380917  7.85791549  7.67549148
   5.95630218  7.85026324  3.83795766
   5.94472075  3.94230832  7.67552934
   0.00000075  2.02565787  0.00016111
  -0.00000540  1.89202891  3.83772867
   7.81368664  5.83935690  7.67564081
  -0.00001801  5.98445819  3.83802590
   3.90680906  1.96450848  7.67499349
   3.90683186  5.90912158  7.67534017
   7.81362518  0.00569307  1.96234366
   0.00005818  0.00580085  5.71274273
   7.81369606  3.92513353  1.84997909
   0.00001615  3.92546728  5.82596151
 


--------------------------------------------------------------------------------------------------------


 k-point  1 :   0.1250 0.1250 0.1250  plane waves:   19816
 k-point  2 :   0.3750 0.1250 0.1250  plane waves:   19838
 k-point  3 :  -0.3750 0.1250 0.1250  plane waves:   19838
 k-point  4 :  -0.1250 0.1250 0.1250  plane waves:   19816
 k-point  5 :   0.1250 0.3750 0.1250  plane waves:   19851
 k-point  6 :   0.3750 0.3750 0.1250  plane waves:   19836
 k-point  7 :  -0.3750 0.3750 0.1250  plane waves:   19836
 k-point  8 :  -0.1250 0.3750 0.1250  plane waves:   19851
 k-point  9 :   0.1250-0.3750 0.1250  plane waves:   19850
 k-point 10 :   0.3750-0.3750 0.1250  plane waves:   19835
 k-point 11 :  -0.3750-0.3750 0.1250  plane waves:   19835
 k-point 12 :  -0.1250-0.3750 0.1250  plane waves:   19850
 k-point 13 :   0.1250-0.1250 0.1250  plane waves:   19813
 k-point 14 :   0.3750-0.1250 0.1250  plane waves:   19839
 k-point 15 :  -0.3750-0.1250 0.1250  plane waves:   19839
 k-point 16 :  -0.1250-0.1250 0.1250  plane waves:   19813
 k-point 17 :   0.1250 0.1250 0.3750  plane waves:   19807
 k-point 18 :   0.3750 0.1250 0.3750  plane waves:   19835
 k-point 19 :  -0.3750 0.1250 0.3750  plane waves:   19835
 k-point 20 :  -0.1250 0.1250 0.3750  plane waves:   19807
 k-point 21 :   0.1250 0.3750 0.3750  plane waves:   19835
 k-point 22 :   0.3750 0.3750 0.3750  plane waves:   19837
 k-point 23 :  -0.3750 0.3750 0.3750  plane waves:   19837
 k-point 24 :  -0.1250 0.3750 0.3750  plane waves:   19834
 k-point 25 :   0.1250-0.3750 0.3750  plane waves:   19833
 k-point 26 :   0.3750-0.3750 0.3750  plane waves:   19837
 k-point 27 :  -0.3750-0.3750 0.3750  plane waves:   19837
 k-point 28 :  -0.1250-0.3750 0.3750  plane waves:   19833
 k-point 29 :   0.1250-0.1250 0.3750  plane waves:   19809
 k-point 30 :   0.3750-0.1250 0.3750  plane waves:   19833
 k-point 31 :  -0.3750-0.1250 0.3750  plane waves:   19833
 k-point 32 :  -0.1250-0.1250 0.3750  plane waves:   19809

 maximum and minimum number of plane-waves per node :      2507     2448

 maximum number of plane-waves:     19851
 maximum index in each direction: 
   IXMAX=   17   IYMAX=   17   IZMAX=   16
   IXMIN=  -17   IYMIN=  -17   IZMIN=  -16


 real space projection operators:
  total allocation   :      18167.42 KBytes
  max/ min on nodes  :       2412.55       1892.78


 parallel 3D FFT for wavefunctions:
    minimum data exchange during FFTs selected (reduces bandwidth)
 parallel 3D FFT for charge:
    minimum data exchange during FFTs selected (reduces bandwidth)


 total amount of memory used by VASP MPI-rank0   108019. kBytes
=======================================================================

   base      :      30000. kBytes
   nonlr-proj:       8423. kBytes
   fftplans  :       8425. kBytes
   grid      :       8783. kBytes
   one-center:        124. kBytes
   wavefun   :      52264. kBytes
 
     INWAV:  cpu time   30.4334: real time   32.2814
 Broyden mixing: mesh for mixing (old mesh)
   NGX = 33   NGY = 33   NGZ = 33
  (NGX  =140   NGY  =140   NGZ  =140)
  gives a total of  35937 points

 charge density for first step will be calculated from the start-wavefunctions


--------------------------------------------------------------------------------------------------------


 Maximum index for non-local projection operator         1339
 Maximum index for augmentation-charges         6992 (set IRDMAX)


--------------------------------------------------------------------------------------------------------


 initial charge from wavefunction
 First call to EWALD:  gamma=   0.228
 Maximum number of real-space cells 3x 3x 3
 Maximum number of reciprocal cells 3x 3x 3

    FEWALD:  cpu time    0.0030: real time    0.0033


--------------------------------------- Iteration      1(   1)  ---------------------------------------


    POTLOK:  cpu time    0.1490: real time    0.1670
    SETDIJ:  cpu time    0.8399: real time    0.8416
     EDDAV:  cpu time   27.8968: real time   27.9441
       DOS:  cpu time    0.0040: real time    0.0035
    CHARGE:  cpu time    1.1718: real time    1.1723
    MIXING:  cpu time    0.0030: real time    0.0024
    --------------------------------------------
      LOOP:  cpu time   30.0644: real time   30.1310

 eigenvalue-minimisations  : 20176
 total energy-change (2. order) :-0.2065859E+03  (-0.4483015E-03)
 number of electron     240.0000003 magnetization      -2.0000000
 augmentation part       62.0270052 magnetization      -0.7828596

 Broyden mixing:
  rms(total) = 0.52364E-03    rms(broyden)= 0.52316E-03
  rms(prec ) = 0.88908E-03
  weight for this iteration     100.00

 Free energy of the ion-electron system (eV)
  ---------------------------------------------------
  alpha Z        PSCENC =       742.52237565
  Ewald energy   TEWEN  =    -12579.50512733
  -Hartree energ DENC   =     -8404.86115416
  -exchange      EXHF   =         0.00000000
  -V(xc)+E(xc)   XCENC  =      1118.86710171
  PAW double counting   =     17967.37382296   -18087.62060717
  entropy T*S    EENTRO =        -0.00000000
  eigenvalues    EBANDS =     -3265.71548969
  atomic energy  EATOM  =     22302.35321627
  Solvation  Ediel_sol  =         0.00000000
  ---------------------------------------------------
  free energy    TOTEN  =      -206.58586175 eV

  energy without entropy =     -206.58586175  energy(sigma->0) =     -206.58586175


--------------------------------------------------------------------------------------------------------




--------------------------------------- Iteration      1(   2)  ---------------------------------------


    POTLOK:  cpu time    0.1840: real time    0.1969
    SETDIJ:  cpu time    0.8429: real time    0.8411
     EDDAV:  cpu time   27.1989: real time   27.2364
       DOS:  cpu time    0.0030: real time    0.0036
    --------------------------------------------
      LOOP:  cpu time   28.2287: real time   28.2780

 eigenvalue-minimisations  : 19304
 total energy-change (2. order) : 0.6068512E-07  (-0.3231832E-06)
 number of electron     240.0000003 magnetization      -2.0000000
 augmentation part       62.0270052 magnetization      -0.7828596

 Free energy of the ion-electron system (eV)
  ---------------------------------------------------
  alpha Z        PSCENC =       742.52237565
  Ewald energy   TEWEN  =    -12579.50512733
  -Hartree energ DENC   =     -8404.85036850
  -exchange      EXHF   =         0.00000000
  -V(xc)+E(xc)   XCENC  =      1118.86717505
  PAW double counting   =     17967.35255290   -18087.60010784
  entropy T*S    EENTRO =        -0.00000000
  eigenvalues    EBANDS =     -3265.72557789
  atomic energy  EATOM  =     22302.35321627
  Solvation  Ediel_sol  =         0.00000000
  ---------------------------------------------------
  free energy    TOTEN  =      -206.58586169 eV

  energy without entropy =     -206.58586169  energy(sigma->0) =     -206.58586169


--------------------------------------------------------------------------------------------------------




 average (electrostatic) potential at core
  the test charge radii are     1.0397  0.7215  0.7167
  (the norm of the test charge is              1.0000)
       1 -58.4704       2 -60.5671       3 -60.7821       4 -57.9753       5 -58.4868
       6 -57.6535       7 -58.1770       8 -57.4735       9 -72.5990      10 -72.5990
      11 -73.3608      12 -72.7154      13 -73.0296      14 -73.0235      15 -72.8187
      16 -72.8188      17 -79.9816      18 -79.9046      19 -80.1817      20 -79.9815
      21 -79.9043      22 -80.1817      23 -80.4650      24 -80.0040      25 -80.4625
      26 -79.9802      27 -79.0055      28 -79.0020      29 -80.6347      30 -80.6352
      31 -80.4532      32 -80.4555
 
 
 
 E-fermi :   0.5411     XC(G=0):  -8.8870     alpha+bet : -7.4929


 spin component 1

 k-point     1 :       0.1250    0.1250    0.1250
  band No.  band energies     occupation 
      1     -36.7413      1.00000
      2     -36.7234      1.00000
      3     -36.6844      1.00000
      4     -36.5881      1.00000
      5     -36.4755      1.00000
      6     -36.4550      1.00000
      7     -35.0511      1.00000
      8     -34.6169      1.00000
      9     -34.5402      1.00000
     10     -34.3284      1.00000
     11     -34.2822      1.00000
     12     -34.2382      1.00000
     13     -34.1670      1.00000
     14     -34.0238      1.00000
     15     -33.8035      1.00000
     16     -33.7368      1.00000
     17     -33.7173      1.00000
     18     -33.6939      1.00000
     19     -33.4881      1.00000
     20     -33.4597      1.00000
     21     -33.3914      1.00000
     22     -33.2413      1.00000
     23     -33.2325      1.00000
     24     -33.2213      1.00000
     25     -24.6121      1.00000
     26     -24.4631      1.00000
     27     -24.2388      1.00000
     28     -23.9952      1.00000
     29     -23.9615      1.00000
     30     -23.8689      1.00000
     31     -23.8594      1.00000
     32     -23.8284      1.00000
     33     -23.7496      1.00000
     34     -23.6809      1.00000
     35     -23.5223      1.00000
     36     -23.3687      1.00000
     37     -23.3600      1.00000
     38     -23.2215      1.00000
     39     -22.8371      1.00000
     40     -22.4234      1.00000
     41     -15.8398      1.00000
     42     -15.6651      1.00000
     43     -15.3285      1.00000
     44     -15.2037      1.00000
     45     -15.0411      1.00000
     46     -14.7821      1.00000
     47     -14.6470      1.00000
     48     -14.6153      1.00000
     49      -8.2134      1.00000
     50      -8.0295      1.00000
     51      -7.8232      1.00000
     52      -7.6596      1.00000
     53      -7.4209      1.00000
     54      -7.3398      1.00000
     55      -7.3274      1.00000
     56      -6.8185      1.00000
     57      -6.5701      1.00000
     58      -6.5662      1.00000
     59      -6.5454      1.00000
     60      -6.5127      1.00000
     61      -6.4077      1.00000
     62      -6.3604      1.00000
     63      -6.3096      1.00000
     64      -6.2406      1.00000
     65      -6.0821      1.00000
     66      -6.0545      1.00000
     67      -6.0015      1.00000
     68      -5.9468      1.00000
     69      -5.7976      1.00000
     70      -5.5782      1.00000
     71      -5.4333      1.00000
     72      -5.3375      1.00000
     73      -5.2723      1.00000
     74      -5.1787      1.00000
     75      -5.1209      1.00000
     76      -5.1011      1.00000
     77      -5.0314      1.00000
     78      -4.9816      1.00000
     79      -4.9715      1.00000
     80      -4.9380      1.00000
     81      -4.8719      1.00000
     82      -4.8415      1.00000
     83      -4.6951      1.00000
     84      -4.6794      1.00000
     85      -4.6400      1.00000
     86      -4.5781      1.00000
     87      -4.5656      1.00000
     88      -4.5342      1.00000
     89      -4.4952      1.00000
     90      -4.4288      1.00000
     91      -4.3882      1.00000
     92      -4.2209      1.00000
     93      -4.1836      1.00000
     94      -3.8943      1.00000
     95      -3.8458      1.00000
     96      -3.7479      1.00000
     97      -3.7098      1.00000
     98      -3.6563      1.00000
     99      -3.3402      1.00000
    100      -3.2035      1.00000
    101      -1.8428      1.00000
    102      -1.7057      1.00000
    103      -1.5952      1.00000
    104      -1.4013      1.00000
    105      -1.2582      1.00000
    106      -1.2392      1.00000
    107      -1.1357      1.00000
    108      -1.0701      1.00000
    109      -1.0301      1.00000
    110      -0.6529      1.00000
    111      -0.5473      1.00000
    112      -0.4110      1.00000
    113      -0.3128      1.00000
    114      -0.1005      1.00000
    115      -0.0047      1.00000
    116       0.0769      1.00000
    117       0.1351      1.00000
    118       0.2294      1.00000
    119       0.2540      1.00000
    120       0.9173      0.00000
    121       1.0827      0.00000
    122       1.1542      0.00000
    123       1.3217      0.00000
    124       1.3742      0.00000
    125       1.4981      0.00000
    126       1.5292      0.00000
    127       2.4439      0.00000
    128       2.5379      0.00000
    129       2.6152      0.00000
    130       2.7869      0.00000
    131       2.8207      0.00000
    132       2.9249      0.00000
    133       2.9857      0.00000
    134       3.0776      0.00000
    135       3.1173      0.00000
    136       3.2024      0.00000
    137       3.2484      0.00000
    138       3.2780      0.00000
    139       3.5112      0.00000
    140       3.6307      0.00000
    141       3.9536      0.00000
    142       4.0898      0.00000
    143       4.1548      0.00000
    144       4.1610      0.00000
    145       4.2329      0.00000
    146       4.4635      0.00000
    147       4.4820      0.00000
    148       4.5742      0.00000
    149       4.6306      0.00000
    150       4.9116      0.00000
    151       5.0391      0.00000
    152       5.0493      0.00000
    153       5.1562      0.00000
    154       5.2398      0.00000
    155       5.4591      0.00000
    156       5.4964      0.00000
    157       5.6722      0.00000
    158       6.2206      0.00000
    159       6.6010      0.00000
    160       7.2090      0.00000

 k-point     2 :       0.3750    0.1250    0.1250
  band No.  band energies     occupation 
      1     -36.7413      1.00000
      2     -36.7234      1.00000
      3     -36.6838      1.00000
      4     -36.5881      1.00000
      5     -36.4749      1.00000
      6     -36.4550      1.00000
      7     -35.0452      1.00000
      8     -34.6239      1.00000
      9     -34.5402      1.00000
     10     -34.3298      1.00000
     11     -34.2822      1.00000
     12     -34.2382      1.00000
     13     -34.1670      1.00000
     14     -34.0238      1.00000
     15     -33.8049      1.00000
     16     -33.7368      1.00000
     17     -33.7173      1.00000
     18     -33.6939      1.00000
     19     -33.4864      1.00000
     20     -33.4597      1.00000
     21     -33.3914      1.00000
     22     -33.2413      1.00000
     23     -33.2325      1.00000
     24     -33.2232      1.00000
     25     -24.6084      1.00000
     26     -24.4559      1.00000
     27     -24.2368      1.00000
     28     -23.9593      1.00000
     29     -23.9048      1.00000
     30     -23.8515      1.00000
     31     -23.8458      1.00000
     32     -23.7480      1.00000
     33     -23.7282      1.00000
     34     -23.6299      1.00000
     35     -23.6116      1.00000
     36     -23.4929      1.00000
     37     -23.3599      1.00000
     38     -23.3178      1.00000
     39     -22.8331      1.00000
     40     -22.4233      1.00000
     41     -15.8340      1.00000
     42     -15.6288      1.00000
     43     -15.2772      1.00000
     44     -15.2209      1.00000
     45     -15.0426      1.00000
     46     -14.7973      1.00000
     47     -14.7096      1.00000
     48     -14.6303      1.00000
     49      -8.2094      1.00000
     50      -8.0279      1.00000
     51      -7.8204      1.00000
     52      -7.4124      1.00000
     53      -7.3280      1.00000
     54      -7.0407      1.00000
     55      -6.9700      1.00000
     56      -6.8184      1.00000
     57      -6.5786      1.00000
     58      -6.5719      1.00000
     59      -6.5473      1.00000
     60      -6.5335      1.00000
     61      -6.4751      1.00000
     62      -6.4007      1.00000
     63      -6.3239      1.00000
     64      -6.3118      1.00000
     65      -6.3004      1.00000
     66      -6.1602      1.00000
     67      -6.0836      1.00000
     68      -6.0056      1.00000
     69      -5.9055      1.00000
     70      -5.6317      1.00000
     71      -5.4692      1.00000
     72      -5.4144      1.00000
     73      -5.3879      1.00000
     74      -5.2859      1.00000
     75      -5.2047      1.00000
     76      -5.0665      1.00000
     77      -5.0628      1.00000
     78      -5.0340      1.00000
     79      -5.0006      1.00000
     80      -4.9358      1.00000
     81      -4.9127      1.00000
     82      -4.8999      1.00000
     83      -4.7185      1.00000
     84      -4.6856      1.00000
     85      -4.6520      1.00000
     86      -4.6165      1.00000
     87      -4.6015      1.00000
     88      -4.4734      1.00000
     89      -4.4262      1.00000
     90      -4.3980      1.00000
     91      -4.2622      1.00000
     92      -4.2217      1.00000
     93      -4.1365      1.00000
     94      -3.9342      1.00000
     95      -3.8373      1.00000
     96      -3.7615      1.00000
     97      -3.7452      1.00000
     98      -3.6154      1.00000
     99      -3.2902      1.00000
    100      -2.8487      1.00000
    101      -1.8437      1.00000
    102      -1.5433      1.00000
    103      -1.5001      1.00000
    104      -1.4331      1.00000
    105      -1.3966      1.00000
    106      -1.2782      1.00000
    107      -1.2083      1.00000
    108      -1.1060      1.00000
    109      -1.0624      1.00000
    110      -0.7317      1.00000
    111      -0.6971      1.00000
    112      -0.5808      1.00000
    113      -0.4180      1.00000
    114      -0.3761      1.00000
    115      -0.1068      1.00000
    116       0.1158      1.00000
    117       0.1718      1.00000
    118       0.2434      1.00000
    119       0.3507      1.00000
    120       0.9154      0.00000
    121       1.0826      0.00000
    122       1.2195      0.00000
    123       1.3715      0.00000
    124       1.4354      0.00000
    125       1.4979      0.00000
    126       1.5770      0.00000
    127       2.4805      0.00000
    128       2.6159      0.00000
    129       2.7575      0.00000
    130       2.8683      0.00000
    131       2.9816      0.00000
    132       3.0160      0.00000
    133       3.0332      0.00000
    134       3.1345      0.00000
    135       3.2015      0.00000
    136       3.2458      0.00000
    137       3.3176      0.00000
    138       3.4002      0.00000
    139       3.5233      0.00000
    140       3.7751      0.00000
    141       3.9560      0.00000
    142       4.0694      0.00000
    143       4.0856      0.00000
    144       4.1544      0.00000
    145       4.3409      0.00000
    146       4.4513      0.00000
    147       4.5795      0.00000
    148       4.6358      0.00000
    149       4.7089      0.00000
    150       4.8784      0.00000
    151       4.8959      0.00000
    152       4.9735      0.00000
    153       5.0892      0.00000
    154       5.2407      0.00000
    155       5.4135      0.00000
    156       5.5458      0.00000
    157       5.6411      0.00000
    158       6.1541      0.00000
    159       6.6002      0.00000
    160       6.7973      0.00000

 k-point     3 :      -0.3750    0.1250    0.1250
  band No.  band energies     occupation 
      1     -36.7413      1.00000
      2     -36.7234      1.00000
      3     -36.6838      1.00000
      4     -36.5881      1.00000
      5     -36.4749      1.00000
      6     -36.4550      1.00000
      7     -35.0452      1.00000
      8     -34.6239      1.00000
      9     -34.5402      1.00000
     10     -34.3298      1.00000
     11     -34.2822      1.00000
     12     -34.2382      1.00000
     13     -34.1670      1.00000
     14     -34.0238      1.00000
     15     -33.8049      1.00000
     16     -33.7368      1.00000
     17     -33.7173      1.00000
     18     -33.6939      1.00000
     19     -33.4864      1.00000
     20     -33.4597      1.00000
     21     -33.3914      1.00000
     22     -33.2413      1.00000
     23     -33.2325      1.00000
     24     -33.2232      1.00000
     25     -24.6084      1.00000
     26     -24.4559      1.00000
     27     -24.2368      1.00000
     28     -23.9593      1.00000
     29     -23.9048      1.00000
     30     -23.8515      1.00000
     31     -23.8458      1.00000
     32     -23.7480      1.00000
     33     -23.7282      1.00000
     34     -23.6299      1.00000
     35     -23.6116      1.00000
     36     -23.4929      1.00000
     37     -23.3599      1.00000
     38     -23.3178      1.00000
     39     -22.8331      1.00000
     40     -22.4233      1.00000
     41     -15.8340      1.00000
     42     -15.6288      1.00000
     43     -15.2772      1.00000
     44     -15.2209      1.00000
     45     -15.0426      1.00000
     46     -14.7973      1.00000
     47     -14.7096      1.00000
     48     -14.6303      1.00000
     49      -8.2094      1.00000
     50      -8.0279      1.00000
     51      -7.8204      1.00000
     52      -7.4124      1.00000
     53      -7.3280      1.00000
     54      -7.0407      1.00000
     55      -6.9700      1.00000
     56      -6.8184      1.00000
     57      -6.5786      1.00000
     58      -6.5719      1.00000
     59      -6.5473      1.00000
     60      -6.5335      1.00000
     61      -6.4751      1.00000
     62      -6.4007      1.00000
     63      -6.3239      1.00000
     64      -6.3117      1.00000
     65      -6.3004      1.00000
     66      -6.1602      1.00000
     67      -6.0836      1.00000
     68      -6.0056      1.00000
     69      -5.9055      1.00000
     70      -5.6317      1.00000
     71      -5.4692      1.00000
     72      -5.4144      1.00000
     73      -5.3879      1.00000
     74      -5.2859      1.00000
     75      -5.2047      1.00000
     76      -5.0665      1.00000
     77      -5.0628      1.00000
     78      -5.0340      1.00000
     79      -5.0006      1.00000
     80      -4.9358      1.00000
     81      -4.9127      1.00000
     82      -4.8999      1.00000
     83      -4.7185      1.00000
     84      -4.6856      1.00000
     85      -4.6520      1.00000
     86      -4.6165      1.00000
     87      -4.6015      1.00000
     88      -4.4734      1.00000
     89      -4.4262      1.00000
     90      -4.3980      1.00000
     91      -4.2622      1.00000
     92      -4.2217      1.00000
     93      -4.1365      1.00000
     94      -3.9342      1.00000
     95      -3.8373      1.00000
     96      -3.7615      1.00000
     97      -3.7452      1.00000
     98      -3.6154      1.00000
     99      -3.2902      1.00000
    100      -2.8487      1.00000
    101      -1.8437      1.00000
    102      -1.5433      1.00000
    103      -1.5001      1.00000
    104      -1.4331      1.00000
    105      -1.3966      1.00000
    106      -1.2782      1.00000
    107      -1.2083      1.00000
    108      -1.1060      1.00000
    109      -1.0624      1.00000
    110      -0.7317      1.00000
    111      -0.6971      1.00000
    112      -0.5808      1.00000
    113      -0.4179      1.00000
    114      -0.3761      1.00000
    115      -0.1068      1.00000
    116       0.1158      1.00000
    117       0.1718      1.00000
    118       0.2434      1.00000
    119       0.3507      1.00000
    120       0.9154      0.00000
    121       1.0826      0.00000
    122       1.2195      0.00000
    123       1.3715      0.00000
    124       1.4354      0.00000
    125       1.4979      0.00000
    126       1.5770      0.00000
    127       2.4805      0.00000
    128       2.6159      0.00000
    129       2.7575      0.00000
    130       2.8683      0.00000
    131       2.9816      0.00000
    132       3.0160      0.00000
    133       3.0332      0.00000
    134       3.1345      0.00000
    135       3.2015      0.00000
    136       3.2458      0.00000
    137       3.3176      0.00000
    138       3.4002      0.00000
    139       3.5233      0.00000
    140       3.7751      0.00000
    141       3.9560      0.00000
    142       4.0694      0.00000
    143       4.0856      0.00000
    144       4.1544      0.00000
    145       4.3409      0.00000
    146       4.4513      0.00000
    147       4.5795      0.00000
    148       4.6358      0.00000
    149       4.7089      0.00000
    150       4.8784      0.00000
    151       4.8959      0.00000
    152       4.9735      0.00000
    153       5.0892      0.00000
    154       5.2407      0.00000
    155       5.4135      0.00000
    156       5.5458      0.00000
    157       5.6411      0.00000
    158       6.1541      0.00000
    159       6.6002      0.00000
    160       6.7973      0.00000

 k-point     4 :      -0.1250    0.1250    0.1250
  band No.  band energies     occupation 
      1     -36.7413      1.00000
      2     -36.7234      1.00000
      3     -36.6844      1.00000
      4     -36.5881      1.00000
      5     -36.4755      1.00000
      6     -36.4550      1.00000
      7     -35.0511      1.00000
      8     -34.6169      1.00000
      9     -34.5402      1.00000
     10     -34.3284      1.00000
     11     -34.2822      1.00000
     12     -34.2382      1.00000
     13     -34.1670      1.00000
     14     -34.0238      1.00000
     15     -33.8035      1.00000
     16     -33.7368      1.00000
     17     -33.7173      1.00000
     18     -33.6939      1.00000
     19     -33.4881      1.00000
     20     -33.4597      1.00000
     21     -33.3914      1.00000
     22     -33.2413      1.00000
     23     -33.2325      1.00000
     24     -33.2213      1.00000
     25     -24.6121      1.00000
     26     -24.4631      1.00000
     27     -24.2388      1.00000
     28     -23.9952      1.00000
     29     -23.9615      1.00000
     30     -23.8689      1.00000
     31     -23.8594      1.00000
     32     -23.8284      1.00000
     33     -23.7496      1.00000
     34     -23.6809      1.00000
     35     -23.5223      1.00000
     36     -23.3687      1.00000
     37     -23.3600      1.00000
     38     -23.2215      1.00000
     39     -22.8371      1.00000
     40     -22.4234      1.00000
     41     -15.8398      1.00000
     42     -15.6651      1.00000
     43     -15.3285      1.00000
     44     -15.2037      1.00000
     45     -15.0411      1.00000
     46     -14.7821      1.00000
     47     -14.6470      1.00000
     48     -14.6153      1.00000
     49      -8.2134      1.00000
     50      -8.0295      1.00000
     51      -7.8232      1.00000
     52      -7.6596      1.00000
     53      -7.4209      1.00000
     54      -7.3398      1.00000
     55      -7.3274      1.00000
     56      -6.8185      1.00000
     57      -6.5701      1.00000
     58      -6.5662      1.00000
     59      -6.5454      1.00000
     60      -6.5127      1.00000
     61      -6.4077      1.00000
     62      -6.3604      1.00000
     63      -6.3096      1.00000
     64      -6.2406      1.00000
     65      -6.0821      1.00000
     66      -6.0545      1.00000
     67      -6.0015      1.00000
     68      -5.9468      1.00000
     69      -5.7976      1.00000
     70      -5.5782      1.00000
     71      -5.4333      1.00000
     72      -5.3375      1.00000
     73      -5.2723      1.00000
     74      -5.1787      1.00000
     75      -5.1209      1.00000
     76      -5.1011      1.00000
     77      -5.0314      1.00000
     78      -4.9816      1.00000
     79      -4.9715      1.00000
     80      -4.9380      1.00000
     81      -4.8719      1.00000
     82      -4.8415      1.00000
     83      -4.6951      1.00000
     84      -4.6794      1.00000
     85      -4.6400      1.00000
     86      -4.5781      1.00000
     87      -4.5656      1.00000
     88      -4.5342      1.00000
     89      -4.4952      1.00000
     90      -4.4288      1.00000
     91      -4.3882      1.00000
     92      -4.2209      1.00000
     93      -4.1836      1.00000
     94      -3.8943      1.00000
     95      -3.8458      1.00000
     96      -3.7479      1.00000
     97      -3.7098      1.00000
     98      -3.6563      1.00000
     99      -3.3402      1.00000
    100      -3.2035      1.00000
    101      -1.8428      1.00000
    102      -1.7057      1.00000
    103      -1.5952      1.00000
    104      -1.4013      1.00000
    105      -1.2582      1.00000
    106      -1.2392      1.00000
    107      -1.1357      1.00000
    108      -1.0701      1.00000
    109      -1.0301      1.00000
    110      -0.6529      1.00000
    111      -0.5473      1.00000
    112      -0.4110      1.00000
    113      -0.3128      1.00000
    114      -0.1005      1.00000
    115      -0.0047      1.00000
    116       0.0769      1.00000
    117       0.1351      1.00000
    118       0.2294      1.00000
    119       0.2540      1.00000
    120       0.9173      0.00000
    121       1.0827      0.00000
    122       1.1542      0.00000
    123       1.3217      0.00000
    124       1.3742      0.00000
    125       1.4981      0.00000
    126       1.5292      0.00000
    127       2.4439      0.00000
    128       2.5379      0.00000
    129       2.6152      0.00000
    130       2.7869      0.00000
    131       2.8207      0.00000
    132       2.9249      0.00000
    133       2.9857      0.00000
    134       3.0776      0.00000
    135       3.1173      0.00000
    136       3.2024      0.00000
    137       3.2484      0.00000
    138       3.2780      0.00000
    139       3.5112      0.00000
    140       3.6307      0.00000
    141       3.9536      0.00000
    142       4.0898      0.00000
    143       4.1548      0.00000
    144       4.1610      0.00000
    145       4.2329      0.00000
    146       4.4635      0.00000
    147       4.4820      0.00000
    148       4.5742      0.00000
    149       4.6306      0.00000
    150       4.9116      0.00000
    151       5.0391      0.00000
    152       5.0493      0.00000
    153       5.1562      0.00000
    154       5.2398      0.00000
    155       5.4591      0.00000
    156       5.4964      0.00000
    157       5.6722      0.00000
    158       6.2206      0.00000
    159       6.6010      0.00000
    160       7.2090      0.00000

 k-point     5 :       0.1250    0.3750    0.1250
  band No.  band energies     occupation 
      1     -36.7408      1.00000
      2     -36.7234      1.00000
      3     -36.6844      1.00000
      4     -36.5881      1.00000
      5     -36.4755      1.00000
      6     -36.4544      1.00000
      7     -35.0511      1.00000
      8     -34.6169      1.00000
      9     -34.5330      1.00000
     10     -34.3284      1.00000
     11     -34.2902      1.00000
     12     -34.2382      1.00000
     13     -34.1683      1.00000
     14     -34.0238      1.00000
     15     -33.8035      1.00000
     16     -33.7368      1.00000
     17     -33.7173      1.00000
     18     -33.6954      1.00000
     19     -33.4881      1.00000
     20     -33.4597      1.00000
     21     -33.3887      1.00000
     22     -33.2441      1.00000
     23     -33.2325      1.00000
     24     -33.2213      1.00000
     25     -24.5939      1.00000
     26     -24.4466      1.00000
     27     -24.1661      1.00000
     28     -24.0141      1.00000
     29     -23.9690      1.00000
     30     -23.9439      1.00000
     31     -23.8285      1.00000
     32     -23.8140      1.00000
     33     -23.7507      1.00000
     34     -23.6450      1.00000
     35     -23.5221      1.00000
     36     -23.4549      1.00000
     37     -23.3686      1.00000
     38     -23.2215      1.00000
     39     -22.7196      1.00000
     40     -22.5474      1.00000
     41     -15.8135      1.00000
     42     -15.6644      1.00000
     43     -15.3217      1.00000
     44     -15.1537      1.00000
     45     -15.0394      1.00000
     46     -14.8022      1.00000
     47     -14.7294      1.00000
     48     -14.6156      1.00000
     49      -8.1807      1.00000
     50      -8.0180      1.00000
     51      -7.6578      1.00000
     52      -7.5366      1.00000
     53      -7.3570      1.00000
     54      -7.3301      1.00000
     55      -7.1116      1.00000
     56      -6.8437      1.00000
     57      -6.6517      1.00000
     58      -6.5662      1.00000
     59      -6.5447      1.00000
     60      -6.4006      1.00000
     61      -6.3955      1.00000
     62      -6.3617      1.00000
     63      -6.3329      1.00000
     64      -6.2924      1.00000
     65      -6.2410      1.00000
     66      -6.0603      1.00000
     67      -6.0350      1.00000
     68      -5.8959      1.00000
     69      -5.8182      1.00000
     70      -5.7690      1.00000
     71      -5.5256      1.00000
     72      -5.5057      1.00000
     73      -5.3378      1.00000
     74      -5.2594      1.00000
     75      -5.1152      1.00000
     76      -5.0920      1.00000
     77      -5.0018      1.00000
     78      -4.9653      1.00000
     79      -4.9093      1.00000
     80      -4.8898      1.00000
     81      -4.8606      1.00000
     82      -4.8230      1.00000
     83      -4.7895      1.00000
     84      -4.6525      1.00000
     85      -4.6315      1.00000
     86      -4.6184      1.00000
     87      -4.6016      1.00000
     88      -4.5496      1.00000
     89      -4.5338      1.00000
     90      -4.3931      1.00000
     91      -4.3446      1.00000
     92      -4.2514      1.00000
     93      -4.1053      1.00000
     94      -3.9798      1.00000
     95      -3.8867      1.00000
     96      -3.8138      1.00000
     97      -3.7839      1.00000
     98      -3.6371      1.00000
     99      -3.2811      1.00000
    100      -2.7820      1.00000
    101      -1.8381      1.00000
    102      -1.7909      1.00000
    103      -1.7042      1.00000
    104      -1.5244      1.00000
    105      -1.4826      1.00000
    106      -1.2353      1.00000
    107      -1.1540      1.00000
    108      -1.0118      1.00000
    109      -0.8583      1.00000
    110      -0.6511      1.00000
    111      -0.4852      1.00000
    112      -0.4280      1.00000
    113      -0.3599      1.00000
    114      -0.2133      1.00000
    115      -0.1289      1.00000
    116      -0.0758      1.00000
    117       0.0857      1.00000
    118       0.2162      1.00000
    119       0.2581      1.00000
    120       0.8472      0.00000
    121       1.1927      0.00000
    122       1.2128      0.00000
    123       1.3218      0.00000
    124       1.3740      0.00000
    125       1.4566      0.00000
    126       1.5712      0.00000
    127       2.5852      0.00000
    128       2.6898      0.00000
    129       2.7730      0.00000
    130       2.8187      0.00000
    131       2.8267      0.00000
    132       3.1098      0.00000
    133       3.1211      0.00000
    134       3.1543      0.00000
    135       3.1874      0.00000
    136       3.2495      0.00000
    137       3.3188      0.00000
    138       3.3512      0.00000
    139       3.5104      0.00000
    140       3.6918      0.00000
    141       3.7555      0.00000
    142       4.1168      0.00000
    143       4.1272      0.00000
    144       4.1658      0.00000
    145       4.4040      0.00000
    146       4.4813      0.00000
    147       4.6269      0.00000
    148       4.6814      0.00000
    149       4.7720      0.00000
    150       4.8764      0.00000
    151       5.0441      0.00000
    152       5.0472      0.00000
    153       5.0716      0.00000
    154       5.0837      0.00000
    155       5.2030      0.00000
    156       5.4509      0.00000
    157       5.7484      0.00000
    158       6.1416      0.00000
    159       6.5547      0.00000
    160       6.9902      0.00000

 k-point     6 :       0.3750    0.3750    0.1250
  band No.  band energies     occupation 
      1     -36.7408      1.00000
      2     -36.7234      1.00000
      3     -36.6838      1.00000
      4     -36.5881      1.00000
      5     -36.4749      1.00000
      6     -36.4544      1.00000
      7     -35.0452      1.00000
      8     -34.6239      1.00000
      9     -34.5330      1.00000
     10     -34.3299      1.00000
     11     -34.2902      1.00000
     12     -34.2382      1.00000
     13     -34.1683      1.00000
     14     -34.0238      1.00000
     15     -33.8049      1.00000
     16     -33.7368      1.00000
     17     -33.7173      1.00000
     18     -33.6954      1.00000
     19     -33.4864      1.00000
     20     -33.4597      1.00000
     21     -33.3887      1.00000
     22     -33.2441      1.00000
     23     -33.2325      1.00000
     24     -33.2232      1.00000
     25     -24.5908      1.00000
     26     -24.4385      1.00000
     27     -24.1615      1.00000
     28     -23.9911      1.00000
     29     -23.9469      1.00000
     30     -23.8897      1.00000
     31     -23.7829      1.00000
     32     -23.7490      1.00000
     33     -23.7215      1.00000
     34     -23.6290      1.00000
     35     -23.5933      1.00000
     36     -23.4921      1.00000
     37     -23.4543      1.00000
     38     -23.3178      1.00000
     39     -22.7172      1.00000
     40     -22.5465      1.00000
     41     -15.8118      1.00000
     42     -15.6234      1.00000
     43     -15.2647      1.00000
     44     -15.1683      1.00000
     45     -15.0431      1.00000
     46     -14.8435      1.00000
     47     -14.7469      1.00000
     48     -14.6562      1.00000
     49      -8.1777      1.00000
     50      -8.0164      1.00000
     51      -7.5337      1.00000
     52      -7.3266      1.00000
     53      -7.1345      1.00000
     54      -7.0277      1.00000
     55      -6.9897      1.00000
     56      -6.8316      1.00000
     57      -6.6521      1.00000
     58      -6.5567      1.00000
     59      -6.5466      1.00000
     60      -6.5350      1.00000
     61      -6.4611      1.00000
     62      -6.4025      1.00000
     63      -6.3363      1.00000
     64      -6.3174      1.00000
     65      -6.2942      1.00000
     66      -6.2338      1.00000
     67      -6.1584      1.00000
     68      -6.0060      1.00000
     69      -5.8608      1.00000
     70      -5.7717      1.00000
     71      -5.5495      1.00000
     72      -5.4537      1.00000
     73      -5.3955      1.00000
     74      -5.3167      1.00000
     75      -5.2367      1.00000
     76      -5.1470      1.00000
     77      -5.1206      1.00000
     78      -5.0790      1.00000
     79      -5.0411      1.00000
     80      -4.9946      1.00000
     81      -4.9235      1.00000
     82      -4.8726      1.00000
     83      -4.7985      1.00000
     84      -4.7056      1.00000
     85      -4.6523      1.00000
     86      -4.5868      1.00000
     87      -4.5582      1.00000
     88      -4.4822      1.00000
     89      -4.4528      1.00000
     90      -4.3511      1.00000
     91      -4.2880      1.00000
     92      -4.2295      1.00000
     93      -4.0539      1.00000
     94      -3.9760      1.00000
     95      -3.8748      1.00000
     96      -3.8086      1.00000
     97      -3.7892      1.00000
     98      -3.6009      1.00000
     99      -2.8716      1.00000
    100      -2.7776      1.00000
    101      -1.8481      1.00000
    102      -1.7932      1.00000
    103      -1.5455      1.00000
    104      -1.5269      1.00000
    105      -1.4958      1.00000
    106      -1.3797      1.00000
    107      -1.2039      1.00000
    108      -1.0551      1.00000
    109      -0.9055      1.00000
    110      -0.7326      1.00000
    111      -0.6586      1.00000
    112      -0.5594      1.00000
    113      -0.4666      1.00000
    114      -0.3853      1.00000
    115      -0.2797      1.00000
    116      -0.1473      1.00000
    117       0.1656      1.00000
    118       0.2151      1.00000
    119       0.4932      1.00000
    120       0.8450      0.00000
    121       1.1926      0.00000
    122       1.2576      0.00000
    123       1.3714      0.00000
    124       1.4353      0.00000
    125       1.4561      0.00000
    126       1.5570      0.00000
    127       2.7429      0.00000
    128       2.7961      0.00000
    129       2.8674      0.00000
    130       2.9148      0.00000
    131       3.0172      0.00000
    132       3.1059      0.00000
    133       3.1335      0.00000
    134       3.1547      0.00000
    135       3.2072      0.00000
    136       3.3071      0.00000
    137       3.3269      0.00000
    138       3.4800      0.00000
    139       3.7452      0.00000
    140       3.7700      0.00000
    141       4.0542      0.00000
    142       4.0696      0.00000
    143       4.1169      0.00000
    144       4.1395      0.00000
    145       4.3875      0.00000
    146       4.4507      0.00000
    147       4.6224      0.00000
    148       4.6509      0.00000
    149       4.7089      0.00000
    150       4.7887      0.00000
    151       4.8338      0.00000
    152       4.8892      0.00000
    153       5.0550      0.00000
    154       5.0870      0.00000
    155       5.3305      0.00000
    156       5.5316      0.00000
    157       5.7718      0.00000
    158       6.1894      0.00000
    159       6.6222      0.00000
    160       6.7731      0.00000

 k-point     7 :      -0.3750    0.3750    0.1250
  band No.  band energies     occupation 
      1     -36.7408      1.00000
      2     -36.7234      1.00000
      3     -36.6838      1.00000
      4     -36.5881      1.00000
      5     -36.4749      1.00000
      6     -36.4544      1.00000
      7     -35.0452      1.00000
      8     -34.6239      1.00000
      9     -34.5330      1.00000
     10     -34.3299      1.00000
     11     -34.2902      1.00000
     12     -34.2382      1.00000
     13     -34.1683      1.00000
     14     -34.0238      1.00000
     15     -33.8049      1.00000
     16     -33.7368      1.00000
     17     -33.7173      1.00000
     18     -33.6954      1.00000
     19     -33.4864      1.00000
     20     -33.4597      1.00000
     21     -33.3887      1.00000
     22     -33.2441      1.00000
     23     -33.2325      1.00000
     24     -33.2232      1.00000
     25     -24.5908      1.00000
     26     -24.4385      1.00000
     27     -24.1615      1.00000
     28     -23.9911      1.00000
     29     -23.9469      1.00000
     30     -23.8897      1.00000
     31     -23.7829      1.00000
     32     -23.7490      1.00000
     33     -23.7215      1.00000
     34     -23.6290      1.00000
     35     -23.5933      1.00000
     36     -23.4921      1.00000
     37     -23.4543      1.00000
     38     -23.3178      1.00000
     39     -22.7172      1.00000
     40     -22.5465      1.00000
     41     -15.8118      1.00000
     42     -15.6234      1.00000
     43     -15.2647      1.00000
     44     -15.1683      1.00000
     45     -15.0431      1.00000
     46     -14.8435      1.00000
     47     -14.7469      1.00000
     48     -14.6562      1.00000
     49      -8.1777      1.00000
     50      -8.0164      1.00000
     51      -7.5337      1.00000
     52      -7.3266      1.00000
     53      -7.1345      1.00000
     54      -7.0277      1.00000
     55      -6.9897      1.00000
     56      -6.8316      1.00000
     57      -6.6521      1.00000
     58      -6.5567      1.00000
     59      -6.5466      1.00000
     60      -6.5350      1.00000
     61      -6.4611      1.00000
     62      -6.4025      1.00000
     63      -6.3363      1.00000
     64      -6.3174      1.00000
     65      -6.2942      1.00000
     66      -6.2338      1.00000
     67      -6.1584      1.00000
     68      -6.0060      1.00000
     69      -5.8608      1.00000
     70      -5.7717      1.00000
     71      -5.5495      1.00000
     72      -5.4537      1.00000
     73      -5.3955      1.00000
     74      -5.3167      1.00000
     75      -5.2367      1.00000
     76      -5.1470      1.00000
     77      -5.1206      1.00000
     78      -5.0790      1.00000
     79      -5.0411      1.00000
     80      -4.9946      1.00000
     81      -4.9235      1.00000
     82      -4.8726      1.00000
     83      -4.7985      1.00000
     84      -4.7056      1.00000
     85      -4.6523      1.00000
     86      -4.5868      1.00000
     87      -4.5582      1.00000
     88      -4.4822      1.00000
     89      -4.4528      1.00000
     90      -4.3511      1.00000
     91      -4.2880      1.00000
     92      -4.2295      1.00000
     93      -4.0539      1.00000
     94      -3.9760      1.00000
     95      -3.8748      1.00000
     96      -3.8086      1.00000
     97      -3.7892      1.00000
     98      -3.6009      1.00000
     99      -2.8716      1.00000
    100      -2.7776      1.00000
    101      -1.8481      1.00000
    102      -1.7932      1.00000
    103      -1.5455      1.00000
    104      -1.5269      1.00000
    105      -1.4958      1.00000
    106      -1.3797      1.00000
    107      -1.2039      1.00000
    108      -1.0551      1.00000
    109      -0.9055      1.00000
    110      -0.7326      1.00000
    111      -0.6586      1.00000
    112      -0.5594      1.00000
    113      -0.4666      1.00000
    114      -0.3853      1.00000
    115      -0.2797      1.00000
    116      -0.1473      1.00000
    117       0.1656      1.00000
    118       0.2151      1.00000
    119       0.4932      1.00000
    120       0.8450      0.00000
    121       1.1926      0.00000
    122       1.2576      0.00000
    123       1.3714      0.00000
    124       1.4353      0.00000
    125       1.4561      0.00000
    126       1.5570      0.00000
    127       2.7429      0.00000
[...]
 -0.000  -0.000  -0.000  -0.000  -0.000  -0.000  -0.000  -0.000   0.000  -0.012  -0.000  -0.000  -0.000  -0.000   0.003   0.000
  0.000  -0.000  -0.000   0.000  -0.000  -0.000   0.000  -0.000   0.004  -0.000  -0.016   0.000  -0.000   0.001   0.000   0.002
  0.000  -0.000  -0.000   0.000  -0.000   0.000   0.003   0.000  -0.000  -0.000   0.000   0.006   0.000   0.000   0.000  -0.000
  0.000   0.000  -0.000   0.000   0.001  -0.000   0.000  -0.572   0.000  -0.000  -0.000   0.000  -0.427   0.000  -0.000  -0.000
 -0.000  -0.000   0.000  -0.000  -0.000   0.000   0.000   0.000   0.003  -0.000   0.001   0.000   0.000   0.017  -0.000  -0.009
  0.000   0.000  -0.000  -0.000   0.000  -0.000  -0.000  -0.000  -0.000   0.003   0.000   0.000  -0.000  -0.000   0.007   0.000
  0.000   0.000  -0.000   0.000  -0.000  -0.000   0.000  -0.000   0.001   0.000   0.002  -0.000  -0.000  -0.009   0.000   0.026
  0.000   0.000  -0.000  -0.000  -0.000   0.000  -0.000   0.000  -0.005   0.000   0.007   0.000   0.000   0.015  -0.000  -0.025
 -0.000  -0.000   0.000  -0.000  -0.000   0.000  -0.000  -0.000  -0.015   0.000   0.023   0.000  -0.000   0.023  -0.000  -0.033


------------------------ aborting loop because EDIFF is reached ----------------------------------------


 


 total charge     
 
# of ion       s       p       d       tot
------------------------------------------
    1        0.241   6.345   1.845   8.430
    2        0.328   6.521   1.748   8.596
    3        0.326   6.518   1.743   8.587
    4        0.285   6.462   1.833   8.580
    5        0.296   6.457   1.747   8.499
    6        0.298   6.439   1.744   8.481
    7        0.290   6.457   1.779   8.525
    8        0.295   6.407   1.603   8.306
    9        1.566   3.401   0.000   4.967
   10        1.566   3.401   0.000   4.967
   11        1.577   3.272   0.000   4.849
   12        1.568   3.431   0.000   4.999
   13        1.566   3.413   0.000   4.979
   14        1.566   3.412   0.000   4.978
   15        1.568   3.406   0.000   4.974
   16        1.568   3.406   0.000   4.975
   17        1.731   4.395   0.000   6.126
   18        1.733   4.377   0.000   6.111
   19        1.733   4.381   0.000   6.114
   20        1.731   4.395   0.000   6.126
   21        1.733   4.377   0.000   6.111
   22        1.733   4.381   0.000   6.114
   23        1.729   4.388   0.000   6.118
   24        1.731   4.380   0.000   6.111
   25        1.729   4.388   0.000   6.118
   26        1.732   4.381   0.000   6.112
   27        1.730   4.389   0.000   6.119
   28        1.729   4.384   0.000   6.113
   29        1.732   4.404   0.000   6.135
   30        1.732   4.404   0.000   6.135
   31        1.734   4.393   0.000   6.127
   32        1.734   4.393   0.000   6.127
--------------------------------------------------
tot         42.610 148.959  14.041 205.611
 


 magnetization (x)
 
# of ion       s       p       d       tot
------------------------------------------
    1       -0.004  -0.006  -0.911  -0.922
    2        0.000   0.000  -0.015  -0.015
    3        0.000   0.000  -0.015  -0.015
    4       -0.000  -0.000   0.004   0.004
    5        0.000  -0.002   0.002  -0.000
    6        0.002   0.004   0.037   0.043
    7        0.000  -0.002   0.006   0.004
    8        0.002   0.003   0.036   0.042
    9       -0.000  -0.003   0.000  -0.003
   10       -0.000  -0.003   0.000  -0.003
   11       -0.008  -0.566   0.000  -0.575
   12        0.000  -0.007   0.000  -0.007
   13       -0.002  -0.073   0.000  -0.074
   14       -0.002  -0.075   0.000  -0.077
   15       -0.001  -0.075   0.000  -0.077
   16       -0.001  -0.074   0.000  -0.076
   17        0.000   0.010   0.000   0.011
   18        0.000  -0.000   0.000   0.000
   19        0.000   0.000   0.000   0.000
   20        0.000   0.010   0.000   0.011
   21        0.000  -0.000   0.000   0.000
   22        0.000   0.000   0.000   0.000
   23        0.000  -0.001   0.000  -0.001
   24       -0.000  -0.001   0.000  -0.001
   25        0.000  -0.001   0.000  -0.001
   26       -0.000  -0.001   0.000  -0.001
   27       -0.000  -0.005   0.000  -0.005
   28       -0.000  -0.007   0.000  -0.007
   29        0.000  -0.002   0.000  -0.002
   30        0.000  -0.002   0.000  -0.002
   31       -0.000  -0.000   0.000  -0.000
   32       -0.000  -0.000   0.000  -0.000
--------------------------------------------------
tot         -0.013  -0.879  -0.856  -1.748
 
    CHARGE:  cpu time    1.1888: real time    1.1880
    FORLOC:  cpu time    0.0100: real time    0.0099
    FORNL :  cpu time    6.7880: real time    6.7785
    STRESS:  cpu time   20.5529: real time   20.5076
    FORCOR:  cpu time    0.2390: real time    0.2384
    FORHAR:  cpu time    0.0210: real time    0.0212
    MIXING:  cpu time    0.0010: real time    0.0015
    OFIELD:  cpu time    0.0000: real time    0.0000

  FORCE on cell =-STRESS in cart. coord.  units (eV):
  Direction    XX          YY          ZZ          XY          YZ          ZX
  --------------------------------------------------------------------------------------
  Alpha Z   742.52238   742.52238   742.52238
  Ewald   -4236.47352 -4269.18508 -4073.90283    -0.00258     0.98527    -0.00802
  Hartree  2760.07994  2765.45870  2879.32912    -0.00122     0.50841    -0.00508
  E(xc)   -1231.29373 -1231.40445 -1231.71647    -0.00000     0.00006     0.00000
  Local   -2170.02156 -2146.68943 -2479.42642     0.00350    -1.51417     0.01299
  n-local  -970.22840  -972.39202  -963.76452    -0.00003    -0.00323    -0.00021
  augment   749.00345   753.35415   763.79440     0.00012     0.00892    -0.00006
  Kinetic  4356.39720  4358.30939  4363.16200     0.00027     0.01819     0.00048
  Fock        0.00000     0.00000     0.00000     0.00000     0.00000     0.00000
  -------------------------------------------------------------------------------------
  Total      -0.01424    -0.02636    -0.00234     0.00006     0.00344     0.00009
  in kB      -0.04838    -0.08955    -0.00795     0.00020     0.01170     0.00032
  external pressure =       -0.05 kB  Pullay stress =        0.00 kB


 VOLUME and BASIS-vectors are now :
 -----------------------------------------------------------------------------
  energy-cutoff  :      700.00
  volume of cell :      471.59
      direct lattice vectors                 reciprocal lattice vectors
     7.813729406 -0.000002361  0.000025635     0.127979861  0.000000063  0.000000629
    -0.000003901  7.863430001  0.000498026     0.000000038  0.127170968 -0.000008069
    -0.000037724  0.000487009  7.675278936    -0.000000427 -0.000008252  0.130288425

  length of vectors
     7.813729406  7.863430017  7.675278951     0.127979861  0.127170968  0.130288425


 FORCES acting on ions
    electron-ion (+dipol)            ewald-force                    non-local-force                 convergence-correction
 -----------------------------------------------------------------------------------------------
   0.646E-02 -.837E+00 -.121E-01   -.666E-02 0.827E+00 0.129E-01   -.499E-04 0.121E-01 -.321E-03   0.497E-06 -.835E-04 -.252E-03
   0.105E-01 -.972E+01 0.283E-01   -.111E-01 0.963E+01 -.297E-01   -.318E-04 0.927E-01 -.146E-03   0.123E-04 -.132E-03 0.278E-03
   0.614E-02 0.939E+00 -.891E-01   -.636E-02 -.930E+00 0.946E-01   -.147E-04 -.790E-02 0.446E-03   0.678E-05 0.859E-04 -.219E-03
   -.299E-02 0.647E+01 0.213E-02   0.258E-02 -.636E+01 -.551E-02   -.437E-03 -.108E+00 0.173E-02   0.143E-03 0.215E-04 0.244E-03
   -.208E-02 0.119E+02 0.689E+00   0.228E-02 -.116E+02 -.696E+00   -.752E-04 -.301E+00 0.139E-01   -.151E-05 0.157E-03 -.346E-02
   -.288E-02 -.251E+02 0.777E+00   0.329E-02 0.249E+02 -.749E+00   -.178E-03 0.208E+00 -.262E-01   -.167E-04 -.573E-02 0.348E-02
   -.546E-02 -.149E+02 -.198E+00   0.559E-02 0.145E+02 0.200E+00   -.374E-04 0.365E+00 -.182E-02   -.886E-05 -.149E-03 -.413E-04
   -.334E-01 0.175E+02 -.114E-03   0.330E-01 -.171E+02 -.217E-02   0.715E-03 -.315E+00 0.142E-02   -.140E-03 0.521E-02 0.265E-04
   -.114E+03 0.322E+01 0.153E-01   0.119E+03 -.323E+01 -.161E-01   -.546E+01 0.104E-01 0.116E-02   0.103E-01 0.108E-02 0.105E-03
   0.114E+03 0.322E+01 0.813E-02   -.120E+03 -.323E+01 -.855E-02   0.547E+01 0.106E-01 0.795E-03   -.103E-01 0.107E-02 0.104E-03
   -.943E-02 -.299E+02 0.191E+00   0.103E-01 0.302E+02 -.210E+00   -.926E-03 -.323E+00 0.177E-01   -.206E-04 0.362E-02 0.745E-03
   -.122E-01 0.601E+02 0.298E+00   0.131E-01 -.641E+02 -.324E+00   -.942E-03 0.402E+01 0.252E-01   -.238E-04 -.487E-02 0.545E-03
   -.132E-01 -.144E+02 -.571E+02   0.139E-01 0.153E+02 0.598E+02   -.707E-03 -.935E+00 -.269E+01   0.205E-05 -.225E-03 0.274E-03
   0.856E-02 -.146E+02 0.542E+02   -.888E-02 0.156E+02 -.565E+02   0.251E-03 -.955E+00 0.238E+01   -.866E-05 0.492E-04 -.145E-02
   -.147E-01 0.100E+02 -.840E+02   0.157E-01 -.106E+02 0.878E+02   -.103E-02 0.574E+00 -.376E+01   -.194E-04 -.150E-03 0.418E-02
   -.676E-02 0.993E+01 0.843E+02   0.721E-02 -.105E+02 -.881E+02   -.477E-03 0.571E+00 0.379E+01   -.219E-04 -.128E-03 -.408E-02
   -.565E+02 0.323E+01 0.142E+00   0.628E+02 -.352E+01 -.167E+00   -.627E+01 0.287E+00 0.249E-01   -.187E-02 -.655E-03 -.540E-03
   -.127E+03 -.883E+01 0.246E+00   0.138E+03 0.964E+01 -.274E+00   -.113E+02 -.804E+00 0.266E-01   -.198E-02 -.919E-03 0.591E-03
   -.101E+03 -.329E+01 -.695E-01   0.110E+03 0.348E+01 0.756E-01   -.970E+01 -.189E+00 -.601E-02   -.840E-03 0.922E-03 -.120E-03
   0.565E+02 0.323E+01 0.171E+00   -.628E+02 -.352E+01 -.199E+00   0.627E+01 0.286E+00 0.279E-01   0.187E-02 -.657E-03 -.539E-03
   0.127E+03 -.883E+01 0.213E+00   -.138E+03 0.964E+01 -.237E+00   0.113E+02 -.804E+00 0.227E-01   0.199E-02 -.918E-03 0.595E-03
   0.101E+03 -.328E+01 -.526E-01   -.110E+03 0.348E+01 0.568E-01   0.969E+01 -.189E+00 -.417E-02   0.843E-03 0.919E-03 -.118E-03
   0.277E-02 0.532E+02 -.204E-01   -.297E-02 -.595E+02 0.240E-01   0.217E-03 0.628E+01 -.345E-02   0.276E-05 -.295E-03 -.141E-03
   0.151E-02 -.854E+02 0.320E-03   -.153E-02 0.942E+02 -.100E-02   0.510E-04 -.879E+01 0.579E-03   0.145E-04 -.538E-02 0.146E-03
   0.458E-02 -.534E+02 -.405E-01   -.486E-02 0.598E+02 0.435E-01   0.283E-03 -.632E+01 -.297E-02   0.213E-06 0.509E-03 -.163E-03
   0.484E-02 0.869E+02 0.241E-01   -.513E-02 -.957E+02 -.249E-01   0.309E-03 0.888E+01 0.893E-03   0.186E-04 0.615E-02 0.170E-03
   -.198E-03 -.899E+01 0.173E+00   -.657E-04 0.996E+01 -.208E+00   0.252E-03 -.969E+00 0.350E-01   0.194E-06 0.471E-03 -.661E-03
   -.385E-02 0.890E+01 0.153E+00   0.417E-02 -.939E+01 -.182E+00   -.344E-03 0.488E+00 0.284E-01   -.354E-05 -.776E-03 -.559E-03
   0.288E-01 -.264E+01 0.424E+02   -.318E-01 0.271E+01 -.477E+02   0.289E-02 -.593E-01 0.529E+01   -.240E-05 0.675E-03 0.331E-03
   -.193E-01 -.264E+01 -.425E+02   0.214E-01 0.271E+01 0.478E+02   -.204E-02 -.573E-01 -.529E+01   0.703E-05 0.663E-03 -.352E-03
   0.114E-01 0.333E+01 -.854E+02   -.125E-01 -.359E+01 0.943E+02   0.111E-02 0.249E+00 -.889E+01   0.168E-04 -.700E-03 -.543E-02
   -.695E-02 0.334E+01 0.856E+02   0.804E-02 -.360E+01 -.945E+02   -.107E-02 0.248E+00 0.890E+01   0.188E-04 -.665E-03 0.531E-02
 -----------------------------------------------------------------------------------------------
   -.306E-02 -.146E+01 0.965E-01   -.210E-12 0.577E-13 0.426E-13   0.305E-02 0.146E+01 -.961E-01   0.574E-04 -.832E-03 -.101E-02
 
 
 POSITION                                       TOTAL-FORCE (eV/Angst)
 -----------------------------------------------------------------------------------
      7.81369      0.00127      7.67520        -0.000250      0.001334      0.000226
     -0.00001      0.00557      3.83757        -0.000593      0.002768     -0.001198
     -0.00003      3.93291      7.67544        -0.000227      0.001673      0.005746
      7.81371      3.93950      3.83796        -0.000707      0.002107     -0.001386
      3.90686      0.01694      0.00196         0.000121     -0.001115      0.003636
      3.90684      7.74831      3.84049         0.000214      0.000598      0.005333
      3.90683      3.92899      7.67529         0.000075     -0.001680     -0.000361
      3.90676      3.97389      3.83780         0.000173     -0.002940     -0.000816
      1.83111      3.95852      3.83791         0.000995      0.003319      0.000450
      5.98264      3.95850      3.83796        -0.000554      0.003358      0.000498
      3.90685      1.92235      3.83773        -0.000054     -0.000310     -0.000205
      3.90685      5.93297      3.83773        -0.000062     -0.003577     -0.000591
      3.90689      0.05140      1.86681        -0.000020     -0.000641     -0.001202
      3.90679      0.05232      5.80676        -0.000078      0.000987     -0.002046
      3.90688      3.87937      1.84653        -0.000051     -0.007397      0.002702
      3.90682      3.88016      5.82942        -0.000042     -0.006000     -0.001979
      1.89982      7.85790      7.67560         0.000242     -0.004436     -0.000693
      1.85737      7.85026      3.83778         0.001499     -0.001012     -0.000594
      1.86897      3.94183      0.00030         0.000883      0.007992      0.000006
      5.91381      7.85792      7.67549        -0.000062     -0.004443     -0.000741
      5.95630      7.85026      3.83796        -0.001011     -0.000941     -0.000464
      5.94472      3.94231      7.67553        -0.000659      0.007954     -0.000032
      0.00000      2.02566      0.00016         0.000017      0.000919     -0.000019
     -0.00001      1.89203      3.83773         0.000043      0.002511      0.000062
      7.81369      5.83936      7.67564         0.000006      0.001766     -0.000196
     -0.00002      5.98446      3.83803         0.000037      0.001458      0.000221
      3.90681      1.96451      7.67499        -0.000013     -0.001896     -0.000914
      3.90683      5.90912      7.67534        -0.000026     -0.002202     -0.000857
      7.81363      0.00569      1.96234        -0.000066      0.004529     -0.000885
      0.00006      0.00580      5.71274         0.000093      0.004296      0.001158
      7.81370      3.92513      1.84998         0.000041     -0.004624     -0.001535
      0.00002      3.92547      5.82596         0.000035     -0.004354     -0.003326
 -----------------------------------------------------------------------------------
    total drift:                                0.000044      0.001332     -0.000607


--------------------------------------------------------------------------------------------------------



  FREE ENERGIE OF THE ION-ELECTRON SYSTEM (eV)
  ---------------------------------------------------
  free  energy   TOTEN  =      -206.58586169 eV

  energy  without entropy=     -206.58586169  energy(sigma->0) =     -206.58586169
 


--------------------------------------------------------------------------------------------------------


    POTLOK:  cpu time    0.9779: real time    0.9752


--------------------------------------------------------------------------------------------------------


 stress matrix after NEB project (eV)
     -0.01424      0.00006      0.00009
      0.00006     -0.02636      0.00344
      0.00009      0.00344     -0.00234
  FORCES: max atom, RMS     0.008041    0.004138
  FORCE total and by dimension    0.023408    0.007992
  Stress total and by dimension    0.030442    0.026357
 Quasi-Newton relaxation of ions (Broydens 2nd method)
  g(Force)  = 0.264E-04   g(Stress)= 0.140E-05

 Reset! Starting new Quasi-Newton update for ions 


--------------------------------------------------------------------------------------------------------


  
 reached required accuracy - stopping structural energy minimisation
 writing wavefunctions
     LOOP+:  cpu time  120.4197: real time  121.6932
    4ORBIT:  cpu time    0.0000: real time    0.0000
 


 total charge     
 
# of ion       s       p       d       tot
------------------------------------------
    1        0.241   6.345   1.845   8.430
    2        0.328   6.521   1.748   8.596
    3        0.326   6.518   1.743   8.587
    4        0.285   6.462   1.833   8.580
    5        0.296   6.457   1.747   8.499
    6        0.298   6.439   1.744   8.481
    7        0.290   6.457   1.779   8.525
    8        0.295   6.407   1.603   8.306
    9        1.566   3.401   0.000   4.967
   10        1.566   3.401   0.000   4.967
   11        1.577   3.272   0.000   4.849
   12        1.568   3.431   0.000   4.999
   13        1.566   3.413   0.000   4.979
   14        1.566   3.412   0.000   4.978
   15        1.568   3.406   0.000   4.974
   16        1.568   3.406   0.000   4.975
   17        1.731   4.395   0.000   6.126
   18        1.733   4.377   0.000   6.111
   19        1.733   4.381   0.000   6.114
   20        1.731   4.395   0.000   6.126
   21        1.733   4.377   0.000   6.111
   22        1.733   4.381   0.000   6.114
   23        1.729   4.388   0.000   6.118
   24        1.731   4.380   0.000   6.111
   25        1.729   4.388   0.000   6.118
   26        1.732   4.381   0.000   6.112
   27        1.730   4.389   0.000   6.119
   28        1.729   4.384   0.000   6.113
   29        1.732   4.404   0.000   6.135
   30        1.732   4.404   0.000   6.135
   31        1.734   4.393   0.000   6.127
   32        1.734   4.393   0.000   6.127
--------------------------------------------------
tot         42.610 148.959  14.041 205.611
 


 magnetization (x)
 
# of ion       s       p       d       tot
------------------------------------------
    1       -0.004  -0.006  -0.911  -0.922
    2        0.000   0.000  -0.015  -0.015
    3        0.000   0.000  -0.015  -0.015
    4       -0.000  -0.000   0.004   0.004
    5        0.000  -0.002   0.002  -0.000
    6        0.002   0.004   0.037   0.043
    7        0.000  -0.002   0.006   0.004
    8        0.002   0.003   0.036   0.042
    9       -0.000  -0.003   0.000  -0.003
   10       -0.000  -0.003   0.000  -0.003
   11       -0.008  -0.566   0.000  -0.575
   12        0.000  -0.007   0.000  -0.007
   13       -0.002  -0.073   0.000  -0.074
   14       -0.002  -0.075   0.000  -0.077
   15       -0.001  -0.075   0.000  -0.077
   16       -0.001  -0.074   0.000  -0.076
   17        0.000   0.010   0.000   0.011
   18        0.000  -0.000   0.000   0.000
   19        0.000   0.000   0.000   0.000
   20        0.000   0.010   0.000   0.011
   21        0.000  -0.000   0.000   0.000
   22        0.000   0.000   0.000   0.000
   23        0.000  -0.001   0.000  -0.001
   24       -0.000  -0.001   0.000  -0.001
   25        0.000  -0.001   0.000  -0.001
   26       -0.000  -0.001   0.000  -0.001
   27       -0.000  -0.005   0.000  -0.005
   28       -0.000  -0.007   0.000  -0.007
   29        0.000  -0.002   0.000  -0.002
   30        0.000  -0.002   0.000  -0.002
   31       -0.000  -0.000   0.000  -0.000
   32       -0.000  -0.000   0.000  -0.000
--------------------------------------------------
tot         -0.013  -0.879  -0.856  -1.748
 

 total amount of memory used by VASP MPI-rank0   108019. kBytes
=======================================================================

   base      :      30000. kBytes
   nonlr-proj:       8423. kBytes
   fftplans  :       8425. kBytes
   grid      :       8783. kBytes
   one-center:        124. kBytes
   wavefun   :      52264. kBytes
 
  
  
 General timing and accounting informations for this job:
 ========================================================
  
                  Total CPU time used (sec):      170.932
                            User time (sec):      153.787
                          System time (sec):       17.145
                         Elapsed time (sec):      175.057
  
                   Maximum memory used (kb):      223980.
                   Average memory used (kb):           0.
  
                          Minor page faults:        98229
                          Major page faults:            2
                 Voluntary context switches:        59158
