 vasp.5.4.4.18Apr17-6-g9f103f2a35 (build Apr 30 2017 20:10:35) complex          
  
 executed on             LinuxIFC date 2017.08.07  22:27:36
 running on   64 total cores
 distrk:  each k-point on   64 cores,    1 groups
 distr:  one band on NCORES_PER_BAND=   8 cores,    8 groups


--------------------------------------------------------------------------------------------------------


 INCAR:
 POTCAR:   PAW_PBE Ti_pv 07Sep2000                
 POTCAR:   PAW_PBE O 08Apr2002                    
 POTCAR:    PAW_PBE F 08Apr2002                   
 POTCAR:   PAW_PBE Ti_pv 07Sep2000                
   VRHFIN =Ti: d3 s1                                                            
   LEXCH  = PE                                                                  
   EATOM  =  1042.3781 eV,   76.6126 Ry                                         
                                                                                
   TITEL  = PAW_PBE Ti_pv 07Sep2000                                             
   LULTRA =        F    use ultrasoft PP ?                                      
   IUNSCR =        1    unscreen: 0-lin 1-nonlin 2-no                           
   RPACOR =    2.200    partial core radius                                     
   POMASS =   47.880; ZVAL   =   10.000    mass and valenz                      
   RCORE  =    2.500    outmost cutoff radius                                   
   RWIGS  =    2.500; RWIGS  =    1.323    wigner-seitz radius (au A)           
   ENMAX  =  222.338; ENMIN  =  166.753 eV                                      
   RCLOC  =    1.701    cutoff for local pot                                    
   LCOR   =        T    correct aug charges                                     
   LPAW   =        T    paw PP                                                  
   EAUG   =  482.848                                                            
   DEXC   =    -.008                                                            
   RMAX   =    3.092    core radius for proj-oper                               
   RAUG   =    1.300    factor for augmentation sphere                          
   RDEP   =    2.538    radius for radial grids                                 
   QCUT   =   -4.042; QGAM   =    8.085    optimization parameters              
                                                                                
   Description                                                                  
     l     E      TYP  RCUT    TYP  RCUT                                        
     1   .000     23  2.300                                                     
     1  -.100     23  2.300                                                     
     2   .000     23  2.500                                                     
     2   .000     23  2.500                                                     
     0   .000     23  2.500                                                     
     0  1.500     23  2.500                                                     
     3   .000      7   .000                                                     
  local pseudopotential read in
  partial core-charges read in
  atomic valenz-charges read in
  non local Contribution for L=           1  read in
    real space projection operators read in
  non local Contribution for L=           1  read in
    real space projection operators read in
  non local Contribution for L=           2  read in
    real space projection operators read in
  non local Contribution for L=           2  read in
    real space projection operators read in
  non local Contribution for L=           0  read in
    real space projection operators read in
  non local Contribution for L=           0  read in
    real space projection operators read in
    PAW grid and wavefunctions read in
 
   number of l-projection  operators is LMAX  =           6
   number of lm-projection operators is LMMAX =          18
 
 POTCAR:   PAW_PBE O 08Apr2002                    
   VRHFIN =O: s2p4                                                              
   LEXCH  = PE                                                                  
   EATOM  =   432.3788 eV,   31.7789 Ry                                         
                                                                                
   TITEL  = PAW_PBE O 08Apr2002                                                 
   LULTRA =        F    use ultrasoft PP ?                                      
   IUNSCR =        0    unscreen: 0-lin 1-nonlin 2-no                           
   RPACOR =     .000    partial core radius                                     
   POMASS =   16.000; ZVAL   =    6.000    mass and valenz                      
   RCORE  =    1.520    outmost cutoff radius                                   
   RWIGS  =    1.550; RWIGS  =     .820    wigner-seitz radius (au A)           
   ENMAX  =  400.000; ENMIN  =  300.000 eV                                      
   ICORE  =        2    local potential                                         
   LCOR   =        T    correct aug charges                                     
   LPAW   =        T    paw PP                                                  
   EAUG   =  605.392                                                            
   DEXC   =     .000                                                            
   RMAX   =    2.264    core radius for proj-oper                               
   RAUG   =    1.300    factor for augmentation sphere                          
   RDEP   =    1.550    radius for radial grids                                 
   QCUT   =   -5.520; QGAM   =   11.041    optimization parameters              
                                                                                
   Description                                                                  
     l     E      TYP  RCUT    TYP  RCUT                                        
     0   .000     23  1.200                                                     
     0  -.700     23  1.200                                                     
     1   .000     23  1.520                                                     
     1   .600     23  1.520                                                     
     2   .000      7  1.500                                                     
  local pseudopotential read in
  atomic valenz-charges read in
  non local Contribution for L=           0  read in
    real space projection operators read in
  non local Contribution for L=           0  read in
    real space projection operators read in
  non local Contribution for L=           1  read in
    real space projection operators read in
  non local Contribution for L=           1  read in
    real space projection operators read in
    PAW grid and wavefunctions read in
 
   number of l-projection  operators is LMAX  =           4
   number of lm-projection operators is LMMAX =           8
 
 POTCAR:    PAW_PBE F 08Apr2002                   
   VRHFIN =F: s2p5                                                              
   LEXCH  = PE                                                                  
   EATOM  =   659.6475 eV,   48.4827 Ry                                         
                                                                                
   TITEL  = PAW_PBE F 08Apr2002                                                 
   LULTRA =        F    use ultrasoft PP ?                                      
   IUNSCR =        1    unscreen: 0-lin 1-nonlin 2-no                           
   RPACOR =    1.200    partial core radius                                     
   POMASS =   18.998; ZVAL   =    7.000    mass and valenz                      
   RCORE  =    1.520    outmost cutoff radius                                   
   RWIGS  =    1.500; RWIGS  =    0.794    wigner-seitz radius (au A)           
   ENMAX  =  400.000; ENMIN  =  300.000 eV                                      
   ICORE  =        2    local potential                                         
   LCOR   =        T    correct aug charges                                     
   LPAW   =        T    paw PP                                                  
   EAUG   =  613.614                                                            
   RMAX   =    1.555    core radius for proj-oper                               
   RAUG   =    1.300    factor for augmentation sphere                          
   RDEP   =    1.539    radius for radial grids                                 
   RDEPT  =    1.299    core radius for aug-charge                              
                                                                                
   Atomic configuration                                                         
    4 entries                                                                   
     n  l   j            E        occ.                                          
     1  0  0.50      -663.3661   2.0000                                         
     2  0  0.50       -29.8995   2.0000                                         
     2  1  0.50       -11.1114   5.0000                                         
     3  2  1.50       -10.8847   0.0000                                         
   Description                                                                  
     l       E           TYP  RCUT    TYP  RCUT                                 
     0    -29.8995018     23  1.200                                             
     0     -9.5240782     23  1.200                                             
     1    -11.1113914     23  1.520                                             
     1      1.3605826     23  1.520                                             
     2    -10.8846608      7  1.500                                             
  local pseudopotential read in
  partial core-charges read in
  partial kinetic energy density read in
  atomic valenz-charges read in
  non local Contribution for L=           0  read in
    real space projection operators read in
  non local Contribution for L=           0  read in
    real space projection operators read in
  non local Contribution for L=           1  read in
    real space projection operators read in
  non local Contribution for L=           1  read in
    real space projection operators read in
    PAW grid and wavefunctions read in
 
   number of l-projection  operators is LMAX  =           4
   number of lm-projection operators is LMMAX =           8
 
 Optimization of the real space projectors (new method)

 maximal supplied QI-value         = 15.12
 optimisation between [QCUT,QGAM] = [ 13.45, 27.06] = [ 50.69,205.06] Ry 
 Optimized for a Real-space Cutoff    1.49 Angstroem

   l    n(q)    QCUT    max X(q) W(low)/X(q) W(high)/X(q)  e(spline) 
   1     12    13.455     4.841    0.13E-05    0.83E-06    0.56E-07
   1     12    13.455     5.701    0.32E-04    0.25E-04    0.17E-06
   2     11    13.455     4.569    0.64E-05    0.34E-05    0.50E-07
   2     11    13.455    32.276    0.49E-04    0.38E-04    0.46E-06
   0     12    13.455    30.046    0.17E-04    0.41E-05    0.51E-07
   0     12    13.455    45.433    0.12E-04    0.27E-04    0.38E-06
 Optimization of the real space projectors (new method)

 maximal supplied QI-value         = 24.76
 optimisation between [QCUT,QGAM] = [ 13.37, 26.98] = [ 50.04,203.89] Ry 
 Optimized for a Real-space Cutoff    1.17 Angstroem

   l    n(q)    QCUT    max X(q) W(low)/X(q) W(high)/X(q)  e(spline) 
   0      9    13.368     4.192    0.20E-04    0.58E-05    0.56E-07
   0      9    13.368     8.473    0.60E-04    0.52E-04    0.21E-06
   1      9    13.368     2.474    0.22E-04    0.17E-04    0.28E-07
   1      9    13.368     3.912    0.94E-04    0.97E-04    0.20E-06
 Optimization of the real space projectors (new method)

 maximal supplied QI-value         = 24.76
 optimisation between [QCUT,QGAM] = [ 13.37, 26.98] = [ 50.04,203.89] Ry 
 Optimized for a Real-space Cutoff    1.17 Angstroem

   l    n(q)    QCUT    max X(q) W(low)/X(q) W(high)/X(q)  e(spline) 
   0      9    13.368    14.049    0.39E-04    0.34E-04    0.16E-06
   0      9    13.368     8.945    0.54E-04    0.47E-04    0.20E-06
   1      9    13.368     7.086    0.99E-04    0.10E-03    0.23E-06
   1      9    13.368     6.747    0.86E-04    0.89E-04    0.21E-06

 ----------------------------------------------------------------------------- 
|                                                                             |
|  ADVICE TO THIS USER RUNNING 'VASP/VAMP'   (HEAR YOUR MASTER'S VOICE ...):  |
|                                                                             |
|      You enforced a specific xc-type in the INCAR file,                     |
|      a different type was found on the POTCAR file                          |
|          I HOPE YOU KNOW, WHAT YOU ARE  DOING                               |
|                                                                             |
 ----------------------------------------------------------------------------- 

 PAW_PBE Ti_pv 07Sep2000                :
 energy of atom  1       EATOM=-1042.3781
 kinetic energy error for atom=    0.0006 (will be added to EATOM!!)
 PAW_PBE O 08Apr2002                    :
 energy of atom  2       EATOM= -432.3788
 kinetic energy error for atom=    0.0091 (will be added to EATOM!!)
  PAW_PBE F 08Apr2002                   :
 energy of atom  3       EATOM= -659.6475
 kinetic energy error for atom=    0.0140 (will be added to EATOM!!)
 
 
 POSCAR: TiOF2 2x2x2 config 2036                 
  positions in direct lattice
  velocities in cartesian coordinates
 exchange correlation table for  LEXCH =       14
   RHO(1)=    0.500       N(1)  =     2000
   RHO(2)=  100.500       N(2)  =     4000

 VTST: version 3.1, (03/28/14)

 CHAIN: initializing optimizer
 
 OPT: Using VASP QUASI-newton optimizer
 CHAIN: Read ICHAIN            0
 
 POSCAR: TiOF2 2x2x2 config 2036                 
  positions in direct lattice
  velocities in cartesian coordinates
 


--------------------------------------------------------------------------------------------------------


 ion  position               nearest neighbor table
   1  1.000  0.001  0.986-  13 1.80  17 1.89  20 1.89  23 1.92  25 1.93  29 2.01
   2  1.000  0.999  0.510-  13 1.86  26 1.88  24 1.88  18 1.89  21 1.89  29 2.01
   3  1.000  0.500  0.980-  14 1.72  19 1.91  22 1.91  23 1.99  25 1.99  30 1.99
   4  0.000  0.500  0.501-   9 1.88  10 1.88  14 1.96  30 2.01  26 2.02  24 2.02
   5  0.500  0.983  0.987-  12 1.80  15 1.81  20 2.00  17 2.00  31 2.02  27 2.06
   6  0.500  0.020  0.511-  11 1.76  15 1.86  18 2.00  21 2.00  31 2.02  28 2.05
   7  0.500  0.510  0.020-  16 1.76  12 1.89  22 1.97  19 1.97  32 2.01  27 2.05
   8  0.500  0.495  0.495-  16 1.90  11 1.94  10 1.99   9 1.99  32 2.02  28 2.04
   9  0.243  0.501  0.500-   4 1.88   8 1.99
  10  0.757  0.501  0.500-   4 1.88   8 1.99
  11  0.500  0.246  0.501-   6 1.76   8 1.94
  12  0.500  0.751  0.001-   5 1.80   7 1.89
  13  1.000  1.000  0.751-   1 1.80   2 1.86
  14  1.000  0.501  0.756-   3 1.72   4 1.96
  15  0.500  0.001  0.752-   5 1.81   6 1.86
  16  0.500  0.500  0.248-   7 1.76   8 1.90
  17  0.244  0.004  0.010-   1 1.89   5 2.00
  18  0.244  0.996  0.491-   2 1.89   6 2.00
  19  0.246  0.495  0.002-   3 1.91   7 1.97
  20  0.756  0.004  0.010-   1 1.89   5 2.00
  21  0.756  0.996  0.491-   2 1.89   6 2.00
  22  0.754  0.495  0.002-   3 1.91   7 1.97
  23  1.000  0.246  0.007-   1 1.92   3 1.99
  24  1.000  0.240  0.492-   2 1.88   4 2.02
  25  1.000  0.754  0.007-   1 1.93   3 1.99
  26  1.000  0.759  0.492-   2 1.88   4 2.02
  27  0.500  0.247  0.002-   7 2.05   5 2.06
  28  0.500  0.758  0.500-   8 2.04   6 2.05
  29  1.000  1.000  0.248-   2 2.01   1 2.01
  30  1.000  0.501  0.240-   3 1.99   4 2.01
  31  0.500  0.001  0.249-   6 2.02   5 2.02
  32  0.500  0.498  0.758-   7 2.01   8 2.02
 

IMPORTANT INFORMATION: All symmetrisations will be switched off!
NOSYMM: (Re-)initialisation of all symmetry stuff for point group C_1.

 
 
 KPOINTS: Title                                   

Automatic generation of k-mesh.
Space group operators:
 irot       det(A)        alpha          n_x          n_y          n_z        tau_x        tau_y        tau_z
    1     1.000000     0.000000     1.000000     0.000000     0.000000     0.000000     0.000000     0.000000
 
 Subroutine IBZKPT returns following result:
 ===========================================
 
 Found     32 irreducible k-points:
 
 Following reciprocal coordinates:
            Coordinates               Weight
  0.125000  0.125000  0.125000      2.000000
  0.375000  0.125000  0.125000      2.000000
 -0.375000  0.125000  0.125000      2.000000
 -0.125000  0.125000  0.125000      2.000000
  0.125000  0.375000  0.125000      2.000000
  0.375000  0.375000  0.125000      2.000000
 -0.375000  0.375000  0.125000      2.000000
 -0.125000  0.375000  0.125000      2.000000
  0.125000 -0.375000  0.125000      2.000000
  0.375000 -0.375000  0.125000      2.000000
 -0.375000 -0.375000  0.125000      2.000000
 -0.125000 -0.375000  0.125000      2.000000
  0.125000 -0.125000  0.125000      2.000000
  0.375000 -0.125000  0.125000      2.000000
 -0.375000 -0.125000  0.125000      2.000000
 -0.125000 -0.125000  0.125000      2.000000
  0.125000  0.125000  0.375000      2.000000
  0.375000  0.125000  0.375000      2.000000
 -0.375000  0.125000  0.375000      2.000000
 -0.125000  0.125000  0.375000      2.000000
  0.125000  0.375000  0.375000      2.000000
  0.375000  0.375000  0.375000      2.000000
 -0.375000  0.375000  0.375000      2.000000
 -0.125000  0.375000  0.375000      2.000000
  0.125000 -0.375000  0.375000      2.000000
  0.375000 -0.375000  0.375000      2.000000
 -0.375000 -0.375000  0.375000      2.000000
 -0.125000 -0.375000  0.375000      2.000000
  0.125000 -0.125000  0.375000      2.000000
  0.375000 -0.125000  0.375000      2.000000
 -0.375000 -0.125000  0.375000      2.000000
 -0.125000 -0.125000  0.375000      2.000000
 
 Following cartesian coordinates:
            Coordinates               Weight
  0.016159  0.016040  0.016251      2.000000
  0.048476  0.016040  0.016251      2.000000
 -0.048476  0.016040  0.016251      2.000000
 -0.016158  0.016040  0.016251      2.000000
  0.016159  0.048141  0.016231      2.000000
  0.048476  0.048141  0.016231      2.000000
 -0.048476  0.048141  0.016231      2.000000
 -0.016158  0.048141  0.016231      2.000000
  0.016158 -0.048162  0.016293      2.000000
  0.048476 -0.048162  0.016293      2.000000
 -0.048476 -0.048162  0.016293      2.000000
 -0.016159 -0.048162  0.016293      2.000000
  0.016159 -0.016061  0.016272      2.000000
  0.048476 -0.016061  0.016272      2.000000
 -0.048476 -0.016061  0.016272      2.000000
 -0.016159 -0.016061  0.016272      2.000000
  0.016159  0.016020  0.048775      2.000000
  0.048476  0.016020  0.048775      2.000000
 -0.048476  0.016020  0.048775      2.000000
 -0.016158  0.016020  0.048775      2.000000
  0.016159  0.048121  0.048754      2.000000
  0.048476  0.048121  0.048754      2.000000
 -0.048475  0.048121  0.048754      2.000000
 -0.016158  0.048121  0.048754      2.000000
  0.016158 -0.048182  0.048816      2.000000
  0.048476 -0.048182  0.048816      2.000000
 -0.048476 -0.048182  0.048816      2.000000
 -0.016159 -0.048182  0.048816      2.000000
  0.016159 -0.016081  0.048796      2.000000
  0.048476 -0.016081  0.048796      2.000000
 -0.048476 -0.016081  0.048796      2.000000
 -0.016159 -0.016081  0.048796      2.000000
 


--------------------------------------------------------------------------------------------------------




 Dimension of arrays:
   k-points           NKPTS =     32   k-points in BZ     NKDIM =     32   number of bands    NBANDS=    160
   number of dos      NEDOS =   3001   number of ions     NIONS =     32
   non local maximal  LDIM  =      6   non local SUM 2l+1 LMDIM =     18
   total plane-waves  NPLWV = 343000
   max r-space proj   IRMAX =  10269   max aug-charges    IRDMAX= 230219
   dimension x,y,z NGX =    70 NGY =   70 NGZ =   70
   dimension x,y,z NGXF=   140 NGYF=  140 NGZF=  140
   support grid    NGXF=   280 NGYF=  280 NGZF=  280
   ions per type =               8   8  16
   NGX,Y,Z   is equivalent  to a cutoff of  15.04, 14.94, 15.14 a.u.
   NGXF,Y,Z  is equivalent  to a cutoff of  30.09, 29.89, 30.28 a.u.

 SYSTEM =  LTO                                     
 POSCAR =  TiOF2 2x2x2 config 2036                 

 Startparameter for this run:
   NWRITE =      2    write-flag & timer
   PREC   = accura    normal or accurate (medium, high low for compatibility)
   ISTART =      1    job   : 0-new  1-cont  2-samecut
   ICHARG =      0    charge: 1-file 2-atom 10-const
   ISPIN  =      2    spin polarized calculation?
   LNONCOLLINEAR =      F non collinear calculations
   LSORBIT =      F    spin-orbit coupling
   INIWAV =      1    electr: 0-lowe 1-rand  2-diag
   LASPH  =      T    aspherical Exc in radial PAW
   METAGGA=      F    non-selfconsistent MetaGGA calc.

 Electronic Relaxation 1
   ENCUT  =  700.0 eV  51.45 Ry    7.17 a.u.  16.69 16.80 16.58*2*pi/ulx,y,z
   ENINI  =  700.0     initial cutoff
   ENAUG  =  613.6 eV  augmentation charge cutoff
   NELM   =     60;   NELMIN=  2; NELMDL=  0     # of ELM steps 
   EDIFF  = 0.1E-05   stopping-criterion for ELM
   LREAL  =      T    real-space projection
   NLSPLINE    = F    spline interpolate recip. space projectors
   LCOMPAT=      F    compatible to vasp.4.4
   GGA_COMPAT  = T    GGA compatible to vasp.4.4-vasp.4.6
   LMAXPAW     = -100 max onsite density
   LMAXMIX     =    4 max onsite mixed and CHGCAR
   VOSKOWN=      0    Vosko Wilk Nusair interpolation
   ROPT   =   -0.00010  -0.00010  -0.00010
 Ionic relaxation
   EDIFFG = -.1E-01   stopping-criterion for IOM
   NSW    =    100    number of steps for IOM
   NBLOCK =      1;   KBLOCK =    100    inner block; outer block 
   IBRION =      1    ionic relax: 0-MD 1-quasi-New 2-CG
   NFREE  =      0    steps in history (QN), initial steepest desc. (CG)
   ISIF   =      3    stress and relaxation
   IWAVPR =     11    prediction:  0-non 1-charg 2-wave 3-comb
   ISYM   =      0    0-nonsym 1-usesym 2-fastsym
   LCORR  =      T    Harris-Foulkes like correction to forces

   POTIM  = 0.5000    time-step for ionic-motion
   TEIN   =    0.0    initial temperature
   TEBEG  =    0.0;   TEEND  =   0.0 temperature during run
   SMASS  =  -3.00    Nose mass-parameter (am)
   estimated Nose-frequenzy (Omega)   =  0.10E-29 period in steps =****** mass=  -0.137E-26a.u.
   SCALEE = 1.0000    scale energy and forces
   NPACO  =    256;   APACO  = 16.0  distance and # of slots for P.C.
   PSTRESS=    0.0 pullay stress

  Mass of Ions in am
   POMASS =  47.88 16.00 19.00
  Ionic Valenz
   ZVAL   =  10.00  6.00  7.00
  Atomic Wigner-Seitz radii
   RWIGS  =  -1.00 -1.00 -1.00
  virtual crystal weights 
   VCA    =   1.00  1.00  1.00
   NELECT =     240.0000    total number of electrons
   NUPDOWN=      -1.0000    fix difference up-down

 DOS related values:
   EMIN   =  10.00;   EMAX   =-10.00  energy-range for DOS
   EFERMI =   0.00
   ISMEAR =     0;   SIGMA  =   0.01  broadening in eV -4-tet -1-fermi 0-gaus

 Electronic relaxation 2 (details)
   IALGO  =     38    algorithm
   LDIAG  =      T    sub-space diagonalisation (order eigenvalues)
   LSUBROT=      F    optimize rotation matrix (better conditioning)
   TURBO    =      0    0=normal 1=particle mesh
   IRESTART =      0    0=no restart 2=restart with 2 vectors
   NREBOOT  =      0    no. of reboots
   NMIN     =      0    reboot dimension
   EREF     =   0.00    reference energy to select bands
   IMIX   =      4    mixing-type and parameters
     AMIX     =   0.40;   BMIX     =  1.00
     AMIX_MAG =   1.60;   BMIX_MAG =  1.00
     AMIN     =   0.10
     WC   =   100.;   INIMIX=   1;  MIXPRE=   1;  MAXMIX= -45

 Intra band minimization:
   WEIMIN = 0.0010     energy-eigenvalue tresh-hold
   EBREAK =  0.16E-08  absolut break condition
   DEPER  =   0.30     relativ break condition  

   TIME   =   0.40     timestep for ELM

  volume/ion in A,a.u.               =      14.47        97.66
  Fermi-wavevector in a.u.,A,eV,Ry     =   1.314987  2.484964 23.527056  1.729190
  Thomas-Fermi vector in A             =   2.445201
 
 Write flags
   LWAVE        =      T    write WAVECAR
   LDOWNSAMPLE  =      F    k-point downsampling of WAVECAR
   LCHARG       =      T    write CHGCAR
   LVTOT        =      F    write LOCPOT, total local potential
   LVHAR        =      F    write LOCPOT, Hartree potential only
   LELF         =      F    write electronic localiz. function (ELF)
   LORBIT       =     11    0 simple, 1 ext, 2 COOP (PROOUT), +10 PAW based schemes


 Dipole corrections
   LMONO  =      F    monopole corrections only (constant potential shift)
   LDIPOL =      F    correct potential (dipole corrections)
   IDIPOL =      0    1-x, 2-y, 3-z, 4-all directions 
   EPSILON=  1.0000000 bulk dielectric constant

 LDA+U is selected, type is set to LDAUTYPE =  2
   angular momentum for each species LDAUL =     2   -1   -1
   U (eV)           for each species LDAUU =   4.2  0.0  0.0
   J (eV)           for each species LDAUJ =   0.0  0.0  0.0
 Exchange correlation treatment:
   GGA     =    PS    GGA type
   LEXCH   =    14    internal setting for exchange type
   VOSKOWN=      0    Vosko Wilk Nusair interpolation
   LHFCALC =     F    Hartree Fock is set to
   LHFONE  =     F    Hartree Fock one center treatment
   AEXX    =    0.0000 exact exchange contribution

 Linear response parameters
   LEPSILON=     F    determine dielectric tensor
   LRPA    =     F    only Hartree local field effects (RPA)
   LNABLA  =     F    use nabla operator in PAW spheres
   LVEL    =     F    velocity operator in full k-point grid
   LINTERFAST=   F  fast interpolation
   KINTER  =     0    interpolate to denser k-point grid
   CSHIFT  =0.1000    complex shift for real part using Kramers Kronig
   OMEGAMAX=  -1.0    maximum frequency
   DEG_THRESHOLD= 0.2000000E-02 threshold for treating states as degnerate
   RTIME   =   -0.100 relaxation time in fs
  (WPLASMAI=    0.000 imaginary part of plasma frequency in eV, 0.658/RTIME)
   DFIELD  = 0.0000000 0.0000000 0.0000000 field for delta impulse in time
 
 Orbital magnetization related:
   ORBITALMAG=     F  switch on orbital magnetization
   LCHIMAG   =     F  perturbation theory with respect to B field
   DQ        =  0.001000  dq finite difference perturbation B field
   LLRAUG    =     F  two centre corrections for induced B field



--------------------------------------------------------------------------------------------------------


 quasi-Newton-method for relaxation of ions
 charge density and potential will be updated during run
 spin polarized calculation
 Variant of blocked Davidson
 Davidson routine will perform the subspace rotation
 perform sub-space diagonalisation
    after iterative eigenvector-optimisation
 modified Broyden-mixing scheme, WC =      100.0
 initial mixing is a Kerker type mixing with AMIX =  0.4000 and BMIX =      1.0000
 Hartree-type preconditioning will be used
 using additional bands           40
 real space projection scheme for non local part
 use partial core corrections
 calculate Harris-corrections to forces 
   (improved forces if not selfconsistent)
 use gradient corrections 
 use of overlap-Matrix (Vanderbilt PP)
 Gauss-broadening in eV      SIGMA  =   0.01


--------------------------------------------------------------------------------------------------------


  energy-cutoff  :      700.00
  volume of cell :      463.10
      direct lattice vectors                 reciprocal lattice vectors
     7.735855134 -0.000009907 -0.000002556     0.129268191  0.000000165  0.000000043
    -0.000009968  7.787919367  0.004909945     0.000000164  0.128404052 -0.000082804
    -0.000002545  0.004956947  7.686738627     0.000000043 -0.000082019  0.130094238

  length of vectors
     7.735855134  7.787920915  7.686740225     0.129268191  0.128404079  0.130094264


 
 old parameters found on file WAVECAR:
  energy-cutoff  :      700.00
  volume of cell :      462.85
      direct lattice vectors                 reciprocal lattice vectors
     7.734504395 -0.000004436 -0.000001710     0.129290766  0.000000074  0.000000029
    -0.000004460  7.786582647  0.004802784     0.000000074  0.128426093 -0.000081071
    -0.000001701  0.004851410  7.685221583     0.000000029 -0.000080258  0.130119916

  length of vectors

 
 k-points in units of 2pi/SCALE and weight: Title                                   
   0.01615855  0.01604027  0.01625143       0.031
   0.04847560  0.01604032  0.01625145       0.031
  -0.04847555  0.01604019  0.01625141       0.031
  -0.01615850  0.01604023  0.01625142       0.031
   0.01615859  0.04814129  0.01623073       0.031
   0.04847564  0.04814133  0.01623074       0.031
  -0.04847550  0.04814121  0.01623071       0.031
  -0.01615846  0.04814125  0.01623072       0.031
   0.01615847 -0.04816175  0.01629284       0.031
   0.04847552 -0.04816171  0.01629285       0.031
  -0.04847563 -0.04816183  0.01629282       0.031
  -0.01615858 -0.04816179  0.01629283       0.031
   0.01615851 -0.01606074  0.01627214       0.031
   0.04847556 -0.01606070  0.01627215       0.031
  -0.04847559 -0.01606082  0.01627211       0.031
  -0.01615854 -0.01606078  0.01627212       0.031
   0.01615856  0.01601977  0.04877499       0.031
   0.04847561  0.01601981  0.04877500       0.031
  -0.04847554  0.01601969  0.04877497       0.031
  -0.01615849  0.01601973  0.04877498       0.031
   0.01615860  0.04812078  0.04875429       0.031
   0.04847565  0.04812082  0.04875430       0.031
  -0.04847549  0.04812070  0.04875427       0.031
  -0.01615845  0.04812074  0.04875428       0.031
   0.01615848 -0.04818226  0.04881640       0.031
   0.04847553 -0.04818221  0.04881641       0.031
  -0.04847562 -0.04818234  0.04881637       0.031
  -0.01615857 -0.04818230  0.04881639       0.031
   0.01615852 -0.01608124  0.04879570       0.031
   0.04847557 -0.01608120  0.04879571       0.031
  -0.04847558 -0.01608133  0.04879567       0.031
  -0.01615853 -0.01608128  0.04879568       0.031
 
 k-points in reciprocal lattice and weights: Title                                   
   0.12500000  0.12500000  0.12500000       0.031
   0.37500000  0.12500000  0.12500000       0.031
  -0.37500000  0.12500000  0.12500000       0.031
  -0.12500000  0.12500000  0.12500000       0.031
   0.12500000  0.37500000  0.12500000       0.031
   0.37500000  0.37500000  0.12500000       0.031
  -0.37500000  0.37500000  0.12500000       0.031
  -0.12500000  0.37500000  0.12500000       0.031
   0.12500000 -0.37500000  0.12500000       0.031
   0.37500000 -0.37500000  0.12500000       0.031
  -0.37500000 -0.37500000  0.12500000       0.031
  -0.12500000 -0.37500000  0.12500000       0.031
   0.12500000 -0.12500000  0.12500000       0.031
   0.37500000 -0.12500000  0.12500000       0.031
  -0.37500000 -0.12500000  0.12500000       0.031
  -0.12500000 -0.12500000  0.12500000       0.031
   0.12500000  0.12500000  0.37500000       0.031
   0.37500000  0.12500000  0.37500000       0.031
  -0.37500000  0.12500000  0.37500000       0.031
  -0.12500000  0.12500000  0.37500000       0.031
   0.12500000  0.37500000  0.37500000       0.031
   0.37500000  0.37500000  0.37500000       0.031
  -0.37500000  0.37500000  0.37500000       0.031
  -0.12500000  0.37500000  0.37500000       0.031
   0.12500000 -0.37500000  0.37500000       0.031
   0.37500000 -0.37500000  0.37500000       0.031
  -0.37500000 -0.37500000  0.37500000       0.031
  -0.12500000 -0.37500000  0.37500000       0.031
   0.12500000 -0.12500000  0.37500000       0.031
   0.37500000 -0.12500000  0.37500000       0.031
  -0.37500000 -0.12500000  0.37500000       0.031
  -0.12500000 -0.12500000  0.37500000       0.031
 
 position of ions in fractional coordinates (direct lattice) 
   0.99999972  0.00056587  0.98609291
   0.99999796  0.99907607  0.50955196
   0.99999651  0.49989326  0.98043343
   0.00008103  0.49986089  0.50094854
   0.49999973  0.98257996  0.98654021
   0.49999746  0.02001603  0.51058245
   0.49999636  0.50956388  0.01960666
   0.50013164  0.49496861  0.49543692
   0.24324609  0.50068885  0.50049975
   0.75664695  0.50068912  0.50049948
   0.49999405  0.24591698  0.50086516
   0.49999973  0.75148700  0.00143584
   0.99999983  0.99968520  0.75131593
   0.99999061  0.50099359  0.75621255
   0.49999976  0.00068270  0.75215394
   0.49998952  0.49996772  0.24807823
   0.24378291  0.00372627  0.00988842
   0.24378262  0.99624503  0.49143089
   0.24646947  0.49501826  0.00181657
   0.75621655  0.00372624  0.00988847
   0.75621227  0.99624554  0.49143083
   0.75352192  0.49501797  0.00181917
   0.99999975  0.24619927  0.00662164
   0.99999224  0.24004575  0.49160351
   0.99999981  0.75416414  0.00674979
   0.99999103  0.75866348  0.49159118
   0.49999972  0.24701090  0.00227613
   0.49999037  0.75750825  0.49984072
   0.99999978  0.99965332  0.24821420
   0.99998812  0.50074250  0.23971702
   0.49999977  0.00109596  0.24893695
   0.49998669  0.49830136  0.75792056
 
 position of ions in cartesian coordinates  (Angst):
   7.73585046  0.00928508  7.57983870
   7.73582811  7.78323982  3.92169558
   7.73582064  3.89797845  7.53878738
   0.00062061  3.89535946  3.85311476
   3.86791321  7.65713879  7.58809984
   3.86790639  0.15840918  3.92481081
   3.86789431  3.96853468  0.15321192
   3.86893968  3.85722649  3.81072310
   1.88171027  3.90180295  3.84966852
   5.85330492  3.90179996  3.84966511
   3.86787784  1.91765939  3.85122576
   3.86791795  5.85252236  0.01472539
   7.73584193  7.78918206  5.78007504
   7.73577556  3.90543630  5.81526553
   3.86792376  0.00904027  5.78161284
   3.86784085  3.89493307  1.90936603
   1.88586925  0.02906647  0.07602739
   1.88585587  7.76110958  3.78239165
   1.90664721  3.85516889  0.01639338
   5.84998164  0.02906115  0.07602647
   5.84993741  7.76110846  3.78238993
   5.82913147  3.85516161  0.01641204
   7.73585073  1.91740298  0.05210510
   7.73579149  1.87188387  3.78000371
   7.73584617  5.87339310  0.05558422
   7.73577694  5.91083686  3.78245538
   3.86792296  1.92370732  0.01870755
   3.86784428  5.90188594  3.84586302
   7.73584282  7.78643990  1.91286339
   7.73575760  3.90092060  1.84509815
   3.86792517  0.00976425  1.91351735
   3.86781774  3.88448285  5.82838256
 


--------------------------------------------------------------------------------------------------------


 k-point  1 :   0.1250 0.1250 0.1250  plane waves:   19486
 k-point  2 :   0.3750 0.1250 0.1250  plane waves:   19480
 k-point  3 :  -0.3750 0.1250 0.1250  plane waves:   19480
 k-point  4 :  -0.1250 0.1250 0.1250  plane waves:   19486
 k-point  5 :   0.1250 0.3750 0.1250  plane waves:   19490
 k-point  6 :   0.3750 0.3750 0.1250  plane waves:   19476
 k-point  7 :  -0.3750 0.3750 0.1250  plane waves:   19476
 k-point  8 :  -0.1250 0.3750 0.1250  plane waves:   19490
 k-point  9 :   0.1250-0.3750 0.1250  plane waves:   19492
 k-point 10 :   0.3750-0.3750 0.1250  plane waves:   19474
 k-point 11 :  -0.3750-0.3750 0.1250  plane waves:   19474
 k-point 12 :  -0.1250-0.3750 0.1250  plane waves:   19491
 k-point 13 :   0.1250-0.1250 0.1250  plane waves:   19491
 k-point 14 :   0.3750-0.1250 0.1250  plane waves:   19479
 k-point 15 :  -0.3750-0.1250 0.1250  plane waves:   19479
 k-point 16 :  -0.1250-0.1250 0.1250  plane waves:   19491
 k-point 17 :   0.1250 0.1250 0.3750  plane waves:   19472
 k-point 18 :   0.3750 0.1250 0.3750  plane waves:   19467
 k-point 19 :  -0.3750 0.1250 0.3750  plane waves:   19467
 k-point 20 :  -0.1250 0.1250 0.3750  plane waves:   19472
 k-point 21 :   0.1250 0.3750 0.3750  plane waves:   19453
 k-point 22 :   0.3750 0.3750 0.3750  plane waves:   19477
 k-point 23 :  -0.3750 0.3750 0.3750  plane waves:   19477
 k-point 24 :  -0.1250 0.3750 0.3750  plane waves:   19453
 k-point 25 :   0.1250-0.3750 0.3750  plane waves:   19453
 k-point 26 :   0.3750-0.3750 0.3750  plane waves:   19475
 k-point 27 :  -0.3750-0.3750 0.3750  plane waves:   19474
 k-point 28 :  -0.1250-0.3750 0.3750  plane waves:   19453
 k-point 29 :   0.1250-0.1250 0.3750  plane waves:   19472
 k-point 30 :   0.3750-0.1250 0.3750  plane waves:   19462
 k-point 31 :  -0.3750-0.1250 0.3750  plane waves:   19462
 k-point 32 :  -0.1250-0.1250 0.3750  plane waves:   19472

 maximum and minimum number of plane-waves per node :      2457     2408

 maximum number of plane-waves:     19492
 maximum index in each direction: 
   IXMAX=   17   IYMAX=   17   IZMAX=   16
   IXMIN=  -17   IYMIN=  -17   IZMIN=  -16


 real space projection operators:
  total allocation   :      18491.77 KBytes
  max/ min on nodes  :       2453.27       1924.84


 parallel 3D FFT for wavefunctions:
    minimum data exchange during FFTs selected (reduces bandwidth)
 parallel 3D FFT for charge:
    minimum data exchange during FFTs selected (reduces bandwidth)


 total amount of memory used by VASP MPI-rank0   107017. kBytes
=======================================================================

   base      :      30000. kBytes
   nonlr-proj:       8568. kBytes
   fftplans  :       8424. kBytes
   grid      :       8783. kBytes
   one-center:        124. kBytes
   wavefun   :      51118. kBytes
 
     INWAV:  cpu time   29.9145: real time   36.8529
 Broyden mixing: mesh for mixing (old mesh)
   NGX = 33   NGY = 33   NGZ = 33
  (NGX  =140   NGY  =140   NGZ  =140)
  gives a total of  35937 points

 charge density for first step will be calculated from the start-wavefunctions


--------------------------------------------------------------------------------------------------------


 Maximum index for non-local projection operator         1369
 Maximum index for augmentation-charges         7097 (set IRDMAX)


--------------------------------------------------------------------------------------------------------


 initial charge from wavefunction
 First call to EWALD:  gamma=   0.229
 Maximum number of real-space cells 3x 3x 3
 Maximum number of reciprocal cells 3x 3x 3

    FEWALD:  cpu time    0.0040: real time    0.0037


--------------------------------------- Iteration      1(   1)  ---------------------------------------


    POTLOK:  cpu time    0.2750: real time    0.3006
    SETDIJ:  cpu time    0.8779: real time    0.8749
     EDDAV:  cpu time   29.2556: real time   29.2480
       DOS:  cpu time    0.0040: real time    0.0035
    CHARGE:  cpu time    1.2138: real time    1.2120
    MIXING:  cpu time    0.0020: real time    0.0021
    --------------------------------------------
      LOOP:  cpu time   31.6282: real time   31.6412

 eigenvalue-minimisations  : 20480
 total energy-change (2. order) :-0.2115603E+03  (-0.7276245E-03)
 number of electron     240.0000002 magnetization      -0.0000000
 augmentation part       61.9713341 magnetization       0.0000000

 Broyden mixing:
  rms(total) = 0.10384E-02    rms(broyden)= 0.10375E-02
  rms(prec ) = 0.18552E-02
  weight for this iteration     100.00

 Free energy of the ion-electron system (eV)
  ---------------------------------------------------
  alpha Z        PSCENC =       756.14031123
  Ewald energy   TEWEN  =    -12751.72278298
  -Hartree energ DENC   =     -8274.13948364
  -exchange      EXHF   =         0.00000000
  -V(xc)+E(xc)   XCENC  =      1119.58552429
  PAW double counting   =     18020.83852870   -18143.69930034
  entropy T*S    EENTRO =        -0.00000000
  eigenvalues    EBANDS =     -3240.91629159
  atomic energy  EATOM  =     22302.35321627
  Solvation  Ediel_sol  =         0.00000000
  ---------------------------------------------------
  free energy    TOTEN  =      -211.56027806 eV

  energy without entropy =     -211.56027806  energy(sigma->0) =     -211.56027806


--------------------------------------------------------------------------------------------------------




--------------------------------------- Iteration      1(   2)  ---------------------------------------


    POTLOK:  cpu time    0.1970: real time    0.2085
    SETDIJ:  cpu time    0.8939: real time    0.8934
     EDDAV:  cpu time   36.0615: real time   36.0448
       DOS:  cpu time    0.0030: real time    0.0035
    CHARGE:  cpu time    1.2078: real time    1.2050
    MIXING:  cpu time    0.0820: real time    0.0818
    --------------------------------------------
      LOOP:  cpu time   38.4452: real time   38.4371

 eigenvalue-minimisations  : 26624
 total energy-change (2. order) : 0.7908457E-06  (-0.1041106E-05)
 number of electron     240.0000002 magnetization      -0.0000000
 augmentation part       61.9722279 magnetization       0.0000000

 Broyden mixing:
  rms(total) = 0.86509E-03    rms(broyden)= 0.86427E-03
  rms(prec ) = 0.14713E-02
  weight for this iteration     100.00

 eigenvalues of (default mixing * dielectric matrix)
  average eigenvalue GAMMA=   0.5444
  0.5444

 Free energy of the ion-electron system (eV)
  ---------------------------------------------------
  alpha Z        PSCENC =       756.14031123
  Ewald energy   TEWEN  =    -12751.72278298
  -Hartree energ DENC   =     -8274.12376600
  -exchange      EXHF   =         0.00000000
  -V(xc)+E(xc)   XCENC  =      1119.58572939
  PAW double counting   =     18020.81083209   -18143.67379922
  entropy T*S    EENTRO =        -0.00000000
  eigenvalues    EBANDS =     -3240.93001805
  atomic energy  EATOM  =     22302.35321627
  Solvation  Ediel_sol  =         0.00000000
  ---------------------------------------------------
  free energy    TOTEN  =      -211.56027726 eV

  energy without entropy =     -211.56027726  energy(sigma->0) =     -211.56027726


--------------------------------------------------------------------------------------------------------




--------------------------------------- Iteration      1(   3)  ---------------------------------------


    POTLOK:  cpu time    0.1750: real time    0.1922
    SETDIJ:  cpu time    0.8829: real time    0.8804
     EDDAV:  cpu time   27.3358: real time   27.3280
       DOS:  cpu time    0.0040: real time    0.0037
    CHARGE:  cpu time    1.3608: real time    1.3603
    MIXING:  cpu time    0.0090: real time    0.0093
    --------------------------------------------
      LOOP:  cpu time   29.7675: real time   29.7739

 eigenvalue-minimisations  : 18336
 total energy-change (2. order) : 0.1602268E-05  (-0.1547061E-06)
 number of electron     240.0000002 magnetization      -0.0000000
 augmentation part       61.9718070 magnetization      -0.0000000

 Broyden mixing:
  rms(total) = 0.11388E-03    rms(broyden)= 0.10813E-03
  rms(prec ) = 0.15089E-03
  weight for this iteration     100.00

 eigenvalues of (default mixing * dielectric matrix)
  average eigenvalue GAMMA=   0.6588
  0.6588  0.6588

 Free energy of the ion-electron system (eV)
  ---------------------------------------------------
  alpha Z        PSCENC =       756.14031123
  Ewald energy   TEWEN  =    -12751.72278298
  -Hartree energ DENC   =     -8274.12476202
  -exchange      EXHF   =         0.00000000
  -V(xc)+E(xc)   XCENC  =      1119.58527598
  PAW double counting   =     18020.82468750   -18143.68648164
  entropy T*S    EENTRO =        -0.00000000
  eigenvalues    EBANDS =     -3240.92974000
  atomic energy  EATOM  =     22302.35321627
  Solvation  Ediel_sol  =         0.00000000
  ---------------------------------------------------
  free energy    TOTEN  =      -211.56027566 eV

  energy without entropy =     -211.56027566  energy(sigma->0) =     -211.56027566


--------------------------------------------------------------------------------------------------------




--------------------------------------- Iteration      1(   4)  ---------------------------------------


    POTLOK:  cpu time    0.2310: real time    0.2414
    SETDIJ:  cpu time    0.8889: real time    0.8882
     EDDAV:  cpu time   19.6440: real time   19.6304
       DOS:  cpu time    0.0040: real time    0.0034
    --------------------------------------------
      LOOP:  cpu time   20.7678: real time   20.7634

 eigenvalue-minimisations  : 10896
 total energy-change (2. order) :-0.3555033E-07  (-0.3948267E-07)
 number of electron     240.0000002 magnetization      -0.0000000
 augmentation part       61.9718070 magnetization      -0.0000000

 Free energy of the ion-electron system (eV)
  ---------------------------------------------------
  alpha Z        PSCENC =       756.14031123
  Ewald energy   TEWEN  =    -12751.72278298
  -Hartree energ DENC   =     -8274.12074886
  -exchange      EXHF   =         0.00000000
  -V(xc)+E(xc)   XCENC  =      1119.58504790
  PAW double counting   =     18020.82339204   -18143.68524591
  entropy T*S    EENTRO =        -0.00000000
  eigenvalues    EBANDS =     -3240.93346539
  atomic energy  EATOM  =     22302.35321627
  Solvation  Ediel_sol  =         0.00000000
  ---------------------------------------------------
  free energy    TOTEN  =      -211.56027570 eV

  energy without entropy =     -211.56027570  energy(sigma->0) =     -211.56027570


--------------------------------------------------------------------------------------------------------




 average (electrostatic) potential at core
  the test charge radii are     1.0397  0.7215  0.7167
  (the norm of the test charge is              1.0000)
       1 -60.2750       2 -60.1760       3 -59.1239       4 -58.0620       5 -58.5772
       6 -58.3363       7 -58.3090       8 -57.9146       9 -72.5984      10 -72.5964
      11 -73.5564      12 -73.7611      13 -75.2430      14 -74.3278      15 -73.8253
      16 -73.5469      17 -80.1007      18 -79.8971      19 -79.5033      20 -80.1007
      21 -79.8970      22 -79.5033      23 -80.1672      24 -79.7977      25 -80.1828
      26 -79.8017      27 -78.1717      28 -77.8685      29 -79.4945      30 -78.6707
      31 -78.4497      32 -78.0274
 
 
 
 E-fermi :   0.0576     XC(G=0):  -8.9709     alpha+bet : -7.6303


 spin component 1

 k-point     1 :       0.1250    0.1250    0.1250
  band No.  band energies     occupation 
      1     -36.2475      1.00000
      2     -36.2353      1.00000
      3     -36.1210      1.00000
      4     -36.1182      1.00000
      5     -36.0684      1.00000
      6     -35.9615      1.00000
      7     -35.2340      1.00000
      8     -35.1582      1.00000
      9     -34.9432      1.00000
     10     -34.6997      1.00000
     11     -34.4523      1.00000
     12     -34.4450      1.00000
     13     -34.4007      1.00000
     14     -34.3948      1.00000
     15     -34.2495      1.00000
     16     -34.2029      1.00000
     17     -34.1957      1.00000
     18     -34.1498      1.00000
     19     -34.1412      1.00000
     20     -34.0527      1.00000
     21     -33.7949      1.00000
     22     -33.7826      1.00000
     23     -33.6117      1.00000
     24     -33.5452      1.00000
     25     -24.1230      1.00000
     26     -23.9029      1.00000
     27     -23.8407      1.00000
     28     -23.5978      1.00000
     29     -23.5862      1.00000
     30     -23.4816      1.00000
     31     -23.3743      1.00000
     32     -23.2699      1.00000
     33     -23.1609      1.00000
     34     -23.1410      1.00000
     35     -22.8957      1.00000
     36     -22.3475      1.00000
     37     -22.1404      1.00000
     38     -21.8377      1.00000
     39     -21.6867      1.00000
     40     -21.5079      1.00000
     41     -17.7026      1.00000
     42     -16.6874      1.00000
     43     -16.3786      1.00000
     44     -16.2172      1.00000
     45     -16.0469      1.00000
     46     -15.8684      1.00000
     47     -15.3551      1.00000
     48     -14.7152      1.00000
     49      -7.6698      1.00000
     50      -7.5436      1.00000
     51      -7.3838      1.00000
     52      -7.2712      1.00000
     53      -6.9837      1.00000
     54      -6.9216      1.00000
     55      -6.3212      1.00000
     56      -6.2570      1.00000
     57      -6.2188      1.00000
     58      -6.0438      1.00000
     59      -5.9803      1.00000
     60      -5.9499      1.00000
     61      -5.8913      1.00000
     62      -5.8478      1.00000
     63      -5.7628      1.00000
     64      -5.6839      1.00000
     65      -5.6105      1.00000
     66      -5.3957      1.00000
     67      -5.2749      1.00000
     68      -5.2297      1.00000
     69      -5.1432      1.00000
     70      -5.1233      1.00000
     71      -5.1118      1.00000
     72      -5.0811      1.00000
     73      -5.0616      1.00000
     74      -5.0536      1.00000
     75      -4.9311      1.00000
     76      -4.8498      1.00000
     77      -4.7004      1.00000
     78      -4.6161      1.00000
     79      -4.5561      1.00000
     80      -4.5354      1.00000
     81      -4.4514      1.00000
     82      -4.3454      1.00000
     83      -4.2845      1.00000
     84      -4.2496      1.00000
     85      -4.1857      1.00000
     86      -4.0230      1.00000
     87      -3.9903      1.00000
     88      -3.9777      1.00000
     89      -3.5882      1.00000
     90      -3.5379      1.00000
     91      -3.4676      1.00000
     92      -3.4417      1.00000
     93      -3.3426      1.00000
     94      -3.2069      1.00000
     95      -3.1887      1.00000
     96      -3.1021      1.00000
     97      -3.0275      1.00000
     98      -2.9514      1.00000
     99      -2.9429      1.00000
    100      -2.9020      1.00000
    101      -2.8384      1.00000
    102      -2.7710      1.00000
    103      -2.7471      1.00000
    104      -2.7158      1.00000
    105      -2.3844      1.00000
    106      -2.2798      1.00000
    107      -2.1837      1.00000
    108      -2.0259      1.00000
    109      -1.9028      1.00000
    110      -1.8694      1.00000
    111      -1.8046      1.00000
    112      -1.7509      1.00000
    113      -1.5948      1.00000
    114      -1.5681      1.00000
    115      -0.6718      1.00000
    116      -0.5119      1.00000
    117      -0.2136      1.00000
    118      -0.1876      1.00000
    119      -0.0936      1.00000
    120      -0.0092      1.00000
    121       1.2036      0.00000
    122       1.2235      0.00000
    123       1.4207      0.00000
    124       1.7367      0.00000
    125       2.3584      0.00000
    126       2.4130      0.00000
    127       2.4666      0.00000
    128       2.4809      0.00000
    129       2.4902      0.00000
    130       2.5475      0.00000
    131       2.5677      0.00000
    132       2.6218      0.00000
    133       2.6948      0.00000
    134       2.8355      0.00000
    135       2.9517      0.00000
    136       3.0121      0.00000
    137       3.4686      0.00000
    138       3.5743      0.00000
    139       3.7761      0.00000
    140       3.8179      0.00000
    141       3.8195      0.00000
    142       3.8389      0.00000
    143       3.8850      0.00000
    144       3.9222      0.00000
    145       3.9652      0.00000
    146       4.0106      0.00000
    147       4.0439      0.00000
    148       4.1274      0.00000
    149       4.3695      0.00000
    150       4.7226      0.00000
    151       4.7611      0.00000
    152       4.8166      0.00000
    153       4.8682      0.00000
    154       5.0676      0.00000
    155       5.3567      0.00000
    156       5.6810      0.00000
    157       5.8520      0.00000
    158       6.1920      0.00000
    159       6.3787      0.00000
    160       7.4152      0.00000

 k-point     2 :       0.3750    0.1250    0.1250
  band No.  band energies     occupation 
      1     -36.2463      1.00000
      2     -36.2353      1.00000
      3     -36.1199      1.00000
      4     -36.1182      1.00000
      5     -36.0684      1.00000
      6     -35.9615      1.00000
      7     -35.2340      1.00000
      8     -35.1551      1.00000
      9     -34.9432      1.00000
     10     -34.7019      1.00000
     11     -34.4522      1.00000
     12     -34.4471      1.00000
     13     -34.4007      1.00000
     14     -34.3988      1.00000
     15     -34.2495      1.00000
     16     -34.2029      1.00000
     17     -34.1957      1.00000
     18     -34.1498      1.00000
     19     -34.1412      1.00000
     20     -34.0527      1.00000
     21     -33.7949      1.00000
     22     -33.7826      1.00000
     23     -33.6017      1.00000
     24     -33.5553      1.00000
     25     -24.0932      1.00000
     26     -23.8158      1.00000
     27     -23.7681      1.00000
     28     -23.6082      1.00000
     29     -23.5830      1.00000
     30     -23.5539      1.00000
     31     -23.3942      1.00000
     32     -23.2457      1.00000
     33     -23.1596      1.00000
     34     -23.1382      1.00000
     35     -23.0360      1.00000
     36     -22.3461      1.00000
     37     -22.1386      1.00000
     38     -21.8365      1.00000
     39     -21.6865      1.00000
     40     -21.5076      1.00000
     41     -17.7025      1.00000
     42     -16.6863      1.00000
     43     -16.3783      1.00000
     44     -16.2171      1.00000
     45     -16.0391      1.00000
     46     -15.8684      1.00000
     47     -15.2167      1.00000
     48     -14.8864      1.00000
     49      -7.6533      1.00000
     50      -7.2713      1.00000
     51      -7.2169      1.00000
     52      -7.0436      1.00000
     53      -6.9145      1.00000
     54      -6.6096      1.00000
     55      -6.5941      1.00000
     56      -6.3529      1.00000
     57      -6.3220      1.00000
     58      -6.1516      1.00000
     59      -6.0448      1.00000
     60      -5.9798      1.00000
     61      -5.9507      1.00000
     62      -5.8283      1.00000
     63      -5.7831      1.00000
     64      -5.7610      1.00000
     65      -5.6703      1.00000
     66      -5.4053      1.00000
     67      -5.3309      1.00000
     68      -5.2850      1.00000
     69      -5.2081      1.00000
     70      -5.1845      1.00000
     71      -5.0966      1.00000
     72      -5.0604      1.00000
     73      -5.0390      1.00000
     74      -5.0010      1.00000
     75      -4.9732      1.00000
     76      -4.9212      1.00000
     77      -4.8223      1.00000
     78      -4.6886      1.00000
     79      -4.6067      1.00000
     80      -4.5688      1.00000
     81      -4.5496      1.00000
     82      -4.5155      1.00000
     83      -4.3292      1.00000
     84      -4.0961      1.00000
     85      -4.0784      1.00000
     86      -4.0264      1.00000
     87      -3.9911      1.00000
     88      -3.9256      1.00000
     89      -3.5962      1.00000
     90      -3.4693      1.00000
     91      -3.3446      1.00000
     92      -3.3356      1.00000
     93      -3.2791      1.00000
     94      -3.2018      1.00000
     95      -3.1136      1.00000
     96      -3.1034      1.00000
     97      -2.9843      1.00000
     98      -2.9559      1.00000
     99      -2.8648      1.00000
    100      -2.8471      1.00000
    101      -2.8276      1.00000
    102      -2.7697      1.00000
    103      -2.7322      1.00000
    104      -2.7070      1.00000
    105      -2.3417      1.00000
    106      -2.2816      1.00000
    107      -2.1816      1.00000
    108      -2.0004      1.00000
    109      -1.9044      1.00000
    110      -1.8635      1.00000
    111      -1.7989      1.00000
    112      -1.7521      1.00000
    113      -1.5749      1.00000
    114      -1.5703      1.00000
    115      -1.4054      1.00000
    116      -0.6382      1.00000
    117      -0.3444      1.00000
    118      -0.1764      1.00000
    119      -0.1455      1.00000
    120      -0.0490      1.00000
    121       1.2037      0.00000
    122       1.2734      0.00000
    123       1.4966      0.00000
    124       1.8216      0.00000
    125       2.3722      0.00000
    126       2.4570      0.00000
    127       2.4704      0.00000
    128       2.4782      0.00000
    129       2.5070      0.00000
    130       2.5633      0.00000
    131       2.5887      0.00000
    132       2.6716      0.00000
    133       2.8065      0.00000
    134       2.8917      0.00000
    135       3.0809      0.00000
    136       3.3012      0.00000
    137       3.3359      0.00000
    138       3.8045      0.00000
    139       3.8093      0.00000
    140       3.8388      0.00000
    141       3.8489      0.00000
    142       3.8675      0.00000
    143       3.9449      0.00000
    144       4.0032      0.00000
    145       4.0415      0.00000
    146       4.1291      0.00000
    147       4.1517      0.00000
    148       4.2520      0.00000
    149       4.3703      0.00000
    150       4.4677      0.00000
    151       4.5704      0.00000
    152       4.7546      0.00000
    153       4.8740      0.00000
    154       4.9461      0.00000
    155       5.4310      0.00000
    156       5.6781      0.00000
    157       5.9813      0.00000
    158       6.0905      0.00000
    159       6.6584      0.00000
    160       6.8852      0.00000

 k-point     3 :      -0.3750    0.1250    0.1250
  band No.  band energies     occupation 
      1     -36.2463      1.00000
      2     -36.2353      1.00000
      3     -36.1199      1.00000
      4     -36.1182      1.00000
      5     -36.0684      1.00000
      6     -35.9615      1.00000
      7     -35.2340      1.00000
      8     -35.1551      1.00000
      9     -34.9432      1.00000
     10     -34.7019      1.00000
     11     -34.4522      1.00000
     12     -34.4471      1.00000
     13     -34.4007      1.00000
     14     -34.3988      1.00000
     15     -34.2495      1.00000
     16     -34.2029      1.00000
     17     -34.1957      1.00000
     18     -34.1498      1.00000
     19     -34.1412      1.00000
     20     -34.0527      1.00000
     21     -33.7949      1.00000
     22     -33.7826      1.00000
     23     -33.6017      1.00000
     24     -33.5553      1.00000
     25     -24.0932      1.00000
     26     -23.8158      1.00000
     27     -23.7681      1.00000
     28     -23.6082      1.00000
     29     -23.5830      1.00000
     30     -23.5539      1.00000
     31     -23.3942      1.00000
     32     -23.2457      1.00000
     33     -23.1596      1.00000
     34     -23.1382      1.00000
     35     -23.0360      1.00000
     36     -22.3461      1.00000
     37     -22.1386      1.00000
     38     -21.8365      1.00000
     39     -21.6865      1.00000
     40     -21.5076      1.00000
     41     -17.7025      1.00000
     42     -16.6863      1.00000
     43     -16.3783      1.00000
     44     -16.2171      1.00000
     45     -16.0391      1.00000
     46     -15.8684      1.00000
     47     -15.2167      1.00000
     48     -14.8864      1.00000
     49      -7.6533      1.00000
     50      -7.2713      1.00000
     51      -7.2169      1.00000
     52      -7.0436      1.00000
     53      -6.9145      1.00000
     54      -6.6096      1.00000
     55      -6.5941      1.00000
     56      -6.3529      1.00000
     57      -6.3220      1.00000
     58      -6.1516      1.00000
     59      -6.0448      1.00000
     60      -5.9798      1.00000
     61      -5.9507      1.00000
     62      -5.8283      1.00000
     63      -5.7832      1.00000
     64      -5.7610      1.00000
     65      -5.6703      1.00000
     66      -5.4053      1.00000
     67      -5.3309      1.00000
     68      -5.2851      1.00000
     69      -5.2081      1.00000
     70      -5.1845      1.00000
     71      -5.0966      1.00000
     72      -5.0604      1.00000
     73      -5.0390      1.00000
     74      -5.0010      1.00000
     75      -4.9731      1.00000
     76      -4.9212      1.00000
     77      -4.8224      1.00000
     78      -4.6886      1.00000
     79      -4.6067      1.00000
     80      -4.5688      1.00000
     81      -4.5496      1.00000
     82      -4.5155      1.00000
     83      -4.3292      1.00000
     84      -4.0961      1.00000
     85      -4.0784      1.00000
     86      -4.0264      1.00000
     87      -3.9911      1.00000
     88      -3.9256      1.00000
     89      -3.5962      1.00000
     90      -3.4693      1.00000
     91      -3.3446      1.00000
     92      -3.3356      1.00000
     93      -3.2790      1.00000
     94      -3.2018      1.00000
     95      -3.1136      1.00000
     96      -3.1034      1.00000
     97      -2.9843      1.00000
     98      -2.9559      1.00000
     99      -2.8648      1.00000
    100      -2.8471      1.00000
    101      -2.8277      1.00000
    102      -2.7696      1.00000
    103      -2.7324      1.00000
    104      -2.7070      1.00000
    105      -2.3417      1.00000
    106      -2.2815      1.00000
    107      -2.1816      1.00000
    108      -2.0003      1.00000
    109      -1.9044      1.00000
    110      -1.8634      1.00000
    111      -1.7989      1.00000
    112      -1.7521      1.00000
    113      -1.5749      1.00000
    114      -1.5702      1.00000
    115      -1.4055      1.00000
    116      -0.6382      1.00000
    117      -0.3444      1.00000
    118      -0.1764      1.00000
    119      -0.1455      1.00000
    120      -0.0489      1.00000
    121       1.2037      0.00000
    122       1.2734      0.00000
    123       1.4966      0.00000
    124       1.8216      0.00000
    125       2.3722      0.00000
    126       2.4570      0.00000
    127       2.4704      0.00000
    128       2.4782      0.00000
    129       2.5070      0.00000
    130       2.5633      0.00000
    131       2.5887      0.00000
    132       2.6716      0.00000
    133       2.8064      0.00000
    134       2.8917      0.00000
    135       3.0807      0.00000
    136       3.3015      0.00000
    137       3.3360      0.00000
    138       3.8047      0.00000
    139       3.8093      0.00000
    140       3.8387      0.00000
    141       3.8490      0.00000
    142       3.8673      0.00000
    143       3.9449      0.00000
    144       4.0032      0.00000
    145       4.0414      0.00000
    146       4.1293      0.00000
    147       4.1516      0.00000
    148       4.2520      0.00000
    149       4.3703      0.00000
    150       4.4676      0.00000
    151       4.5703      0.00000
    152       4.7546      0.00000
    153       4.8740      0.00000
    154       4.9461      0.00000
    155       5.4310      0.00000
    156       5.6781      0.00000
    157       5.9813      0.00000
    158       6.0905      0.00000
    159       6.6586      0.00000
    160       6.8852      0.00000

 k-point     4 :      -0.1250    0.1250    0.1250
  band No.  band energies     occupation 
      1     -36.2475      1.00000
      2     -36.2353      1.00000
      3     -36.1210      1.00000
      4     -36.1182      1.00000
      5     -36.0684      1.00000
      6     -35.9615      1.00000
      7     -35.2340      1.00000
      8     -35.1582      1.00000
      9     -34.9432      1.00000
     10     -34.6997      1.00000
     11     -34.4523      1.00000
     12     -34.4450      1.00000
     13     -34.4007      1.00000
     14     -34.3948      1.00000
     15     -34.2495      1.00000
     16     -34.2029      1.00000
     17     -34.1957      1.00000
     18     -34.1498      1.00000
     19     -34.1412      1.00000
     20     -34.0527      1.00000
     21     -33.7949      1.00000
     22     -33.7826      1.00000
     23     -33.6117      1.00000
     24     -33.5452      1.00000
     25     -24.1230      1.00000
     26     -23.9029      1.00000
     27     -23.8407      1.00000
     28     -23.5978      1.00000
     29     -23.5862      1.00000
     30     -23.4816      1.00000
     31     -23.3743      1.00000
     32     -23.2699      1.00000
     33     -23.1609      1.00000
     34     -23.1410      1.00000
     35     -22.8957      1.00000
     36     -22.3475      1.00000
     37     -22.1404      1.00000
     38     -21.8377      1.00000
     39     -21.6867      1.00000
     40     -21.5079      1.00000
     41     -17.7026      1.00000
     42     -16.6874      1.00000
     43     -16.3786      1.00000
     44     -16.2172      1.00000
     45     -16.0469      1.00000
     46     -15.8684      1.00000
     47     -15.3551      1.00000
     48     -14.7152      1.00000
     49      -7.6698      1.00000
     50      -7.5436      1.00000
     51      -7.3838      1.00000
     52      -7.2712      1.00000
     53      -6.9837      1.00000
     54      -6.9216      1.00000
     55      -6.3212      1.00000
     56      -6.2570      1.00000
     57      -6.2188      1.00000
     58      -6.0438      1.00000
     59      -5.9803      1.00000
     60      -5.9499      1.00000
     61      -5.8913      1.00000
     62      -5.8478      1.00000
     63      -5.7628      1.00000
     64      -5.6839      1.00000
     65      -5.6105      1.00000
     66      -5.3957      1.00000
     67      -5.2749      1.00000
     68      -5.2297      1.00000
     69      -5.1432      1.00000
     70      -5.1233      1.00000
     71      -5.1119      1.00000
     72      -5.0811      1.00000
     73      -5.0616      1.00000
     74      -5.0536      1.00000
     75      -4.9311      1.00000
     76      -4.8498      1.00000
     77      -4.7004      1.00000
     78      -4.6162      1.00000
     79      -4.5561      1.00000
     80      -4.5353      1.00000
     81      -4.4514      1.00000
     82      -4.3454      1.00000
     83      -4.2845      1.00000
     84      -4.2496      1.00000
     85      -4.1857      1.00000
     86      -4.0230      1.00000
     87      -3.9903      1.00000
     88      -3.9777      1.00000
     89      -3.5882      1.00000
     90      -3.5381      1.00000
     91      -3.4675      1.00000
     92      -3.4417      1.00000
     93      -3.3426      1.00000
     94      -3.2068      1.00000
     95      -3.1887      1.00000
     96      -3.1021      1.00000
     97      -3.0276      1.00000
     98      -2.9515      1.00000
     99      -2.9428      1.00000
    100      -2.9020      1.00000
    101      -2.8384      1.00000
    102      -2.7710      1.00000
    103      -2.7471      1.00000
    104      -2.7157      1.00000
    105      -2.3844      1.00000
    106      -2.2798      1.00000
    107      -2.1837      1.00000
    108      -2.0258      1.00000
    109      -1.9028      1.00000
    110      -1.8694      1.00000
    111      -1.8046      1.00000
    112      -1.7509      1.00000
    113      -1.5948      1.00000
    114      -1.5681      1.00000
    115      -0.6718      1.00000
    116      -0.5119      1.00000
    117      -0.2136      1.00000
    118      -0.1877      1.00000
    119      -0.0936      1.00000
    120      -0.0091      1.00000
    121       1.2036      0.00000
    122       1.2235      0.00000
    123       1.4207      0.00000
    124       1.7367      0.00000
    125       2.3584      0.00000
    126       2.4130      0.00000
    127       2.4666      0.00000
    128       2.4809      0.00000
    129       2.4902      0.00000
    130       2.5475      0.00000
    131       2.5677      0.00000
    132       2.6218      0.00000
    133       2.6948      0.00000
    134       2.8355      0.00000
    135       2.9513      0.00000
    136       3.0126      0.00000
    137       3.4685      0.00000
    138       3.5744      0.00000
    139       3.7761      0.00000
    140       3.8180      0.00000
    141       3.8195      0.00000
    142       3.8388      0.00000
    143       3.8850      0.00000
    144       3.9222      0.00000
    145       3.9652      0.00000
    146       4.0105      0.00000
    147       4.0440      0.00000
    148       4.1274      0.00000
    149       4.3695      0.00000
    150       4.7223      0.00000
    151       4.7613      0.00000
    152       4.8167      0.00000
    153       4.8682      0.00000
    154       5.0676      0.00000
    155       5.3567      0.00000
    156       5.6810      0.00000
    157       5.8520      0.00000
    158       6.1921      0.00000
    159       6.3787      0.00000
    160       7.4152      0.00000

 k-point     5 :       0.1250    0.3750    0.1250
  band No.  band energies     occupation 
      1     -36.2475      1.00000
      2     -36.2336      1.00000
      3     -36.1210      1.00000
      4     -36.1173      1.00000
      5     -36.0684      1.00000
      6     -35.9615      1.00000
      7     -35.2366      1.00000
      8     -35.1582      1.00000
      9     -34.9432      1.00000
     10     -34.6997      1.00000
     11     -34.4516      1.00000
     12     -34.4450      1.00000
     13     -34.3968      1.00000
     14     -34.3948      1.00000
     15     -34.2495      1.00000
     16     -34.2075      1.00000
     17     -34.1974      1.00000
     18     -34.1472      1.00000
     19     -34.1415      1.00000
     20     -34.0527      1.00000
     21     -33.7960      1.00000
     22     -33.7844      1.00000
     23     -33.6117      1.00000
     24     -33.5452      1.00000
     25     -24.0555      1.00000
     26     -23.8551      1.00000
     27     -23.8188      1.00000
     28     -23.7151      1.00000
     29     -23.5148      1.00000
     30     -23.4812      1.00000
     31     -23.3675      1.00000
     32     -23.2754      1.00000
     33     -23.2662      1.00000
     34     -23.1406      1.00000
     35     -22.8956      1.00000
     36     -22.3460      1.00000
     37     -22.1393      1.00000
     38     -21.8338      1.00000
     39     -21.6849      1.00000
     40     -21.5039      1.00000
     41     -17.7025      1.00000
     42     -16.6874      1.00000
     43     -16.3874      1.00000
     44     -16.2337      1.00000
     45     -16.0517      1.00000
     46     -15.8751      1.00000
     47     -15.3535      1.00000
     48     -14.7152      1.00000
     49      -7.5608      1.00000
     50      -7.3830      1.00000
     51      -7.3038      1.00000
     52      -6.9914      1.00000
     53      -6.9531      1.00000
     54      -6.8936      1.00000
     55      -6.6999      1.00000
     56      -6.2574      1.00000
     57      -6.2269      1.00000
     58      -6.1021      1.00000
     59      -5.9821      1.00000
     60      -5.9561      1.00000
     61      -5.8918      1.00000
     62      -5.7934      1.00000
     63      -5.7879      1.00000
     64      -5.6807      1.00000
     65      -5.6054      1.00000
     66      -5.4684      1.00000
     67      -5.3873      1.00000
     68      -5.2873      1.00000
     69      -5.1851      1.00000
     70      -5.1605      1.00000
     71      -5.1168      1.00000
     72      -5.0979      1.00000
     73      -5.0249      1.00000
     74      -4.9345      1.00000
     75      -4.9063      1.00000
     76      -4.8092      1.00000
     77      -4.6962      1.00000
     78      -4.5939      1.00000
     79      -4.4921      1.00000
     80      -4.4730      1.00000
     81      -4.3858      1.00000
     82      -4.3258      1.00000
     83      -4.2221      1.00000
     84      -4.1385      1.00000
     85      -4.1130      1.00000
     86      -3.9945      1.00000
     87      -3.9780      1.00000
     88      -3.9419      1.00000
     89      -3.6672      1.00000
     90      -3.5429      1.00000
     91      -3.4985      1.00000
     92      -3.4771      1.00000
     93      -3.4653      1.00000
     94      -3.4426      1.00000
     95      -3.2489      1.00000
     96      -3.2171      1.00000
     97      -3.0588      1.00000
     98      -3.0303      1.00000
     99      -2.9605      1.00000
    100      -2.9447      1.00000
    101      -2.8801      1.00000
    102      -2.8617      1.00000
    103      -2.7657      1.00000
    104      -2.6865      1.00000
    105      -2.3842      1.00000
    106      -2.3215      1.00000
    107      -2.3095      1.00000
    108      -2.1404      1.00000
    109      -2.0019      1.00000
    110      -1.9158      1.00000
    111      -1.7908      1.00000
    112      -1.7846      1.00000
    113      -1.6502      1.00000
    114      -1.1291      1.00000
    115      -0.6763      1.00000
    116      -0.5099      1.00000
    117      -0.4178      1.00000
    118      -0.1998      1.00000
    119      -0.1148      1.00000
    120      -0.0125      1.00000
    121       1.2239      0.00000
    122       1.2577      0.00000
    123       1.5503      0.00000
    124       1.8019      0.00000
    125       2.3215      0.00000
    126       2.3644      0.00000
    127       2.4380      0.00000
    128       2.4735      0.00000
    129       2.4826      0.00000
    130       2.5483      0.00000
    131       2.6497      0.00000
    132       2.8731      0.00000
    133       2.9256      0.00000
    134       2.9932      0.00000
    135       3.0607      0.00000
    136       3.2241      0.00000
    137       3.4611      0.00000
    138       3.5105      0.00000
    139       3.5616      0.00000
    140       3.7210      0.00000
    141       3.7455      0.00000
    142       3.8062      0.00000
    143       3.8760      0.00000
    144       3.9432      0.00000
    145       4.0249      0.00000
    146       4.1950      0.00000
    147       4.2449      0.00000
    148       4.3682      0.00000
    149       4.4881      0.00000
    150       4.5943      0.00000
    151       4.6951      0.00000
    152       4.8537      0.00000
    153       4.8929      0.00000
    154       5.0486      0.00000
    155       5.3851      0.00000
    156       5.4862      0.00000
    157       5.9450      0.00000
    158       6.2028      0.00000
    159       6.5276      0.00000
    160       6.9074      0.00000

 k-point     6 :       0.3750    0.3750    0.1250
  band No.  band energies     occupation 
      1     -36.2463      1.00000
      2     -36.2336      1.00000
      3     -36.1199      1.00000
      4     -36.1173      1.00000
      5     -36.0684      1.00000
      6     -35.9615      1.00000
      7     -35.2366      1.00000
      8     -35.1551      1.00000
      9     -34.9432      1.00000
     10     -34.7019      1.00000
     11     -34.4516      1.00000
     12     -34.4471      1.00000
     13     -34.3988      1.00000
     14     -34.3968      1.00000
     15     -34.2495      1.00000
     16     -34.2075      1.00000
     17     -34.1974      1.00000
     18     -34.1472      1.00000
     19     -34.1414      1.00000
     20     -34.0527      1.00000
     21     -33.7960      1.00000
     22     -33.7844      1.00000
     23     -33.6017      1.00000
     24     -33.5553      1.00000
     25     -23.9967      1.00000
     26     -23.8036      1.00000
     27     -23.7255      1.00000
     28     -23.7062      1.00000
     29     -23.6037      1.00000
     30     -23.4958      1.00000
     31     -23.3909      1.00000
     32     -23.2714      1.00000
     33     -23.2409      1.00000
     34     -23.1374      1.00000
     35     -23.0355      1.00000
     36     -22.3447      1.00000
     37     -22.1376      1.00000
     38     -21.8326      1.00000
     39     -21.6847      1.00000
     40     -21.5036      1.00000
     41     -17.7023      1.00000
     42     -16.6862      1.00000
     43     -16.3870      1.00000
     44     -16.2331      1.00000
     45     -16.0442      1.00000
     46     -15.8750      1.00000
     47     -15.2159      1.00000
     48     -14.8857      1.00000
     49      -7.3091      1.00000
     50      -7.2117      1.00000
     51      -7.0435      1.00000
     52      -6.9496      1.00000
     53      -6.8903      1.00000
     54      -6.7320      1.00000
     55      -6.6082      1.00000
     56      -6.5806      1.00000
     57      -6.3535      1.00000
     58      -6.2293      1.00000
     59      -6.1143      1.00000
     60      -5.9593      1.00000
     61      -5.8734      1.00000
     62      -5.8253      1.00000
     63      -5.7888      1.00000
     64      -5.7335      1.00000
     65      -5.6667      1.00000
     66      -5.4758      1.00000
     67      -5.4273      1.00000
     68      -5.2932      1.00000
     69      -5.2052      1.00000
     70      -5.1692      1.00000
     71      -5.1226      1.00000
     72      -5.0284      1.00000
     73      -5.0070      1.00000
     74      -4.9971      1.00000
     75      -4.9647      1.00000
     76      -4.8951      1.00000
     77      -4.7104      1.00000
     78      -4.6647      1.00000
     79      -4.6461      1.00000
     80      -4.6280      1.00000
     81      -4.5767      1.00000
     82      -4.3837      1.00000
     83      -4.1387      1.00000
     84      -4.0883      1.00000
     85      -4.0071      1.00000
     86      -3.9924      1.00000
     87      -3.9500      1.00000
     88      -3.9289      1.00000
     89      -3.6673      1.00000
     90      -3.5078      1.00000
     91      -3.4933      1.00000
     92      -3.4432      1.00000
     93      -3.3329      1.00000
     94      -3.2934      1.00000
     95      -3.2452      1.00000
     96      -3.1190      1.00000
     97      -3.0637      1.00000
     98      -2.9810      1.00000
     99      -2.9539      1.00000
    100      -2.8836      1.00000
    101      -2.8595      1.00000
    102      -2.8316      1.00000
    103      -2.7421      1.00000
    104      -2.6911      1.00000
    105      -2.3577      1.00000
    106      -2.3165      1.00000
    107      -2.3005      1.00000
    108      -2.1389      1.00000
    109      -1.9771      1.00000
    110      -1.8991      1.00000
    111      -1.7869      1.00000
    112      -1.7733      1.00000
    113      -1.6429      1.00000
    114      -1.4248      1.00000
    115      -1.1323      1.00000
    116      -0.6185      1.00000
    117      -0.4296      1.00000
    118      -0.3063      1.00000
    119      -0.0843      1.00000
    120      -0.0497      1.00000
    121       1.2574      0.00000
    122       1.2734      0.00000
    123       1.5829      0.00000
    124       1.8201      0.00000
    125       2.3667      0.00000
    126       2.3972      0.00000
    127       2.4481      0.00000
    128       2.4730      0.00000
    129       2.5098      0.00000
    130       2.5938      0.00000
    131       2.8013      0.00000
    132       2.8236      0.00000
    133       2.8772      0.00000
    134       3.1795      0.00000
    135       3.2544      0.00000
    136       3.3309      0.00000
    137       3.5268      0.00000
    138       3.5921      0.00000
    139       3.6906      0.00000
    140       3.7944      0.00000
    141       3.8283      0.00000
    142       3.9179      0.00000
    143       3.9582      0.00000
    144       4.0727      0.00000
    145       4.1093      0.00000
    146       4.1937      0.00000
    147       4.2193      0.00000
    148       4.3428      0.00000
    149       4.4381      0.00000
    150       4.5213      0.00000
    151       4.5694      0.00000
    152       4.6152      0.00000
    153       4.9131      0.00000
    154       5.0499      0.00000
    155       5.3384      0.00000
    156       5.4350      0.00000
    157       5.9364      0.00000
    158       6.2740      0.00000
    159       6.7496      0.00000
    160       6.9009      0.00000

 k-point     7 :      -0.3750    0.3750    0.1250
  band No.  band energies     occupation 
      1     -36.2463      1.00000
      2     -36.2336      1.00000
      3     -36.1199      1.00000
      4     -36.1173      1.00000
      5     -36.0684      1.00000
      6     -35.9615      1.00000
      7     -35.2366      1.00000
      8     -35.1551      1.00000
      9     -34.9432      1.00000
     10     -34.7019      1.00000
     11     -34.4516      1.00000
     12     -34.4471      1.00000
     13     -34.3988      1.00000
     14     -34.3968      1.00000
     15     -34.2495      1.00000
     16     -34.2075      1.00000
     17     -34.1974      1.00000
[...]
  0.000   0.000  -0.000   0.000   0.000  -0.000   0.000   0.000   0.000   0.000  -0.000  -0.000  -0.000  -0.000  -0.000  -0.000
 -0.000   0.000  -0.000  -0.000  -0.000  -0.000   0.000  -0.000   0.000  -0.000  -0.000  -0.000   0.000  -0.000   0.000   0.000
  0.000   0.000  -0.000  -0.000   0.000  -0.000  -0.000   0.000  -0.000  -0.000  -0.000   0.000  -0.000   0.000   0.000   0.000
  0.000  -0.000   0.000   0.000   0.000  -0.000   0.000   0.000  -0.000  -0.000   0.000  -0.000  -0.000   0.000   0.000  -0.000
  0.000  -0.000   0.000   0.000  -0.000  -0.000  -0.000  -0.000   0.000  -0.000  -0.000   0.000   0.000  -0.000   0.000   0.000
 -0.000   0.000   0.000  -0.000  -0.000   0.000   0.000  -0.000  -0.000  -0.000   0.000   0.000   0.000   0.000   0.000  -0.000
  0.000  -0.000   0.000   0.000   0.000   0.000  -0.000  -0.000  -0.000  -0.000   0.000   0.000  -0.000   0.000  -0.000  -0.000
 -0.000   0.000   0.000   0.000   0.000   0.000  -0.000  -0.000   0.000  -0.000   0.000  -0.000  -0.000  -0.000   0.000  -0.000
 -0.000   0.000   0.000   0.000  -0.000   0.000  -0.000  -0.000   0.000  -0.000   0.000   0.000   0.000  -0.000  -0.000  -0.000


------------------------ aborting loop because EDIFF is reached ----------------------------------------


 


 total charge     
 
# of ion       s       p       d       tot
------------------------------------------
    1        0.320   6.482   1.741   8.543
    2        0.323   6.492   1.725   8.540
    3        0.314   6.479   1.841   8.634
    4        0.295   6.447   1.740   8.481
    5        0.315   6.456   1.808   8.579
    6        0.314   6.457   1.819   8.590
    7        0.316   6.462   1.806   8.584
    8        0.305   6.429   1.660   8.393
    9        1.564   3.411   0.000   4.975
   10        1.564   3.411   0.000   4.975
   11        1.571   3.452   0.000   5.023
   12        1.567   3.465   0.000   5.032
   13        1.570   3.466   0.000   5.036
   14        1.575   3.456   0.000   5.031
   15        1.568   3.473   0.000   5.042
   16        1.573   3.464   0.000   5.037
   17        1.731   4.388   0.000   6.120
   18        1.731   4.388   0.000   6.120
   19        1.730   4.394   0.000   6.125
   20        1.731   4.388   0.000   6.120
   21        1.731   4.388   0.000   6.120
   22        1.730   4.394   0.000   6.125
   23        1.730   4.389   0.000   6.119
   24        1.732   4.383   0.000   6.115
   25        1.730   4.387   0.000   6.117
   26        1.732   4.384   0.000   6.116
   27        1.727   4.369   0.000   6.096
   28        1.728   4.368   0.000   6.096
   29        1.729   4.377   0.000   6.107
   30        1.730   4.382   0.000   6.112
   31        1.729   4.378   0.000   6.107
   32        1.729   4.376   0.000   6.105
--------------------------------------------------
tot         42.737 149.435  14.142 206.314
 


 magnetization (x)
 
# of ion       s       p       d       tot
------------------------------------------
    1        0.000  -0.000  -0.000  -0.000
    2        0.000   0.000   0.000   0.000
    3        0.000  -0.000  -0.000   0.000
    4        0.000   0.000   0.000   0.000
    5       -0.000   0.000   0.000   0.000
    6       -0.000   0.000   0.000   0.000
    7        0.000  -0.000  -0.000  -0.000
    8        0.000  -0.000  -0.000   0.000
    9        0.000  -0.000   0.000  -0.000
   10       -0.000  -0.000   0.000  -0.000
   11       -0.000  -0.000   0.000  -0.000
   12       -0.000  -0.000   0.000  -0.000
   13       -0.000  -0.000   0.000  -0.000
   14       -0.000  -0.000   0.000  -0.000
   15        0.000  -0.000   0.000  -0.000
   16       -0.000  -0.000   0.000  -0.000
   17       -0.000   0.000   0.000   0.000
   18        0.000  -0.000   0.000  -0.000
   19       -0.000   0.000   0.000   0.000
   20       -0.000  -0.000   0.000  -0.000
   21       -0.000  -0.000   0.000  -0.000
   22       -0.000   0.000   0.000  -0.000
   23       -0.000   0.000   0.000   0.000
   24        0.000  -0.000   0.000  -0.000
   25       -0.000   0.000   0.000   0.000
   26       -0.000  -0.000   0.000  -0.000
   27       -0.000  -0.000   0.000  -0.000
   28       -0.000   0.000   0.000   0.000
   29        0.000   0.000   0.000   0.000
   30        0.000  -0.000   0.000  -0.000
   31       -0.000   0.000   0.000  -0.000
   32        0.000   0.000   0.000   0.000
--------------------------------------------------
tot         -0.000  -0.000   0.000  -0.000
 
    CHARGE:  cpu time    1.2568: real time    1.2566
    FORLOC:  cpu time    0.0100: real time    0.0100
    FORNL :  cpu time    7.0459: real time    7.0369
    STRESS:  cpu time   21.7837: real time   21.7439
    FORCOR:  cpu time    0.1310: real time    0.1311
    FORHAR:  cpu time    0.0210: real time    0.0215
    MIXING:  cpu time    0.0020: real time    0.0016
    OFIELD:  cpu time    0.0000: real time    0.0000

  FORCE on cell =-STRESS in cart. coord.  units (eV):
  Direction    XX          YY          ZZ          XY          YZ          ZX
  --------------------------------------------------------------------------------------
  Alpha Z   756.14031   756.14031   756.14031
  Ewald   -4208.90176 -4299.35305 -4243.52260     0.02083   -13.52693     0.04131
  Hartree  2792.23755  2728.63578  2753.24410     0.00484    -3.58101     0.01722
  E(xc)   -1232.00149 -1232.07445 -1232.32606    -0.00005     0.04661    -0.00003
  Local   -2249.23243 -2094.80894 -2204.40982    -0.02843    18.43434    -0.05948
  n-local  -969.52396  -969.54015  -964.36439     0.00114    -0.88379     0.00080
  augment   753.66870   752.94552   763.01250     0.00143    -0.93515     0.00077
  Kinetic  4357.57806  4358.03935  4372.20947    -0.00013     0.44662    -0.00069
  Fock        0.00000     0.00000     0.00000     0.00000     0.00000     0.00000
  -------------------------------------------------------------------------------------
  Total      -0.03501    -0.01564    -0.01649    -0.00038     0.00069    -0.00010
  in kB      -0.12114    -0.05412    -0.05705    -0.00132     0.00239    -0.00035
  external pressure =       -0.08 kB  Pullay stress =        0.00 kB


 VOLUME and BASIS-vectors are now :
 -----------------------------------------------------------------------------
  energy-cutoff  :      700.00
  volume of cell :      463.10
      direct lattice vectors                 reciprocal lattice vectors
     7.735855134 -0.000009907 -0.000002556     0.129268191  0.000000165  0.000000043
    -0.000009968  7.787919367  0.004909945     0.000000164  0.128404052 -0.000082804
    -0.000002545  0.004956947  7.686738627     0.000000043 -0.000082019  0.130094238

  length of vectors
     7.735855134  7.787920915  7.686740225     0.129268191  0.128404079  0.130094264


 FORCES acting on ions
    electron-ion (+dipol)            ewald-force                    non-local-force                 convergence-correction
 -----------------------------------------------------------------------------------------------
   -.474E-02 0.800E+01 0.447E+02   0.481E-02 -.792E+01 -.451E+02   0.261E-05 -.829E-01 0.345E+00   -.773E-04 0.233E-04 0.665E-04
   -.996E-02 -.488E+01 -.517E+02   0.991E-02 0.485E+01 0.522E+02   0.437E-04 0.378E-01 -.478E+00   -.113E-03 -.231E-03 0.216E-03
   -.543E-02 -.104E+02 0.221E+02   0.533E-02 0.103E+02 -.217E+02   -.320E-04 0.140E+00 -.368E+00   -.117E-03 0.848E-04 -.242E-03
   0.295E+00 0.534E+01 -.289E+02   -.294E+00 -.524E+01 0.298E+02   0.303E-02 -.992E-01 -.919E+00   -.296E-03 0.295E-03 0.538E-03
   0.589E-02 0.508E+01 0.220E+02   -.597E-02 -.618E+01 -.230E+02   -.643E-05 0.110E+01 0.107E+01   0.802E-04 0.179E-04 -.569E-03
   0.154E-01 0.221E+01 -.269E+02   -.156E-01 -.165E+01 0.282E+02   -.852E-04 -.555E+00 -.128E+01   0.133E-03 -.104E-02 0.168E-03
   0.157E-01 -.126E+02 0.135E+02   -.160E-01 0.139E+02 -.130E+02   -.936E-04 -.128E+01 -.489E+00   0.138E-03 -.736E-04 -.122E-02
   0.374E+00 -.354E+00 -.121E+02   -.359E+00 -.755E+00 0.109E+02   -.843E-02 0.111E+01 0.118E+01   0.389E-03 0.874E-03 0.927E-03
   -.430E+02 -.197E+01 -.103E+02   0.453E+02 0.223E+01 0.104E+02   -.224E+01 -.253E+00 -.109E+00   -.203E-03 0.791E-03 0.781E-03
   0.418E+02 -.199E+01 -.103E+02   -.439E+02 0.225E+01 0.104E+02   0.211E+01 -.255E+00 -.112E+00   -.573E-03 0.797E-03 0.787E-03
   0.104E+00 -.711E+02 -.352E+01   -.112E+00 0.769E+02 0.295E+01   0.769E-02 -.578E+01 0.574E+00   0.173E-03 -.333E-03 0.605E-03
   0.365E-02 0.277E+02 0.769E+01   -.351E-02 -.303E+02 -.772E+01   -.246E-03 0.266E+01 0.353E-01   0.706E-04 0.200E-03 -.106E-03
   -.480E-02 0.103E+01 0.188E+02   0.497E-02 -.105E+01 -.204E+02   -.959E-04 0.255E-01 0.166E+01   -.659E-04 -.172E-03 -.132E-03
   0.540E-01 -.272E+01 0.915E+02   -.595E-01 0.289E+01 -.996E+02   0.507E-02 -.164E+00 0.817E+01   -.132E-03 0.276E-03 0.214E-03
   0.404E-02 0.493E+00 0.196E+02   -.397E-02 -.446E+00 -.214E+02   -.147E-03 -.459E-01 0.180E+01   0.698E-04 -.124E-03 0.452E-03
   0.118E+00 0.259E+01 -.632E+02   -.127E+00 -.313E+01 0.681E+02   0.877E-02 0.539E+00 -.489E+01   0.163E-03 0.103E-03 -.117E-03
   -.532E+02 -.797E+01 -.793E+01   0.592E+02 0.102E+02 0.127E+02   -.600E+01 -.224E+01 -.482E+01   -.185E-03 -.163E-03 -.479E-03
   -.557E+02 0.117E+02 0.210E+01   0.619E+02 -.142E+02 -.581E+01   -.623E+01 0.250E+01 0.371E+01   0.531E-04 -.258E-03 0.214E-03
   -.346E+02 0.592E+01 0.613E+01   0.380E+02 -.773E+01 -.538E+01   -.341E+01 0.180E+01 -.746E+00   0.181E-03 -.618E-03 -.468E-03
   0.532E+02 -.797E+01 -.793E+01   -.592E+02 0.102E+02 0.127E+02   0.600E+01 -.224E+01 -.482E+01   0.173E-03 -.163E-03 -.476E-03
   0.557E+02 0.117E+02 0.210E+01   -.619E+02 -.142E+02 -.581E+01   0.623E+01 0.250E+01 0.371E+01   -.946E-04 -.267E-03 0.216E-03
   0.346E+02 0.592E+01 0.614E+01   -.380E+02 -.773E+01 -.539E+01   0.341E+01 0.180E+01 -.747E+00   -.241E-03 -.620E-03 -.461E-03
   -.639E-02 -.286E+02 -.663E+01   0.670E-02 0.323E+02 0.114E+02   -.234E-03 -.370E+01 -.477E+01   -.809E-04 -.595E-03 -.862E-03
   0.454E-01 -.779E+02 -.212E+01   -.525E-01 0.860E+02 -.622E+00   0.673E-02 -.806E+01 0.274E+01   -.143E-03 -.456E-03 -.328E-03
   -.596E-02 0.298E+02 -.617E+01   0.628E-02 -.334E+02 0.109E+02   -.233E-03 0.362E+01 -.471E+01   -.814E-04 0.230E-03 -.802E-03
   0.508E-01 0.772E+02 -.194E+01   -.582E-01 -.852E+02 -.835E+00   0.706E-02 0.798E+01 0.276E+01   -.152E-03 0.618E-03 -.326E-03
   0.599E-02 -.514E+01 0.899E+01   -.589E-02 0.474E+01 -.918E+01   -.194E-03 0.399E+00 0.203E+00   0.856E-04 -.184E-03 -.908E-04
   0.101E+00 0.362E+02 -.814E+01   -.110E+00 -.366E+02 0.771E+01   0.795E-02 0.391E+00 0.431E+00   0.212E-03 0.590E-03 0.853E-03
   -.638E-02 0.101E+01 -.328E+01   0.654E-02 -.103E+01 0.306E+01   -.779E-04 0.228E-01 0.214E+00   -.792E-04 -.110E-04 -.498E-03
   0.498E-01 -.218E+01 -.439E+02   -.569E-01 0.229E+01 0.450E+02   0.659E-02 -.112E+00 -.105E+01   -.167E-03 0.183E-03 -.464E-03
   0.665E-02 0.111E+01 -.550E+01   -.661E-02 -.120E+01 0.533E+01   -.128E-03 0.975E-01 0.177E+00   0.821E-04 -.382E-03 0.393E-03
   0.108E+00 0.467E+00 0.362E+02   -.117E+00 -.105E+01 -.368E+02   0.885E-02 0.581E+00 0.556E+00   0.205E-03 0.107E-03 0.710E-03
 -----------------------------------------------------------------------------------------------
   0.810E-01 -.244E+01 0.969E+00   0.410E-13 0.115E-12 -.142E-13   -.802E-01 0.244E+01 -.972E+00   -.592E-03 -.506E-03 -.503E-03
 
 
 POSITION                                       TOTAL-FORCE (eV/Angst)
 -----------------------------------------------------------------------------------
      7.73585      0.00929      7.57984        -0.000017     -0.001584     -0.007414
      7.73583      7.78324      3.92170        -0.000130      0.002167     -0.004720
      7.73582      3.89798      7.53879        -0.000264     -0.002518     -0.001167
      0.00062      3.89536      3.85311         0.004178      0.001158     -0.002554
      3.86791      7.65714      7.58810        -0.000012      0.002730      0.003841
      3.86791      0.15841      3.92481        -0.000126     -0.001355      0.005864
      3.86789      3.96853      0.15321        -0.000189     -0.001660      0.001609
      3.86894      3.85723      3.81072         0.007192      0.002029      0.004620
      1.88171      3.90180      3.84967        -0.003058      0.007262      0.005374
      5.85330      3.90180      3.84967        -0.002459      0.007164      0.005222
      3.86788      1.91766      3.85123        -0.000360      0.002782      0.003384
      3.86792      5.85252      0.01473        -0.000046     -0.002741      0.004773
      7.73584      7.78918      5.78008        -0.000003     -0.001024     -0.005164
      7.73578      3.90544      5.81527        -0.000536      0.001273     -0.003858
      3.86792      0.00904      5.78161        -0.000013      0.000989      0.003924
      3.86784      3.89493      1.90937        -0.000612     -0.001764      0.004300
      1.88587      0.02907      0.07603        -0.000832     -0.002447     -0.002126
      1.88586      7.76111      3.78239         0.000176      0.001951     -0.000218
      1.90665      3.85517      0.01639        -0.000119     -0.005506      0.001164
      5.84998      0.02906      0.07603         0.000824     -0.002448     -0.002128
      5.84994      7.76111      3.78239        -0.000413      0.002004     -0.000218
      5.82913      3.85516      0.01641        -0.000123     -0.005516      0.001268
      7.73585      1.91740      0.05211        -0.000008     -0.001729     -0.006677
      7.73579      1.87188      3.78000        -0.000496      0.001584     -0.007490
      7.73585      5.87339      0.05558        -0.000007     -0.002162     -0.004778
      7.73578      5.91084      3.78246        -0.000523     -0.000054     -0.008937
      3.86792      1.92371      0.01871        -0.000018     -0.001052      0.005764
      3.86784      5.90189      3.84586        -0.000566      0.001606      0.004350
      7.73584      7.78644      1.91286        -0.000004      0.000814     -0.004619
      7.73576      3.90092      1.84510        -0.000689      0.000342     -0.001404
      3.86793      0.00976      1.91352        -0.000011     -0.000528      0.003974
      3.86782      3.88448      5.82838        -0.000739     -0.001767      0.004041
 -----------------------------------------------------------------------------------
    total drift:                                0.000262      0.002070     -0.003066


--------------------------------------------------------------------------------------------------------



  FREE ENERGIE OF THE ION-ELECTRON SYSTEM (eV)
  ---------------------------------------------------
  free  energy   TOTEN  =      -211.56027570 eV

  energy  without entropy=     -211.56027570  energy(sigma->0) =     -211.56027570
 


--------------------------------------------------------------------------------------------------------


    POTLOK:  cpu time    1.0208: real time    1.0188


--------------------------------------------------------------------------------------------------------


 stress matrix after NEB project (eV)
     -0.03501     -0.00038     -0.00010
     -0.00038     -0.01564      0.00069
     -0.00010      0.00069     -0.01649
  FORCES: max atom, RMS     0.009538    0.005567
  FORCE total and by dimension    0.031493    0.008937
  Stress total and by dimension    0.041759    0.035014
 Quasi-Newton relaxation of ions (Broydens 2nd method)
  g(Force)  = 0.478E-04   g(Stress)= 0.263E-05

 Reset! Starting new Quasi-Newton update for ions 


--------------------------------------------------------------------------------------------------------


  
 reached required accuracy - stopping structural energy minimisation
 writing wavefunctions
     LOOP+:  cpu time  184.1340: real time  185.2308
    4ORBIT:  cpu time    0.0000: real time    0.0000
 


 total charge     
 
# of ion       s       p       d       tot
------------------------------------------
    1        0.320   6.482   1.741   8.543
    2        0.323   6.492   1.725   8.540
    3        0.314   6.479   1.841   8.634
    4        0.295   6.447   1.740   8.481
    5        0.315   6.456   1.808   8.579
    6        0.314   6.457   1.819   8.590
    7        0.316   6.462   1.806   8.584
    8        0.305   6.429   1.660   8.393
    9        1.564   3.411   0.000   4.975
   10        1.564   3.411   0.000   4.975
   11        1.571   3.452   0.000   5.023
   12        1.567   3.465   0.000   5.032
   13        1.570   3.466   0.000   5.036
   14        1.575   3.456   0.000   5.031
   15        1.568   3.473   0.000   5.042
   16        1.573   3.464   0.000   5.037
   17        1.731   4.388   0.000   6.120
   18        1.731   4.388   0.000   6.120
   19        1.730   4.394   0.000   6.125
   20        1.731   4.388   0.000   6.120
   21        1.731   4.388   0.000   6.120
   22        1.730   4.394   0.000   6.125
   23        1.730   4.389   0.000   6.119
   24        1.732   4.383   0.000   6.115
   25        1.730   4.387   0.000   6.117
   26        1.732   4.384   0.000   6.116
   27        1.727   4.369   0.000   6.096
   28        1.728   4.368   0.000   6.096
   29        1.729   4.377   0.000   6.107
   30        1.730   4.382   0.000   6.112
   31        1.729   4.378   0.000   6.107
   32        1.729   4.376   0.000   6.105
--------------------------------------------------
tot         42.737 149.435  14.142 206.314
 


 magnetization (x)
 
# of ion       s       p       d       tot
------------------------------------------
    1        0.000  -0.000  -0.000  -0.000
    2        0.000   0.000   0.000   0.000
    3        0.000  -0.000  -0.000   0.000
    4        0.000   0.000   0.000   0.000
    5       -0.000   0.000   0.000   0.000
    6       -0.000   0.000   0.000   0.000
    7        0.000  -0.000  -0.000  -0.000
    8        0.000  -0.000  -0.000   0.000
    9        0.000  -0.000   0.000  -0.000
   10       -0.000  -0.000   0.000  -0.000
   11       -0.000  -0.000   0.000  -0.000
   12       -0.000  -0.000   0.000  -0.000
   13       -0.000  -0.000   0.000  -0.000
   14       -0.000  -0.000   0.000  -0.000
   15        0.000  -0.000   0.000  -0.000
   16       -0.000  -0.000   0.000  -0.000
   17       -0.000   0.000   0.000   0.000
   18        0.000  -0.000   0.000  -0.000
   19       -0.000   0.000   0.000   0.000
   20       -0.000  -0.000   0.000  -0.000
   21       -0.000  -0.000   0.000  -0.000
   22       -0.000   0.000   0.000  -0.000
   23       -0.000   0.000   0.000   0.000
   24        0.000  -0.000   0.000  -0.000
   25       -0.000   0.000   0.000   0.000
   26       -0.000  -0.000   0.000  -0.000
   27       -0.000  -0.000   0.000  -0.000
   28       -0.000   0.000   0.000   0.000
   29        0.000   0.000   0.000   0.000
   30        0.000  -0.000   0.000  -0.000
   31       -0.000   0.000   0.000  -0.000
   32        0.000   0.000   0.000   0.000
--------------------------------------------------
tot         -0.000  -0.000   0.000  -0.000
 

 total amount of memory used by VASP MPI-rank0   107017. kBytes
=======================================================================

   base      :      30000. kBytes
   nonlr-proj:       8568. kBytes
   fftplans  :       8424. kBytes
   grid      :       8783. kBytes
   one-center:        124. kBytes
   wavefun   :      51118. kBytes
 
  
  
 General timing and accounting informations for this job:
 ========================================================
  
                  Total CPU time used (sec):      234.397
                            User time (sec):      219.384
                          System time (sec):       15.014
                         Elapsed time (sec):      244.417
  
                   Maximum memory used (kb):      223120.
                   Average memory used (kb):           0.
  
                          Minor page faults:        96123
                          Major page faults:            2
                 Voluntary context switches:        59483
