 vasp.6.3.0 20Jan22 (build Jan 25 2022 13:20:17) complex                        
  
 executed on             LinuxIFC date 2024.06.05  15:59:00
 running on   80 total cores
 distrk:  each k-point on   80 cores,    1 groups
 distr:  one band on NCORE=   8 cores,   10 groups


--------------------------------------------------------------------------------------------------------


 INCAR:
   SYSTEM = LTO
   ISTART = 1
   ENCUT = 700.0
   IALGO = 38
   EDIFF = 1E-6
   PREC = Accurate
   ISPIN = 2
   LMAXMIX = 4
   ADDGRID = .TRUE.
   LASPH = .TRUE.
   LREAL = Auto
   ROPT = 1E-4 1E-4 1E-4
   GGA = PS
   LDAU = .TRUE.
   LDAUTYPE = 2
   LDAUL = 2   -1    -1
   LDAUU = 4.2  0.0  0.0
   LDAUJ = 0.0  0.0  0.0
   NSW = 100
   EDIFFG = -0.01
   IBRION = 1
   ISIF = 3
   ISMEAR = 0
   SIGMA = 0.01
   ISYM = 0
   LORBIT = 11
   NEDOS = 3001
   NWRITE = 2
   NCORE = 8

 POTCAR:   PAW_PBE Ti_pv 07Sep2000                
 POTCAR:   PAW_PBE O 08Apr2002                    
 POTCAR:    PAW_PBE F 08Apr2002                   
 -----------------------------------------------------------------------------
|                                                                             |
|           W    W    AA    RRRRR   N    N  II  N    N   GGGG   !!!           |
|           W    W   A  A   R    R  NN   N  II  NN   N  G    G  !!!           |
|           W    W  A    A  R    R  N N  N  II  N N  N  G       !!!           |
|           W WW W  AAAAAA  RRRRR   N  N N  II  N  N N  G  GGG   !            |
|           WW  WW  A    A  R   R   N   NN  II  N   NN  G    G                |
|           W    W  A    A  R    R  N    N  II  N    N   GGGG   !!!           |
|                                                                             |
|     You use a magnetic or noncollinear calculation, but did not specify     |
|     the initial magnetic moment with the MAGMOM tag. Note that a            |
|     default of 1 will be used for all atoms. This ferromagnetic setup       |
|     may break the symmetry of the crystal, in particular it may rule        |
|     out finding an antiferromagnetic solution. Thence, we recommend         |
|     setting the initial magnetic moment manually or verifying carefully     |
|     that this magnetic setup is desired.                                    |
|                                                                             |
 -----------------------------------------------------------------------------

 POTCAR:   PAW_PBE Ti_pv 07Sep2000                
   VRHFIN =Ti: d3 s1                                                                                
   LEXCH  = PE                                                                                      
   EATOM  =  1042.3781 eV,   76.6126 Ry                                                             
                                                                                                    
   TITEL  = PAW_PBE Ti_pv 07Sep2000                                                                 
   LULTRA =        F    use ultrasoft PP ?                                                          
   IUNSCR =        1    unscreen: 0-lin 1-nonlin 2-no                                               
   RPACOR =    2.200    partial core radius                                                         
   POMASS =   47.880; ZVAL   =   10.000    mass and valenz                                          
   RCORE  =    2.500    outmost cutoff radius                                                       
   RWIGS  =    2.500; RWIGS  =    1.323    wigner-seitz radius (au A)                               
   ENMAX  =  222.338; ENMIN  =  166.753 eV                                                          
   RCLOC  =    1.701    cutoff for local pot                                                        
   LCOR   =        T    correct aug charges                                                         
   LPAW   =        T    paw PP                                                                      
   EAUG   =  482.848                                                                                
   DEXC   =    -.008                                                                                
   RMAX   =    3.092    core radius for proj-oper                                                   
   RAUG   =    1.300    factor for augmentation sphere                                              
   RDEP   =    2.538    radius for radial grids                                                     
   QCUT   =   -4.042; QGAM   =    8.085    optimization parameters                                  
                                                                                                    
   Description                                                                                      
     l     E      TYP  RCUT    TYP  RCUT                                                            
     1   .000     23  2.300                                                                         
     1  -.100     23  2.300                                                                         
     2   .000     23  2.500                                                                         
     2   .000     23  2.500                                                                         
     0   .000     23  2.500                                                                         
     0  1.500     23  2.500                                                                         
     3   .000      7   .000                                                                         
  local pseudopotential read in
  partial core-charges read in
  atomic valenz-charges read in
  non local Contribution for L=           1  read in
    real space projection operators read in
  non local Contribution for L=           1  read in
    real space projection operators read in
  non local Contribution for L=           2  read in
    real space projection operators read in
  non local Contribution for L=           2  read in
    real space projection operators read in
  non local Contribution for L=           0  read in
    real space projection operators read in
  non local Contribution for L=           0  read in
    real space projection operators read in
    PAW grid and wavefunctions read in
 
   number of l-projection  operators is LMAX  =           6
   number of lm-projection operators is LMMAX =          18
 
 POTCAR:   PAW_PBE O 08Apr2002                    
   VRHFIN =O: s2p4                                                                                  
   LEXCH  = PE                                                                                      
   EATOM  =   432.3788 eV,   31.7789 Ry                                                             
                                                                                                    
   TITEL  = PAW_PBE O 08Apr2002                                                                     
   LULTRA =        F    use ultrasoft PP ?                                                          
   IUNSCR =        0    unscreen: 0-lin 1-nonlin 2-no                                               
   RPACOR =     .000    partial core radius                                                         
   POMASS =   16.000; ZVAL   =    6.000    mass and valenz                                          
   RCORE  =    1.520    outmost cutoff radius                                                       
   RWIGS  =    1.550; RWIGS  =     .820    wigner-seitz radius (au A)                               
   ENMAX  =  400.000; ENMIN  =  300.000 eV                                                          
   ICORE  =        2    local potential                                                             
   LCOR   =        T    correct aug charges                                                         
   LPAW   =        T    paw PP                                                                      
   EAUG   =  605.392                                                                                
   DEXC   =     .000                                                                                
   RMAX   =    2.264    core radius for proj-oper                                                   
   RAUG   =    1.300    factor for augmentation sphere                                              
   RDEP   =    1.550    radius for radial grids                                                     
   QCUT   =   -5.520; QGAM   =   11.041    optimization parameters                                  
                                                                                                    
   Description                                                                                      
     l     E      TYP  RCUT    TYP  RCUT                                                            
     0   .000     23  1.200                                                                         
     0  -.700     23  1.200                                                                         
     1   .000     23  1.520                                                                         
     1   .600     23  1.520                                                                         
     2   .000      7  1.500                                                                         
  local pseudopotential read in
  atomic valenz-charges read in
  non local Contribution for L=           0  read in
    real space projection operators read in
  non local Contribution for L=           0  read in
    real space projection operators read in
  non local Contribution for L=           1  read in
    real space projection operators read in
  non local Contribution for L=           1  read in
    real space projection operators read in
    PAW grid and wavefunctions read in
 
   number of l-projection  operators is LMAX  =           4
   number of lm-projection operators is LMMAX =           8
 
 POTCAR:    PAW_PBE F 08Apr2002                   
   VRHFIN =F: s2p5                                                                                  
   LEXCH  = PE                                                                                      
   EATOM  =   659.6475 eV,   48.4827 Ry                                                             
                                                                                                    
   TITEL  = PAW_PBE F 08Apr2002                                                                     
   LULTRA =        F    use ultrasoft PP ?                                                          
   IUNSCR =        1    unscreen: 0-lin 1-nonlin 2-no                                               
   RPACOR =    1.200    partial core radius                                                         
   POMASS =   18.998; ZVAL   =    7.000    mass and valenz                                          
   RCORE  =    1.520    outmost cutoff radius                                                       
   RWIGS  =    1.500; RWIGS  =    0.794    wigner-seitz radius (au A)                               
   ENMAX  =  400.000; ENMIN  =  300.000 eV                                                          
   ICORE  =        2    local potential                                                             
   LCOR   =        T    correct aug charges                                                         
   LPAW   =        T    paw PP                                                                      
   EAUG   =  613.614                                                                                
   RMAX   =    1.555    core radius for proj-oper                                                   
   RAUG   =    1.300    factor for augmentation sphere                                              
   RDEP   =    1.539    radius for radial grids                                                     
   RDEPT  =    1.299    core radius for aug-charge                                                  
                                                                                                    
   Atomic configuration                                                                             
    4 entries                                                                                       
     n  l   j            E        occ.                                                              
     1  0  0.50      -663.3661   2.0000                                                             
     2  0  0.50       -29.8995   2.0000                                                             
     2  1  0.50       -11.1114   5.0000                                                             
     3  2  1.50       -10.8847   0.0000                                                             
   Description                                                                                      
     l       E           TYP  RCUT    TYP  RCUT                                                     
     0    -29.8995018     23  1.200                                                                 
     0     -9.5240782     23  1.200                                                                 
     1    -11.1113914     23  1.520                                                                 
     1      1.3605826     23  1.520                                                                 
     2    -10.8846608      7  1.500                                                                 
  local pseudopotential read in
  partial core-charges read in
  partial kinetic energy density read in
  atomic valenz-charges read in
  non local Contribution for L=           0  read in
    real space projection operators read in
  non local Contribution for L=           0  read in
    real space projection operators read in
  non local Contribution for L=           1  read in
    real space projection operators read in
  non local Contribution for L=           1  read in
    real space projection operators read in
    PAW grid and wavefunctions read in
 
   number of l-projection  operators is LMAX  =           4
   number of lm-projection operators is LMMAX =           8
 
 Optimization of the real space projectors (new method)

 maximal supplied QI-value         = 15.12
 optimisation between [QCUT,QGAM] = [ 13.45, 27.06] = [ 50.69,205.06] Ry 
 Optimized for a Real-space Cutoff    1.49 Angstroem

   l    n(q)    QCUT    max X(q) W(low)/X(q) W(high)/X(q)  e(spline) 
   1     12    13.455     4.841    0.13E-05    0.83E-06    0.56E-07
   1     12    13.455     5.701    0.32E-04    0.25E-04    0.17E-06
   2     11    13.455     4.569    0.64E-05    0.34E-05    0.50E-07
   2     11    13.455    32.276    0.49E-04    0.38E-04    0.46E-06
   0     12    13.455    30.046    0.17E-04    0.41E-05    0.51E-07
   0     12    13.455    45.433    0.12E-04    0.27E-04    0.38E-06
 Optimization of the real space projectors (new method)

 maximal supplied QI-value         = 24.76
 optimisation between [QCUT,QGAM] = [ 13.37, 26.98] = [ 50.04,203.89] Ry 
 Optimized for a Real-space Cutoff    1.17 Angstroem

   l    n(q)    QCUT    max X(q) W(low)/X(q) W(high)/X(q)  e(spline) 
   0      9    13.368     4.192    0.20E-04    0.58E-05    0.56E-07
   0      9    13.368     8.473    0.60E-04    0.52E-04    0.21E-06
   1      9    13.368     2.474    0.22E-04    0.17E-04    0.28E-07
   1      9    13.368     3.912    0.94E-04    0.97E-04    0.20E-06
 Optimization of the real space projectors (new method)

 maximal supplied QI-value         = 24.76
 optimisation between [QCUT,QGAM] = [ 13.37, 26.98] = [ 50.04,203.89] Ry 
 Optimized for a Real-space Cutoff    1.17 Angstroem

   l    n(q)    QCUT    max X(q) W(low)/X(q) W(high)/X(q)  e(spline) 
   0      9    13.368    14.049    0.39E-04    0.34E-04    0.16E-06
   0      9    13.368     8.945    0.54E-04    0.47E-04    0.20E-06
   1      9    13.368     7.086    0.99E-04    0.10E-03    0.23E-06
   1      9    13.368     6.747    0.86E-04    0.89E-04    0.21E-06
 -----------------------------------------------------------------------------
|                                                                             |
|               ----> ADVICE to this user running VASP <----                  |
|                                                                             |
|     You enforced a specific xc type in the INCAR file but a different       |
|     type was found in the POTCAR file.                                      |
|     I HOPE YOU KNOW WHAT YOU ARE DOING!                                     |
|                                                                             |
 -----------------------------------------------------------------------------

 PAW_PBE Ti_pv 07Sep2000                :
 energy of atom  1       EATOM=-1042.3781
 kinetic energy error for atom=    0.0006 (will be added to EATOM!!)
 PAW_PBE O 08Apr2002                    :
 energy of atom  2       EATOM= -432.3788
 kinetic energy error for atom=    0.0091 (will be added to EATOM!!)
  PAW_PBE F 08Apr2002                   :
 energy of atom  3       EATOM= -659.6475
 kinetic energy error for atom=    0.0140 (will be added to EATOM!!)
 
 
 POSCAR: Ti27 O27 F54
  positions in direct lattice
  velocities in cartesian coordinates
 exchange correlation table for  LEXCH =       14
   RHO(1)=    0.500       N(1)  =     2000
   RHO(2)=  100.500       N(2)  =     4000
 


--------------------------------------------------------------------------------------------------------


 ion  position               nearest neighbor table
   1  0.999  0.013  0.002-  28 1.78  91 1.93  92 1.93  84 1.93  73 1.94  59 2.06
   2  0.006  0.007  0.345-  46 1.79  29 1.87  37 1.90  85 2.04  60 2.05  91 2.08
   3  0.009  0.990  0.658-  30 1.82  38 1.85  46 1.86  55 2.07  86 2.07  92 2.08
   4  0.990  0.329  0.991-  47 1.82  44 1.85  28 1.89  56 2.00  93 2.05  74 2.10
   5  0.993  0.321  0.332-  29 1.78  45 1.90  93 1.94  94 1.94  75 2.01  57 2.08
   6  0.011  0.334  0.677-  39 1.80  47 1.84  55 1.94  58 1.95  94 2.07  87 2.09
   7  0.011  0.668  0.989-  48 1.80  40 1.81  59 1.96  56 1.96  88 2.08  95 2.09
   8  0.013  0.667  0.333-  41 1.76  96 1.93  95 1.93  57 1.94  60 1.94  89 2.10
   9  0.009  0.676  0.676-  30 1.83  48 1.85  42 1.85  58 2.07  96 2.08  90 2.08
  10  0.343  0.989  0.991-  33 1.81  49 1.84  43 1.85  97 2.06  73 2.07  61 2.12
  11  0.320  0.000  0.333-  37 1.76  65 1.93  98 1.93  97 1.93  62 1.94  76 2.10
  12  0.323  0.001  0.678-  38 1.80  49 1.81  63 1.95  66 1.95  98 2.09  77 2.10
  13  0.334  0.333  0.000-  64 1.88  61 1.89 100 1.89  99 1.90  74 1.90  78 1.90
  14  0.335  0.344  0.346-  50 1.79  31 1.80  79 1.96  75 1.96  62 2.07  99 2.12
  15  0.325  0.342  0.656-  32 1.84  50 1.84  39 1.85  63 2.04  80 2.06 100 2.11
  16  0.325  0.678  0.009-  33 1.81  40 1.85  51 1.85 102 2.05  81 2.06  64 2.13
  17  0.328  0.658  0.322-  51 1.81  31 1.85  41 1.91  82 2.03 101 2.06  65 2.08
  18  0.323  0.656  0.665-  42 1.80  32 1.83 101 1.95 102 1.95  66 2.06  83 2.11
  19  0.654  0.993  0.995-  43 1.79  35 1.86  52 1.90 103 2.04  67 2.04  84 2.08
  20  0.666  0.988  0.334-  36 1.78  76 1.92 104 1.92  85 1.92 103 1.93  68 2.07
  21  0.667  0.999  0.680-  52 1.76  86 1.92  77 1.92  72 1.94  69 1.95 104 2.10
  22  0.680  0.334  0.992-  44 1.78  53 1.85  70 1.93  67 1.94 105 2.06  78 2.11
  23  0.678  0.333  0.334-  45 1.77 106 1.93  68 1.93 105 1.94  71 1.94  79 2.04
  24  0.667  0.339  0.678-  53 1.81  34 1.86  80 1.93  87 1.93  69 2.02 106 2.08
  25  0.666  0.678  0.009-  35 1.80  54 1.86  88 1.94  81 1.94 108 2.06  70 2.07
  26  0.667  0.673  0.322-  54 1.79  36 1.87  89 1.93  82 1.93  71 2.03 107 2.07
  27  0.666  0.654  0.666-  34 1.79  83 1.91  90 1.91 107 1.93 108 1.94  72 2.07
  28  0.004  0.167  0.006-   1 1.78   4 1.89
  29  1.000  0.168  0.326-   5 1.78   2 1.87
  30  0.996  0.833  0.669-   3 1.82   9 1.83
  31  0.334  0.499  0.337-  14 1.80  17 1.85
  32  0.343  0.500  0.666-  18 1.83  15 1.84
  33  0.338  0.834  0.000-  10 1.81  16 1.81
  34  0.662  0.500  0.666-  27 1.79  24 1.86
  35  0.666  0.833  0.003-  25 1.80  19 1.86
  36  0.668  0.834  0.332-  20 1.78  26 1.87
  37  0.168  0.993  0.335-  11 1.76   2 1.90
  38  0.168  0.003  0.664-  12 1.80   3 1.85
  39  0.166  0.334  0.670-   6 1.80  15 1.85
  40  0.166  0.666  0.002-   7 1.81  16 1.85
  41  0.164  0.674  0.333-   8 1.76  17 1.91
  42  0.168  0.663  0.664-  18 1.80   9 1.85
  43  0.501  0.010  0.006-  19 1.79  10 1.85
  44  0.832  0.337  0.011-  22 1.78   4 1.85
  45  0.830  0.336  0.329-  23 1.77   5 1.90
  46  0.994  0.002  0.499-   2 1.79   3 1.86
  47  0.994  0.338  0.834-   4 1.82   6 1.84
  48  0.996  0.660  0.834-   7 1.80   9 1.85
  49  0.335  0.004  0.833-  12 1.81  10 1.84
  50  0.336  0.326  0.499-  14 1.79  15 1.84
  51  0.342  0.664  0.167-  17 1.81  16 1.85
  52  0.664  0.004  0.831-  21 1.76  19 1.90
  53  0.671  0.328  0.833-  24 1.81  22 1.85
  54  0.663  0.660  0.168-  26 1.79  25 1.86
  55  0.993  0.167  0.669-   6 1.94   3 2.07
  56  0.002  0.500  0.010-   7 1.96   4 2.00
  57  0.003  0.500  0.334-   8 1.94   5 2.08
  58  0.991  0.500  0.657-   6 1.95   9 2.07
  59  0.995  0.836  0.999-   7 1.96   1 2.06
  60  0.986  0.832  0.332-   8 1.94   2 2.05
  61  0.323  0.170  0.006-  13 1.89  10 2.12
  62  0.332  0.167  0.325-  11 1.94  14 2.07
  63  0.342  0.168  0.668-  12 1.95  15 2.04
  64  0.339  0.495  0.995-  13 1.88  16 2.13
  65  0.345  0.836  0.334-  11 1.93  17 2.08
  66  0.339  0.833  0.665-  12 1.95  18 2.06
  67  0.670  0.168  0.009-  22 1.94  19 2.04
  68  0.666  0.166  0.333-  23 1.93  20 2.07
  69  0.667  0.166  0.658-  21 1.95  24 2.02
  70  0.660  0.500  0.995-  22 1.93  25 2.07
  71  0.659  0.499  0.342-  23 1.94  26 2.03
  72  0.671  0.833  0.664-  21 1.94  27 2.07
  73  0.165  0.997  0.004-   1 1.94  10 2.07
  74  0.170  0.341  0.998-  13 1.90   4 2.10
  75  0.166  0.333  0.331-  14 1.96   5 2.01
  76  0.501  0.005  0.331-  20 1.92  11 2.10
  77  0.502  0.998  0.658-  21 1.92  12 2.10
  78  0.498  0.326  0.002-  13 1.90  22 2.11
  79  0.502  0.328  0.329-  14 1.96  23 2.04
  80  0.502  0.325  0.670-  24 1.93  15 2.06
  81  0.501  0.659  0.990-  25 1.94  16 2.06
  82  0.502  0.667  0.343-  26 1.93  17 2.03
  83  0.503  0.676  0.667-  27 1.91  18 2.11
  84  0.833  0.003  0.002-   1 1.93  19 2.08
  85  0.830  0.004  0.329-  20 1.92   2 2.04
  86  0.831  0.004  0.668-  21 1.92   3 2.07
  87  0.832  0.331  0.656-  24 1.93   6 2.09
  88  0.832  0.660  0.002-  25 1.94   7 2.08
  89  0.832  0.658  0.336-  26 1.93   8 2.10
  90  0.831  0.665  0.662-  27 1.91   9 2.08
  91  0.997  0.991  0.167-   1 1.93   2 2.08
  92  0.997  0.003  0.836-   1 1.93   3 2.08
  93  0.010  0.341  0.166-   5 1.94   4 2.05
  94  0.001  0.332  0.498-   5 1.94   6 2.07
  95  0.991  0.669  0.168-   8 1.93   7 2.09
  96  0.993  0.666  0.498-   8 1.93   9 2.08
  97  0.332  0.002  0.168-  11 1.93  10 2.06
  98  0.341  0.005  0.498-  11 1.93  12 2.09
  99  0.333  0.335  0.164-  13 1.90  14 2.12
 100  0.338  0.327  0.837-  13 1.89  15 2.11
 101  0.339  0.674  0.499-  18 1.95  17 2.06
 102  0.338  0.666  0.833-  18 1.95  16 2.05
 103  0.671  0.006  0.169-  20 1.93  19 2.04
 104  0.669  0.001  0.499-  20 1.92  21 2.10
 105  0.657  0.339  0.168-  23 1.94  22 2.06
 106  0.661  0.330  0.499-  23 1.93  24 2.08
 107  0.668  0.668  0.500-  27 1.93  26 2.07
 108  0.671  0.668  0.832-  27 1.94  25 2.06
 

IMPORTANT INFORMATION: All symmetrisations will be switched off!
NOSYMM: (Re-)initialisation of all symmetry stuff for point group C_1.


----------------------------------------------------------------------------------------

                                     Primitive cell                                     

  volume of cell :    1558.5105

  direct lattice vectors                    reciprocal lattice vectors
    11.598353729  0.011878690  0.000503842     0.086219223 -0.000088407 -0.000003726
     0.011879518 11.585075059  0.010079927    -0.000088401  0.086318112 -0.000075174
     0.000511655  0.010101864 11.598860137    -0.000003668 -0.000075010  0.086215434

  length of vectors
    11.598359823 11.585085535 11.598864548     0.086219269  0.086318190  0.086215467

  position of ions in fractional coordinates (direct lattice)
     0.998995873  0.013450829  0.001950201
     0.005650684  0.007069305  0.345084445
     0.009336192  0.989860074  0.657677276
     0.990108701  0.328625192  0.990906752
     0.993443058  0.320830933  0.331592893
     0.010861123  0.333916139  0.676812278
     0.011128171  0.667558169  0.988554817
     0.012745061  0.666551792  0.332859748
     0.008980683  0.675927317  0.676024138
     0.342725874  0.989200324  0.990717603
     0.319878157  0.000002325  0.333469383
     0.322797745  0.000611483  0.677748499
     0.334007077  0.332647167  0.000299349
     0.334792307  0.343835330  0.345952352
     0.325328264  0.342426852  0.656298288
     0.325496622  0.677752925  0.008840866
     0.328138621  0.657581309  0.322310586
     0.322587955  0.656059251  0.665447942
     0.653818856  0.992952624  0.994624460
     0.665526567  0.987673411  0.334158844
     0.666560535  0.999409647  0.679918464
     0.679782174  0.333947340  0.992020062
     0.677837480  0.332570648  0.333626988
     0.667087665  0.339499699  0.678031290
     0.666253849  0.677947520  0.009046798
     0.667148669  0.673111596  0.321957302
     0.666339521  0.653949315  0.665651966
     0.003858220  0.166732480  0.005858615
     0.999639288  0.167529387  0.325701600
     0.996482451  0.833318055  0.668693074
     0.334187510  0.499040429  0.336582000
     0.343158749  0.499598406  0.666138051
     0.337703401  0.833636666  0.000473631
     0.662128287  0.499884498  0.665683117
     0.665506828  0.832782367  0.002786431
     0.667706807  0.834451711  0.332177337
     0.168229343  0.992615227  0.335368791
     0.167947547  0.003041908  0.663799905
     0.166248361  0.333709522  0.670046600
     0.166401720  0.665901132  0.001770069
     0.164441839  0.674400362  0.332563057
     0.167683640  0.663054740  0.663709100
     0.500507765  0.009577526  0.006355992
     0.832214549  0.336684685  0.011050041
     0.830477680  0.336159518  0.329056113
     0.993891255  0.002020169  0.498521624
     0.994348211  0.338113332  0.834148073
     0.995672126  0.659945939  0.834063571
     0.335220090  0.003834274  0.832996706
     0.335677300  0.325690915  0.499007396
     0.341897796  0.663647148  0.167117944
     0.664223279  0.004163638  0.831329960
     0.670983119  0.327686405  0.833212295
     0.662519872  0.660269265  0.168172766
     0.992929099  0.167253258  0.669106161
     0.001552186  0.499585424  0.009687320
     0.003361647  0.499706025  0.333952626
     0.990540481  0.499511829  0.656658906
     0.994557734  0.835789532  0.998691277
     0.985920216  0.832194394  0.331838614
     0.323007923  0.170074908  0.005986662
     0.332139651  0.166698152  0.325091174
     0.341575484  0.167582933  0.668224771
     0.339139652  0.495147999  0.994838325
     0.345186298  0.835521781  0.333965611
     0.338629878  0.833179570  0.665079904
     0.670341986  0.167926830  0.009029450
     0.666174785  0.166157745  0.333280635
     0.666529734  0.166164328  0.657572821
     0.660142948  0.499653534  0.995235804
     0.659393100  0.499033442  0.342203892
     0.670882196  0.832787865  0.664408704
     0.165085806  0.997200665  0.003891560
     0.170453163  0.340513243  0.998205622
     0.166455135  0.332959508  0.331328878
     0.500925227  0.005401766  0.330928664
     0.502326894  0.997625596  0.657986598
     0.497897318  0.326284514  0.002287043
     0.501937448  0.327726795  0.328691052
     0.501675130  0.325231009  0.669837960
     0.501314174  0.658962940  0.990321073
     0.502059131  0.667093789  0.343093228
     0.503214024  0.676289058  0.667206617
     0.832684415  0.003398127  0.002147842
     0.830492764  0.003883644  0.329314748
     0.831308234  0.003940810  0.667620060
     0.831711184  0.331163949  0.655696390
     0.832122527  0.660349432  0.002472276
     0.832187386  0.657636465  0.335525310
     0.830543260  0.665023800  0.662034396
     0.997076286  0.990900188  0.166912797
     0.997189016  0.003178779  0.835746460
     0.009934200  0.341056373  0.166454057
     0.000758057  0.331550940  0.498360287
     0.991007719  0.668532143  0.167697282
     0.993363535  0.666099854  0.497852710
     0.331748136  0.002457871  0.167727181
     0.341446555  0.004874284  0.498153156
     0.333129201  0.334600792  0.163720693
     0.338369597  0.326839174  0.837322353
     0.338695386  0.673962354  0.498889208
     0.338144178  0.666054601  0.832920587
     0.670665456  0.006222295  0.169068504
     0.668948494  0.001364973  0.499206541
     0.656637777  0.339110208  0.167678154
     0.661174351  0.329935333  0.499016179
     0.667640320  0.668422981  0.499948809
     0.671358999  0.667723974  0.831915620

  ion indices of the primitive-cell ions
   primitive index   ion index
                 1           1
                 2           2
                 3           3
                 4           4
                 5           5
                 6           6
                 7           7
                 8           8
                 9           9
                10          10
                11          11
                12          12
                13          13
                14          14
                15          15
                16          16
                17          17
                18          18
                19          19
                20          20
                21          21
                22          22
                23          23
                24          24
                25          25
                26          26
                27          27
                28          28
                29          29
                30          30
                31          31
                32          32
                33          33
                34          34
                35          35
                36          36
                37          37
                38          38
                39          39
                40          40
                41          41
                42          42
                43          43
                44          44
                45          45
                46          46
                47          47
                48          48
                49          49
                50          50
                51          51
                52          52
                53          53
                54          54
                55          55
                56          56
                57          57
                58          58
                59          59
                60          60
                61          61
                62          62
                63          63
                64          64
                65          65
                66          66
                67          67
                68          68
                69          69
                70          70
                71          71
                72          72
                73          73
                74          74
                75          75
                76          76
                77          77
                78          78
                79          79
                80          80
                81          81
                82          82
                83          83
                84          84
                85          85
                86          86
                87          87
                88          88
                89          89
                90          90
                91          91
                92          92
                93          93
                94          94
                95          95
                96          96
                97          97
                98          98
                99          99
               100         100
               101         101
               102         102
               103         103
               104         104
               105         105
               106         106
               107         107
               108         108

----------------------------------------------------------------------------------------

 
 
 KPOINTS: Title                                   

Automatic generation of k-mesh.
 Grid dimensions read from file:
 generate k-points for:    3    3    3

 Generating k-lattice:

  Cartesian coordinates                     Fractional coordinates (reciprocal lattice)
     0.028739741 -0.000029469 -0.000001242     0.333333333 -0.000000000 -0.000000000
    -0.000029467  0.028772704 -0.000025058     0.000000000  0.333333333  0.000000000
    -0.000001223 -0.000025003  0.028738478    -0.000000000  0.000000000  0.333333333

  Length of vectors
     0.028739756  0.028772730  0.028738489

  Shift w.r.t. Gamma in fractional coordinates (k-lattice)
     0.000000000  0.000000000  0.000000000

 
 Subroutine IBZKPT returns following result:
 ===========================================
 
 Found     14 irreducible k-points:
 
 Following reciprocal coordinates:
            Coordinates               Weight
  0.000000  0.000000  0.000000      1.000000
  0.333333  0.000000 -0.000000      2.000000
 -0.000000  0.333333 -0.000000      2.000000
  0.333333  0.333333  0.000000      2.000000
 -0.333333  0.333333  0.000000      2.000000
  0.000000  0.000000  0.333333      2.000000
  0.333333  0.000000  0.333333      2.000000
 -0.333333  0.000000  0.333333      2.000000
 -0.000000  0.333333  0.333333      2.000000
  0.333333  0.333333  0.333333      2.000000
 -0.333333  0.333333  0.333333      2.000000
  0.000000 -0.333333  0.333333      2.000000
  0.333333 -0.333333  0.333333      2.000000
 -0.333333 -0.333333  0.333333      2.000000
 
 Following cartesian coordinates:
            Coordinates               Weight
  0.000000  0.000000  0.000000      1.000000
  0.028740 -0.000029 -0.000001      2.000000
 -0.000029  0.028773 -0.000025      2.000000
  0.028710  0.028743 -0.000026      2.000000
 -0.028769  0.028802 -0.000024      2.000000
 -0.000001 -0.000025  0.028738      2.000000
  0.028739 -0.000054  0.028737      2.000000
 -0.028741  0.000004  0.028740      2.000000
 -0.000031  0.028748  0.028713      2.000000
  0.028709  0.028718  0.028712      2.000000
 -0.028770  0.028777  0.028715      2.000000
  0.000028 -0.028798  0.028764      2.000000
  0.028768 -0.028827  0.028762      2.000000
 -0.028711 -0.028768  0.028765      2.000000
 


--------------------------------------------------------------------------------------------------------




 Dimension of arrays:
   k-points           NKPTS =     14   k-points in BZ     NKDIM =     14   number of bands    NBANDS=    540
   number of dos      NEDOS =   3001   number of ions     NIONS =    108
   non local maximal  LDIM  =      6   non local SUM 2l+1 LMDIM =     18
   total plane-waves  NPLWV = ******
   max r-space proj   IRMAX =   8903   max aug-charges    IRDMAX= 199465
   dimension x,y,z NGX =   100 NGY =  100 NGZ =  100
   dimension x,y,z NGXF=   200 NGYF=  200 NGZF=  200
   support grid    NGXF=   400 NGYF=  400 NGZF=  400
   ions per type =              27  27  54
   NGX,Y,Z   is equivalent  to a cutoff of  14.33, 14.35, 14.33 a.u.
   NGXF,Y,Z  is equivalent  to a cutoff of  28.67, 28.70, 28.67 a.u.

 SYSTEM =  LTO                                     
 POSCAR =  Ti27 O27 F54                            

 Startparameter for this run:
   NWRITE =      2    write-flag & timer
   PREC   = accura    normal or accurate (medium, high low for compatibility)
   ISTART =      1    job   : 0-new  1-cont  2-samecut
   ICHARG =      0    charge: 1-file 2-atom 10-const
   ISPIN  =      2    spin polarized calculation?
   LNONCOLLINEAR =      F non collinear calculations
   LSORBIT =      F    spin-orbit coupling
   INIWAV =      1    electr: 0-lowe 1-rand  2-diag
   LASPH  =      T    aspherical Exc in radial PAW
 Electronic Relaxation 1
   ENCUT  =  700.0 eV  51.45 Ry    7.17 a.u.  25.02 24.99 25.02*2*pi/ulx,y,z
   ENINI  =  700.0     initial cutoff
   ENAUG  =  613.6 eV  augmentation charge cutoff
   NELM   =     60;   NELMIN=  2; NELMDL=  0     # of ELM steps 
   EDIFF  = 0.1E-05   stopping-criterion for ELM
   LREAL  =      T    real-space projection
   NLSPLINE    = F    spline interpolate recip. space projectors
   LCOMPAT=      F    compatible to vasp.4.4
   GGA_COMPAT  = T    GGA compatible to vasp.4.4-vasp.4.6
   LMAXPAW     = -100 max onsite density
   LMAXMIX     =    4 max onsite mixed and CHGCAR
   VOSKOWN=      0    Vosko Wilk Nusair interpolation
   ROPT   =   -0.00010  -0.00010  -0.00010
 Ionic relaxation
   EDIFFG = -.1E-01   stopping-criterion for IOM
   NSW    =    100    number of steps for IOM
   NBLOCK =      1;   KBLOCK =    100    inner block; outer block 
   IBRION =      1    ionic relax: 0-MD 1-quasi-New 2-CG
   NFREE  =      0    steps in history (QN), initial steepest desc. (CG)
   ISIF   =      3    stress and relaxation
   IWAVPR =     11    prediction:  0-non 1-charg 2-wave 3-comb
   ISYM   =      0    0-nonsym 1-usesym 2-fastsym
   LCORR  =      T    Harris-Foulkes like correction to forces

   POTIM  = 0.5000    time-step for ionic-motion
   TEIN   =    0.0    initial temperature
   TEBEG  =    0.0;   TEEND  =   0.0 temperature during run
   SMASS  =  -3.00    Nose mass-parameter (am)
   estimated Nose-frequenzy (Omega)   =  0.10E-29 period in steps = 0.13E+47 mass=  -0.307E-26a.u.
   SCALEE = 1.0000    scale energy and forces
   NPACO  =    256;   APACO  = 10.0  distance and # of slots for P.C.
   PSTRESS=    0.0 pullay stress

  Mass of Ions in am
   POMASS =  47.88 16.00 19.00
  Ionic Valenz
   ZVAL   =  10.00  6.00  7.00
  Atomic Wigner-Seitz radii
   RWIGS  =  -1.00 -1.00 -1.00
  virtual crystal weights 
   VCA    =   1.00  1.00  1.00
   NELECT =     810.0000    total number of electrons
   NUPDOWN=      -1.0000    fix difference up-down

 DOS related values:
   EMIN   =  10.00;   EMAX   =-10.00  energy-range for DOS
   EFERMI =   0.00
   ISMEAR =     0;   SIGMA  =   0.01  broadening in eV -4-tet -1-fermi 0-gaus

 Electronic relaxation 2 (details)
   IALGO  =     38    algorithm
   LDIAG  =      T    sub-space diagonalisation (order eigenvalues)
   LSUBROT=      F    optimize rotation matrix (better conditioning)
   TURBO    =      0    0=normal 1=particle mesh
   IRESTART =      0    0=no restart 2=restart with 2 vectors
   NREBOOT  =      0    no. of reboots
   NMIN     =      0    reboot dimension
   EREF     =   0.00    reference energy to select bands
   IMIX   =      4    mixing-type and parameters
     AMIX     =   0.40;   BMIX     =  1.00
     AMIX_MAG =   1.60;   BMIX_MAG =  1.00
     AMIN     =   0.10
     WC   =   100.;   INIMIX=   1;  MIXPRE=   1;  MAXMIX= -45

 Intra band minimization:
   WEIMIN = 0.0010     energy-eigenvalue tresh-hold
   EBREAK =  0.46E-09  absolut break condition
   DEPER  =   0.30     relativ break condition  

   TIME   =   0.40     timestep for ELM

  volume/ion in A,a.u.               =      14.43        97.38
  Fermi-wavevector in a.u.,A,eV,Ry     =   1.316234  2.487322 23.571729  1.732473
  Thomas-Fermi vector in A             =   2.446361
 
 Write flags
   LWAVE        =      T    write WAVECAR
   LDOWNSAMPLE  =      F    k-point downsampling of WAVECAR
   LCHARG       =      T    write CHGCAR
   LVTOT        =      F    write LOCPOT, total local potential
   LVHAR        =      F    write LOCPOT, Hartree potential only
   LELF         =      F    write electronic localiz. function (ELF)
   LORBIT       =     11    0 simple, 1 ext, 2 COOP (PROOUT), +10 PAW based schemes


 Dipole corrections
   LMONO  =      F    monopole corrections only (constant potential shift)
   LDIPOL =      F    correct potential (dipole corrections)
   IDIPOL =      0    1-x, 2-y, 3-z, 4-all directions 
   EPSILON=  1.0000000 bulk dielectric constant

 LDA+U is selected, type is set to LDAUTYPE =  2
   angular momentum for each species LDAUL =     2   -1   -1
   U (eV)           for each species LDAUU =   4.2  0.0  0.0
   J (eV)           for each species LDAUJ =   0.0  0.0  0.0
 Exchange correlation treatment:
   GGA     =    PS    GGA type
   LEXCH   =    14    internal setting for exchange type
   LIBXC   =     F    Libxc                    
   VOSKOWN =     0    Vosko Wilk Nusair interpolation
   LHFCALC =     F    Hartree Fock is set to
   LHFONE  =     F    Hartree Fock one center treatment
   AEXX    =    0.0000 exact exchange contribution

 Linear response parameters
   LEPSILON=     F    determine dielectric tensor
   LRPA    =     F    only Hartree local field effects (RPA)
   LNABLA  =     F    use nabla operator in PAW spheres
   LVEL    =     F    velocity operator in full k-point grid
   CSHIFT  =0.1000    complex shift for real part using Kramers Kronig
   OMEGAMAX=  -1.0    maximum frequency
   DEG_THRESHOLD= 0.2000000E-02 threshold for treating states as degnerate
   RTIME   =   -0.100 relaxation time in fs
  (WPLASMAI=    0.000 imaginary part of plasma frequency in eV, 0.658/RTIME)
   DFIELD  = 0.0000000 0.0000000 0.0000000 field for delta impulse in time
 
  Optional k-point grid parameters
   LKPOINTS_OPT  =     F    use optional k-point grid
   KPOINTS_OPT_MODE=     1    mode for optional k-point grid
 
 Orbital magnetization related:
   ORBITALMAG=     F  switch on orbital magnetization
   LCHIMAG   =     F  perturbation theory with respect to B field
   DQ        =  0.001000  dq finite difference perturbation B field
   LLRAUG    =     F  two centre corrections for induced B field



--------------------------------------------------------------------------------------------------------


 quasi-Newton-method for relaxation of ions
 charge density and potential will be updated during run
 spin polarized calculation
 Variant of blocked Davidson
 Davidson routine will perform the subspace rotation
 perform sub-space diagonalisation
    after iterative eigenvector-optimisation
 modified Broyden-mixing scheme, WC =      100.0
 initial mixing is a Kerker type mixing with AMIX =  0.4000 and BMIX =      1.0000
 Hartree-type preconditioning will be used
 using additional bands          135
 real space projection scheme for non local part
 use partial core corrections
 calculate Harris-corrections to forces 
   (improved forces if not selfconsistent)
 use gradient corrections 
 use of overlap-Matrix (Vanderbilt PP)
 Gauss-broadening in eV      SIGMA  =   0.01


--------------------------------------------------------------------------------------------------------


  energy-cutoff  :      700.00
  volume of cell :     1558.51
      direct lattice vectors                 reciprocal lattice vectors
    11.598353729  0.011878690  0.000503842     0.086219223 -0.000088407 -0.000003726
     0.011879518 11.585075059  0.010079927    -0.000088401  0.086318112 -0.000075174
     0.000511655  0.010101864 11.598860137    -0.000003668 -0.000075010  0.086215434

  length of vectors
    11.598359823 11.585085535 11.598864548     0.086219269  0.086318190  0.086215467


 
 old parameters found on file WAVECAR:
  energy-cutoff  :      700.00
  volume of cell :     1558.51
      direct lattice vectors                 reciprocal lattice vectors
    11.598353729  0.011878690  0.000503842     0.086219223 -0.000088407 -0.000003726
     0.011879518 11.585075059  0.010079927    -0.000088401  0.086318112 -0.000075174
     0.000511655  0.010101864 11.598860137    -0.000003668 -0.000075010  0.086215434

  length of vectors

 
 k-points in units of 2pi/SCALE and weight: Title                                   
   0.00000000  0.00000000  0.00000000       0.037
   0.02873974 -0.00002947 -0.00000124       0.074
  -0.00002947  0.02877270 -0.00002506       0.074
   0.02871027  0.02874323 -0.00002630       0.074
  -0.02876921  0.02880217 -0.00002382       0.074
  -0.00000122 -0.00002500  0.02873848       0.074
   0.02873852 -0.00005447  0.02873724       0.074
  -0.02874096  0.00000447  0.02873972       0.074
  -0.00003069  0.02874770  0.02871342       0.074
   0.02870905  0.02871823  0.02871218       0.074
  -0.02877043  0.02877717  0.02871466       0.074
   0.00002824 -0.02879771  0.02876354       0.074
   0.02876799 -0.02882718  0.02876229       0.074
  -0.02871150 -0.02876824  0.02876478       0.074
 
 k-points in reciprocal lattice and weights: Title                                   
   0.00000000  0.00000000  0.00000000       0.037
   0.33333333  0.00000000 -0.00000000       0.074
  -0.00000000  0.33333333 -0.00000000       0.074
   0.33333333  0.33333333  0.00000000       0.074
  -0.33333333  0.33333333  0.00000000       0.074
   0.00000000  0.00000000  0.33333333       0.074
   0.33333333  0.00000000  0.33333333       0.074
  -0.33333333  0.00000000  0.33333333       0.074
  -0.00000000  0.33333333  0.33333333       0.074
   0.33333333  0.33333333  0.33333333       0.074
  -0.33333333  0.33333333  0.33333333       0.074
   0.00000000 -0.33333333  0.33333333       0.074
   0.33333333 -0.33333333  0.33333333       0.074
  -0.33333333 -0.33333333  0.33333333       0.074
 
 position of ions in fractional coordinates (direct lattice) 
   0.99899587  0.01345083  0.00195020
   0.00565068  0.00706931  0.34508444
   0.00933619  0.98986007  0.65767728
   0.99010870  0.32862519  0.99090675
   0.99344306  0.32083093  0.33159289
   0.01086112  0.33391614  0.67681228
   0.01112817  0.66755817  0.98855482
   0.01274506  0.66655179  0.33285975
   0.00898068  0.67592732  0.67602414
   0.34272587  0.98920032  0.99071760
   0.31987816  0.00000233  0.33346938
   0.32279775  0.00061148  0.67774850
   0.33400708  0.33264717  0.00029935
   0.33479231  0.34383533  0.34595235
   0.32532826  0.34242685  0.65629829
   0.32549662  0.67775293  0.00884087
   0.32813862  0.65758131  0.32231059
   0.32258796  0.65605925  0.66544794
   0.65381886  0.99295262  0.99462446
   0.66552657  0.98767341  0.33415884
   0.66656054  0.99940965  0.67991846
   0.67978217  0.33394734  0.99202006
   0.67783748  0.33257065  0.33362699
   0.66708766  0.33949970  0.67803129
   0.66625385  0.67794752  0.00904680
   0.66714867  0.67311160  0.32195730
   0.66633952  0.65394931  0.66565197
   0.00385822  0.16673248  0.00585861
   0.99963929  0.16752939  0.32570160
   0.99648245  0.83331806  0.66869307
   0.33418751  0.49904043  0.33658200
   0.34315875  0.49959841  0.66613805
   0.33770340  0.83363667  0.00047363
   0.66212829  0.49988450  0.66568312
   0.66550683  0.83278237  0.00278643
   0.66770681  0.83445171  0.33217734
   0.16822934  0.99261523  0.33536879
   0.16794755  0.00304191  0.66379991
   0.16624836  0.33370952  0.67004660
   0.16640172  0.66590113  0.00177007
   0.16444184  0.67440036  0.33256306
   0.16768364  0.66305474  0.66370910
   0.50050777  0.00957753  0.00635599
   0.83221455  0.33668469  0.01105004
   0.83047768  0.33615952  0.32905611
   0.99389125  0.00202017  0.49852162
   0.99434821  0.33811333  0.83414807
   0.99567213  0.65994594  0.83406357
   0.33522009  0.00383427  0.83299671
   0.33567730  0.32569092  0.49900740
   0.34189780  0.66364715  0.16711794
   0.66422328  0.00416364  0.83132996
   0.67098312  0.32768641  0.83321229
   0.66251987  0.66026927  0.16817277
   0.99292910  0.16725326  0.66910616
   0.00155219  0.49958542  0.00968732
   0.00336165  0.49970602  0.33395263
   0.99054048  0.49951183  0.65665891
   0.99455773  0.83578953  0.99869128
   0.98592022  0.83219439  0.33183861
   0.32300792  0.17007491  0.00598666
   0.33213965  0.16669815  0.32509117
   0.34157548  0.16758293  0.66822477
   0.33913965  0.49514800  0.99483833
   0.34518630  0.83552178  0.33396561
   0.33862988  0.83317957  0.66507990
   0.67034199  0.16792683  0.00902945
   0.66617478  0.16615775  0.33328064
   0.66652973  0.16616433  0.65757282
   0.66014295  0.49965353  0.99523580
   0.65939310  0.49903344  0.34220389
   0.67088220  0.83278786  0.66440870
   0.16508581  0.99720067  0.00389156
   0.17045316  0.34051324  0.99820562
   0.16645513  0.33295951  0.33132888
   0.50092523  0.00540177  0.33092866
   0.50232689  0.99762560  0.65798660
   0.49789732  0.32628451  0.00228704
   0.50193745  0.32772680  0.32869105
   0.50167513  0.32523101  0.66983796
   0.50131417  0.65896294  0.99032107
   0.50205913  0.66709379  0.34309323
   0.50321402  0.67628906  0.66720662
   0.83268442  0.00339813  0.00214784
   0.83049276  0.00388364  0.32931475
   0.83130823  0.00394081  0.66762006
   0.83171118  0.33116395  0.65569639
   0.83212253  0.66034943  0.00247228
   0.83218739  0.65763646  0.33552531
   0.83054326  0.66502380  0.66203440
   0.99707629  0.99090019  0.16691280
   0.99718902  0.00317878  0.83574646
   0.00993420  0.34105637  0.16645406
   0.00075806  0.33155094  0.49836029
   0.99100772  0.66853214  0.16769728
   0.99336353  0.66609985  0.49785271
   0.33174814  0.00245787  0.16772718
   0.34144655  0.00487428  0.49815316
   0.33312920  0.33460079  0.16372069
   0.33836960  0.32683917  0.83732235
   0.33869539  0.67396235  0.49888921
   0.33814418  0.66605460  0.83292059
   0.67066546  0.00622230  0.16906850
   0.66894849  0.00136497  0.49920654
   0.65663778  0.33911021  0.16767815
   0.66117435  0.32993533  0.49901618
   0.66764032  0.66842298  0.49994881
   0.67135900  0.66772397  0.83191562
 
 position of ions in cartesian coordinates  (Angst):
  11.58686829  0.16771532  0.02325902
   0.06579918  0.08545155  4.00266031
   0.12038003 11.47435792  7.63828916
  11.48804185  3.82891871 11.49720020
  11.52628498  3.73200095  3.84983407
   0.13028420  3.87540962  7.85362227
   0.13750454  7.74382993 11.47284360
   0.15591035  7.72556644  3.86751888
   0.11253672  7.83760449  7.84792725
   3.98731404 11.47403923 11.50133866
   3.71023067  0.00719533  3.86802592
   3.74427647  0.01776501  7.86127885
   3.87788407  3.85771299  0.00699346
   3.88730121  3.99082976  4.01628746
   3.77767594  3.97753509  7.61592760
   3.78328087  7.85577429  0.10953967
   3.81384446  7.62528262  3.74522911
   3.74962336  7.61104985  7.72521317
   7.59552707 11.52124475 11.54684832
   7.73091660 11.45355181  3.88615269
   7.74322526 11.59302208  7.89668899
   7.88882882  3.88690117 11.51001062
   7.86592034  3.86427799  3.87338658
   7.74149871  3.94790300  7.86814834
   7.73550613  7.86207852  0.11210189
   7.74598723  7.80922559  3.74145877
   7.73655066  7.59069146  7.72773155
   0.04673270  1.93171331  0.06963585
  11.59632688  1.95600512  3.77995965
  11.56779751  9.67264417  7.76497929
   3.88212552  5.78879064  3.90916622
   3.98635238  5.79869055  7.73165090
   3.92670694  9.66175960  0.01406672
   7.68587707  5.80578928  7.72653778
   7.72867808  9.65577973  0.04104912
   7.75438258  9.67847279  3.86162610
   1.96314681 11.50490810  3.89998595
   1.94829084  0.04394134  7.69943754
   1.93251444  3.87479339  7.77522433
   1.93789749  7.71650911  0.02732686
   1.91543633  7.81829168  3.86423315
   1.95307053  7.69023550  7.70503705
   5.80518313  0.11696594  0.07407098
   9.65632402  3.91051459  0.13198095
   9.63633567  3.90762231  3.82048273
  11.52778141  0.04024594  5.78280372
  11.53724570  3.93730633  9.67907599
  11.55642410  7.66577612  9.68134057
   3.88847293  0.05681714  9.66201984
   3.89742843  3.78218201  5.79136906
   3.97342089  7.69415153  1.94523944
   7.70437137  0.06452415  9.64285656
   7.78661863  3.81265900  9.66795399
   7.69206955  7.65883773  1.95760166
  11.51867216  1.95619547  7.76305496
   0.02394259  5.78785093  0.11739843
   0.04509671  5.79254528  3.87850850
  11.49490882  5.80528183  7.62202893
  11.54567217  9.70458715 11.59260624
  11.44510727  9.65609814  3.85783487
   3.74838362  1.97422796  0.07131554
   3.85441979  1.93844001  3.77253472
   3.96404599  1.95226865  7.75250699
   3.93985278  5.75040499 11.54415252
   4.01368925  9.68705658  3.88221633
   3.93778717  9.66318889  7.72273779
   7.77686299  1.95349893  0.10676176
   7.72867520  1.93622999  3.86768598
   7.73295803  1.93958642  7.62910593
   7.66301629  5.80641906 11.54896997
   7.65397778  5.79262950  3.97453753
   7.79136209  9.66259089  7.71511609
   1.92657183 11.55464487  0.05527254
   1.98153195  3.95697997 11.58156563
   1.93473046  3.86268520  3.84647739
   5.81014146  0.07187320  3.83870212
   5.83835298 11.57018129  7.64220360
   5.77866648  3.78596806  0.03006688
   5.82570949  3.80602228  3.81599790
   5.82281192  3.78055151  7.77288789
   5.82275399  7.65009416 11.49349050
   5.83115970  7.73776131  3.98646758
   5.84482962  7.84757706  7.74590671
   9.65780986  0.04928045  0.02536632
   9.63256348  0.05818417  3.82013329
   9.64219536  0.06227364  7.74409027
   9.65075007  3.85306260  7.60908788
   9.65909732  7.66010724  0.03575112
   9.65998775  7.63204253  3.89875936
   9.64117341  7.72090419  7.68596622
  11.57630028 11.49318315  1.94648875
  11.56621632  0.05711429  9.69424077
   0.11935712  3.95296318  1.93412016
   0.01298586  3.84608589  5.78375366
  11.50208571  7.75846098  1.95233539
  11.52954933  7.73364590  5.78173868
   3.84784725  0.03410971  1.94563604
   3.96053071  0.06555716  5.77822995
   3.86780898  3.88198631  1.90251401
   3.92884139  3.79893427  9.71544986
   3.93657050  7.81696742  5.79351029
   3.93025437  7.72872331  9.66781355
   7.77877561  0.08176029  1.96140256
   7.75897289  0.02880246  5.79057765
   7.62003147  3.93811107  1.94862450
   7.67270880  3.83522047  5.79167772
   7.75172494  7.75671151  5.80591035
   7.79501704  7.75201112  9.65634179
 


--------------------------------------------------------------------------------------------------------


 k-point   1 :   0.0000 0.0000 0.0000  plane waves:   65415
 k-point   2 :   0.3333 0.0000-0.0000  plane waves:   65500
 k-point   3 :  -0.0000 0.3333-0.0000  plane waves:   65491
 k-point   4 :   0.3333 0.3333 0.0000  plane waves:   65519
 k-point   5 :  -0.3333 0.3333 0.0000  plane waves:   65541
 k-point   6 :   0.0000 0.0000 0.3333  plane waves:   65499
 k-point   7 :   0.3333 0.0000 0.3333  plane waves:   65532
 k-point   8 :  -0.3333 0.0000 0.3333  plane waves:   65525
 k-point   9 :  -0.0000 0.3333 0.3333  plane waves:   65526
 k-point  10 :   0.3333 0.3333 0.3333  plane waves:   65555
 k-point  11 :  -0.3333 0.3333 0.3333  plane waves:   65564
 k-point  12 :   0.0000-0.3333 0.3333  plane waves:   65537
 k-point  13 :   0.3333-0.3333 0.3333  plane waves:   65575
 k-point  14 :  -0.3333-0.3333 0.3333  plane waves:   65564

 maximum and minimum number of plane-waves per node :      8262     8122

 maximum number of plane-waves:     65575
 maximum index in each direction: 
   IXMAX=   25   IYMAX=   25   IZMAX=   25
   IXMIN=  -25   IYMIN=  -25   IZMIN=  -25


 real space projection operators:
  total allocation   :      54008.64 KBytes
  max/ min on nodes  :       7366.36       6153.84


 parallel 3D FFT for wavefunctions:
    minimum data exchange during FFTs selected (reduces bandwidth)
 parallel 3D FFT for charge:
    minimum data exchange during FFTs selected (reduces bandwidth)


 total amount of memory used by VASP MPI-rank0   298132. kBytes
=======================================================================

   base      :      30000. kBytes
   nonlr-proj:      25249. kBytes
   fftplans  :      18873. kBytes
   grid      :      21088. kBytes
   one-center:        435. kBytes
   wavefun   :     202487. kBytes
 
     INWAV:  cpu time     34.3482: real time     34.4595
 Broyden mixing: mesh for mixing (old mesh)
   NGX = 51   NGY = 49   NGZ = 51
  (NGX  =200   NGY  =200   NGZ  =200)
  gives a total of 127449 points

 charge density for first step will be calculated from the start-wavefunctions


--------------------------------------------------------------------------------------------------------


 Maximum index for non-local projection operator         1363
 Maximum index for augmentation-charges         4048 (set IRDMAX)


--------------------------------------------------------------------------------------------------------


 initial charge from wavefunction
 First call to EWALD:  gamma=   0.153
 Maximum number of real-space cells 3x 3x 3
 Maximum number of reciprocal cells 3x 3x 3

    FEWALD:  cpu time      0.0038: real time      0.0038


--------------------------------------- Iteration      1(   1)  ---------------------------------------


    POTLOK:  cpu time      0.1624: real time      0.1780
    SETDIJ:  cpu time      0.8896: real time      0.8982
     EDDAV:  cpu time    112.3948: real time    112.7349
       DOS:  cpu time      0.0068: real time      0.0096
    CHARGE:  cpu time      3.9446: real time      3.9548
    MIXING:  cpu time      0.0053: real time      0.0084
    --------------------------------------------
      LOOP:  cpu time    117.4036: real time    117.7841

 eigenvalue-minimisations  : 40740
 total energy-change (2. order) :-0.7210215E+03  (-0.9633972E-06)
 number of electron     810.0000012 magnetization      -0.0000000
 augmentation part      209.1411462 magnetization      -0.0000000

 Broyden mixing:
  rms(total) = 0.73845E-03    rms(broyden)= 0.73433E-03
  rms(prec ) = 0.10102E-02
  weight for this iteration     100.00

 Free energy of the ion-electron system (eV)
  ---------------------------------------------------
  alpha Z        PSCENC =      2559.24539664
  Ewald energy   TEWEN  =    -43245.34084242
  -Hartree energ DENC   =    -27769.32637338
  -exchange      EXHF   =         0.00000000
  -V(xc)+E(xc)   XCENC  =      3779.50734278
  PAW double counting   =     60880.72698427   -61296.02599288
  entropy T*S    EENTRO =        -0.00000000
  eigenvalues    EBANDS =    -10900.25016203
  atomic energy  EATOM  =     75270.44210491
  Solvation  Ediel_sol  =         0.00000000
  ---------------------------------------------------
  free energy    TOTEN  =      -721.02154211 eV

  energy without entropy =     -721.02154211  energy(sigma->0) =     -721.02154211


--------------------------------------------------------------------------------------------------------




--------------------------------------- Iteration      1(   2)  ---------------------------------------


    POTLOK:  cpu time      0.1564: real time      0.1598
    SETDIJ:  cpu time      0.8915: real time      0.8938
     EDDAV:  cpu time     94.6227: real time     94.8647
       DOS:  cpu time      0.0147: real time      0.0148
    CHARGE:  cpu time      4.0006: real time      4.0109
    MIXING:  cpu time      0.0049: real time      0.0062
    --------------------------------------------
      LOOP:  cpu time     99.6909: real time     99.9501

 eigenvalue-minimisations  : 33120
 total energy-change (2. order) : 0.1309178E-05  (-0.5360668E-06)
 number of electron     810.0000012 magnetization      -0.0000000
 augmentation part      209.1410913 magnetization      -0.0000000

 Broyden mixing:
  rms(total) = 0.40353E-03    rms(broyden)= 0.39603E-03
  rms(prec ) = 0.55241E-03
  weight for this iteration     100.00

 eigenvalues of (default mixing * dielectric matrix)
  average eigenvalue GAMMA=   0.7388
  0.7388

 Free energy of the ion-electron system (eV)
  ---------------------------------------------------
  alpha Z        PSCENC =      2559.24539664
  Ewald energy   TEWEN  =    -43245.34084242
  -Hartree energ DENC   =    -27769.36879912
  -exchange      EXHF   =         0.00000000
  -V(xc)+E(xc)   XCENC  =      3779.51025285
  PAW double counting   =     60880.77342593   -61296.07627598
  entropy T*S    EENTRO =        -0.00000000
  eigenvalues    EBANDS =    -10900.20680362
  atomic energy  EATOM  =     75270.44210491
  Solvation  Ediel_sol  =         0.00000000
  ---------------------------------------------------
  free energy    TOTEN  =      -721.02154080 eV

  energy without entropy =     -721.02154080  energy(sigma->0) =     -721.02154080


--------------------------------------------------------------------------------------------------------




--------------------------------------- Iteration      1(   3)  ---------------------------------------


    POTLOK:  cpu time      0.1657: real time      0.1716
    SETDIJ:  cpu time      0.9231: real time      0.9253
     EDDAV:  cpu time     66.4613: real time     66.6365
       DOS:  cpu time      0.0038: real time      0.0038
    --------------------------------------------
      LOOP:  cpu time     67.5539: real time     67.7373

 eigenvalue-minimisations  : 20100
 total energy-change (2. order) : 0.3428577E-06  (-0.1160234E-06)
 number of electron     810.0000012 magnetization      -0.0000000
 augmentation part      209.1410913 magnetization      -0.0000000

 Free energy of the ion-electron system (eV)
  ---------------------------------------------------
  alpha Z        PSCENC =      2559.24539664
  Ewald energy   TEWEN  =    -43245.34084242
  -Hartree energ DENC   =    -27769.38004753
  -exchange      EXHF   =         0.00000000
  -V(xc)+E(xc)   XCENC  =      3779.51089704
  PAW double counting   =     60880.77234088   -61296.07591608
  entropy T*S    EENTRO =        -0.00000000
  eigenvalues    EBANDS =    -10900.19547391
  atomic energy  EATOM  =     75270.44210491
  Solvation  Ediel_sol  =         0.00000000
  ---------------------------------------------------
  free energy    TOTEN  =      -721.02154046 eV

  energy without entropy =     -721.02154046  energy(sigma->0) =     -721.02154046


--------------------------------------------------------------------------------------------------------




 average (electrostatic) potential at core
  the test charge radii are     1.0397  0.7215  0.7167
  (the norm of the test charge is              1.0000)
       1 -59.2193       2 -58.4976       3 -58.2676       4 -58.6137       5 -58.9496
       6 -58.6836       7 -58.5036       8 -59.1343       9 -58.2524      10 -58.2404
      11 -59.1809      12 -58.4987      13 -60.3113      14 -58.6015      15 -58.3754
      16 -58.2400      17 -58.4336      18 -58.5321      19 -58.5160      20 -59.4313
      21 -59.2066      22 -58.9012      23 -59.4221      24 -59.0801      25 -58.8661
      26 -59.0591      27 -59.4066      28 -74.2650      29 -74.1897      30 -73.7578
      31 -74.0085      32 -73.8581      33 -73.9153      34 -74.5082      35 -74.1372
      36 -74.5588      37 -74.3430      38 -73.8885      39 -73.9945      40 -73.8556
      41 -74.2642      42 -73.8977      43 -73.9365      44 -74.2908      45 -74.4784
      46 -73.9364      47 -74.0558      48 -73.8663      49 -73.8950      50 -74.0824
      51 -73.8205      52 -74.3729      53 -74.3525      54 -74.3291      55 -78.7081
      56 -78.8900      57 -79.0028      58 -78.7056      59 -78.7974      60 -79.0472
      61 -79.4445      62 -79.0270      63 -78.7196      64 -79.4337      65 -79.0104
      66 -78.6921      67 -79.0181      68 -79.2424      69 -79.2071      70 -78.9932
      71 -79.3096      72 -79.1390      73 -78.9809      74 -79.4953      75 -79.0298
      76 -79.1687      77 -78.9639      78 -79.5015      79 -79.0010      80 -78.9644
      81 -78.8166      82 -79.0434      83 -79.0238      84 -78.9537      85 -79.2097
      86 -78.9850      87 -78.9298      88 -78.8272      89 -78.9980      90 -79.0416
      91 -78.9483      92 -78.9431      93 -78.9171      94 -78.9101      95 -78.8970
      96 -78.9002      97 -78.9765      98 -78.9468      99 -79.4687     100 -79.4631
     101 -78.6540     102 -78.6800     103 -79.2001     104 -79.1797     105 -79.2245
     106 -79.1811     107 -79.1596     108 -79.1707
 
 
 
 E-fermi :  -0.7145     XC(G=0):  -8.9844     alpha+bet : -7.6520

 Fermi energy:        -0.7144829601

 spin component 1

 k-point     1 :       0.0000    0.0000    0.0000
  band No.  band energies     occupation 
      1     -36.1742      1.00000
      2     -36.1717      1.00000
      3     -36.1706      1.00000
      4     -35.3810      1.00000
      5     -35.3730      1.00000
      6     -35.3711      1.00000
      7     -35.3708      1.00000
      8     -35.3432      1.00000
      9     -35.3427      1.00000
     10     -35.2591      1.00000
     11     -35.2305      1.00000
     12     -35.2240      1.00000
     13     -35.1692      1.00000
     14     -35.1619      1.00000
     15     -35.1577      1.00000
     16     -35.1531      1.00000
     17     -35.1374      1.00000
     18     -35.1263      1.00000
     19     -35.0939      1.00000
     20     -35.0765      1.00000
     21     -35.0449      1.00000
     22     -35.0377      1.00000
     23     -35.0373      1.00000
     24     -35.0211      1.00000
     25     -35.0188      1.00000
     26     -34.9640      1.00000
     27     -34.9554      1.00000
     28     -34.9489      1.00000
     29     -34.9354      1.00000
     30     -34.9213      1.00000
     31     -34.9160      1.00000
     32     -34.8952      1.00000
     33     -34.8437      1.00000
     34     -34.8310      1.00000
     35     -34.8149      1.00000
     36     -34.8000      1.00000
     37     -34.7810      1.00000
     38     -34.7605      1.00000
     39     -34.7219      1.00000
     40     -34.6531      1.00000
     41     -34.6170      1.00000
     42     -34.5857      1.00000
     43     -34.5616      1.00000
     44     -34.5467      1.00000
     45     -34.5434      1.00000
     46     -34.5338      1.00000
     47     -34.5192      1.00000
     48     -34.5026      1.00000
     49     -34.4960      1.00000
     50     -34.4916      1.00000
     51     -34.4824      1.00000
     52     -34.4687      1.00000
     53     -34.4522      1.00000
     54     -34.4372      1.00000
     55     -34.4322      1.00000
     56     -34.4242      1.00000
     57     -34.4198      1.00000
     58     -34.4151      1.00000
     59     -34.4134      1.00000
     60     -34.3986      1.00000
     61     -34.3967      1.00000
     62     -34.3814      1.00000
     63     -34.3771      1.00000
     64     -34.3764      1.00000
     65     -34.3465      1.00000
     66     -34.3321      1.00000
     67     -34.3128      1.00000
     68     -34.2903      1.00000
     69     -34.2617      1.00000
     70     -34.2433      1.00000
     71     -34.2194      1.00000
     72     -34.2036      1.00000
     73     -34.2016      1.00000
     74     -34.1803      1.00000
     75     -34.1778      1.00000
     76     -34.1737      1.00000
     77     -34.1639      1.00000
     78     -34.1607      1.00000
     79     -34.1491      1.00000
     80     -34.1357      1.00000
     81     -34.1269      1.00000
     82     -23.4778      1.00000
     83     -23.2309      1.00000
     84     -23.1944      1.00000
     85     -23.1587      1.00000
     86     -23.1029      1.00000
     87     -23.0895      1.00000
     88     -23.0387      1.00000
     89     -22.9999      1.00000
     90     -22.9723      1.00000
     91     -22.9440      1.00000
     92     -22.9307      1.00000
     93     -22.9147      1.00000
     94     -22.9063      1.00000
     95     -22.8697      1.00000
     96     -22.8521      1.00000
     97     -22.8318      1.00000
     98     -22.8092      1.00000
     99     -22.7993      1.00000
    100     -22.7786      1.00000
    101     -22.7611      1.00000
    102     -22.7520      1.00000
    103     -22.7295      1.00000
    104     -22.7104      1.00000
    105     -22.7023      1.00000
    106     -22.6763      1.00000
    107     -22.6661      1.00000
    108     -22.6573      1.00000
    109     -22.6536      1.00000
    110     -22.6432      1.00000
    111     -22.6388      1.00000
    112     -22.6237      1.00000
    113     -22.6147      1.00000
    114     -22.5667      1.00000
    115     -22.5524      1.00000
    116     -22.5411      1.00000
    117     -22.5330      1.00000
    118     -22.5256      1.00000
    119     -22.5066      1.00000
    120     -22.4955      1.00000
    121     -22.4782      1.00000
    122     -22.4760      1.00000
    123     -22.4526      1.00000
    124     -22.4457      1.00000
    125     -22.4240      1.00000
    126     -22.4108      1.00000
    127     -22.4052      1.00000
    128     -22.3829      1.00000
    129     -22.3768      1.00000
    130     -22.3512      1.00000
    131     -22.3373      1.00000
    132     -22.3095      1.00000
    133     -22.2089      1.00000
    134     -22.2060      1.00000
    135     -22.1737      1.00000
    136     -17.0410      1.00000
    137     -17.0061      1.00000
    138     -16.9465      1.00000
    139     -16.8833      1.00000
    140     -16.8600      1.00000
    141     -16.8289      1.00000
    142     -16.7903      1.00000
    143     -16.7788      1.00000
    144     -16.7433      1.00000
    145     -16.6605      1.00000
    146     -16.6543      1.00000
    147     -16.6152      1.00000
    148     -16.5961      1.00000
    149     -16.5585      1.00000
    150     -16.5452      1.00000
    151     -16.5188      1.00000
    152     -16.4816      1.00000
    153     -16.4674      1.00000
    154     -16.4040      1.00000
    155     -16.3920      1.00000
    156     -16.3459      1.00000
    157     -16.3347      1.00000
    158     -16.2742      1.00000
    159     -16.2640      1.00000
    160     -16.2305      1.00000
    161     -16.2144      1.00000
    162     -16.1599      1.00000
    163      -6.8067      1.00000
    164      -6.7693      1.00000
    165      -6.7035      1.00000
    166      -6.6080      1.00000
    167      -6.5417      1.00000
    168      -6.4842      1.00000
    169      -6.4491      1.00000
    170      -6.3875      1.00000
    171      -6.3633      1.00000
    172      -6.3522      1.00000
    173      -6.3201      1.00000
    174      -6.2908      1.00000
    175      -6.2475      1.00000
    176      -6.2412      1.00000
    177      -6.2141      1.00000
    178      -6.1995      1.00000
    179      -6.1864      1.00000
    180      -6.1447      1.00000
    181      -6.1363      1.00000
    182      -6.1063      1.00000
    183      -6.0792      1.00000
    184      -6.0622      1.00000
    185      -6.0190      1.00000
    186      -5.9906      1.00000
    187      -5.9752      1.00000
    188      -5.9502      1.00000
    189      -5.9213      1.00000
    190      -5.9067      1.00000
    191      -5.8758      1.00000
    192      -5.8648      1.00000
    193      -5.8460      1.00000
    194      -5.8233      1.00000
    195      -5.8006      1.00000
    196      -5.7916      1.00000
    197      -5.7755      1.00000
    198      -5.7639      1.00000
    199      -5.7488      1.00000
    200      -5.7111      1.00000
    201      -5.6787      1.00000
    202      -5.6611      1.00000
    203      -5.6440      1.00000
    204      -5.6136      1.00000
    205      -5.5861      1.00000
    206      -5.5772      1.00000
    207      -5.5467      1.00000
    208      -5.5261      1.00000
    209      -5.4995      1.00000
    210      -5.4933      1.00000
    211      -5.4826      1.00000
    212      -5.4538      1.00000
    213      -5.4537      1.00000
    214      -5.4324      1.00000
    215      -5.4198      1.00000
    216      -5.3955      1.00000
    217      -5.3354      1.00000
    218      -5.3076      1.00000
    219      -5.2847      1.00000
    220      -5.2685      1.00000
    221      -5.1875      1.00000
    222      -5.1363      1.00000
    223      -5.1001      1.00000
    224      -5.0779      1.00000
    225      -5.0739      1.00000
    226      -5.0536      1.00000
    227      -5.0238      1.00000
    228      -5.0025      1.00000
    229      -4.9795      1.00000
    230      -4.9555      1.00000
    231      -4.9369      1.00000
    232      -4.9161      1.00000
    233      -4.8716      1.00000
    234      -4.8625      1.00000
    235      -4.8560      1.00000
    236      -4.8281      1.00000
    237      -4.8141      1.00000
    238      -4.8050      1.00000
    239      -4.7784      1.00000
    240      -4.7746      1.00000
    241      -4.7356      1.00000
    242      -4.7034      1.00000
    243      -4.6733      1.00000
    244      -4.6501      1.00000
    245      -4.6332      1.00000
    246      -4.6261      1.00000
    247      -4.5900      1.00000
    248      -4.5796      1.00000
    249      -4.5487      1.00000
    250      -4.5309      1.00000
    251      -4.4764      1.00000
    252      -4.4700      1.00000
    253      -4.4435      1.00000
    254      -4.4219      1.00000
    255      -4.4100      1.00000
    256      -4.3230      1.00000
    257      -4.2962      1.00000
    258      -4.2753      1.00000
    259      -4.2583      1.00000
    260      -4.2230      1.00000
    261      -4.2032      1.00000
    262      -4.1788      1.00000
    263      -4.1769      1.00000
    264      -4.1525      1.00000
    265      -4.1428      1.00000
    266      -4.1184      1.00000
    267      -4.1073      1.00000
    268      -4.1024      1.00000
    269      -4.0919      1.00000
    270      -4.0677      1.00000
    271      -4.0550      1.00000
    272      -4.0501      1.00000
    273      -4.0394      1.00000
    274      -4.0305      1.00000
    275      -4.0154      1.00000
    276      -4.0036      1.00000
    277      -3.9796      1.00000
    278      -3.9652      1.00000
    279      -3.9548      1.00000
    280      -3.9404      1.00000
    281      -3.9261      1.00000
    282      -3.9100      1.00000
    283      -3.8883      1.00000
    284      -3.8803      1.00000
    285      -3.8597      1.00000
    286      -3.8469      1.00000
    287      -3.8377      1.00000
    288      -3.8181      1.00000
    289      -3.7820      1.00000
    290      -3.7729      1.00000
    291      -3.7600      1.00000
    292      -3.7433      1.00000
    293      -3.7345      1.00000
    294      -3.7134      1.00000
    295      -3.7019      1.00000
    296      -3.6938      1.00000
    297      -3.6865      1.00000
    298      -3.6694      1.00000
    299      -3.6574      1.00000
    300      -3.6473      1.00000
    301      -3.6438      1.00000
    302      -3.6177      1.00000
    303      -3.6104      1.00000
    304      -3.5953      1.00000
    305      -3.5897      1.00000
    306      -3.5751      1.00000
    307      -3.5632      1.00000
    308      -3.5415      1.00000
    309      -3.5284      1.00000
    310      -3.5223      1.00000
    311      -3.5128      1.00000
    312      -3.5060      1.00000
    313      -3.4871      1.00000
    314      -3.4754      1.00000
    315      -3.4645      1.00000
    316      -3.4558      1.00000
    317      -3.4510      1.00000
    318      -3.4402      1.00000
    319      -3.4308      1.00000
    320      -3.4268      1.00000
    321      -3.4099      1.00000
    322      -3.3923      1.00000
    323      -3.3850      1.00000
    324      -3.3844      1.00000
    325      -3.3650      1.00000
    326      -3.3592      1.00000
    327      -3.3524      1.00000
    328      -3.3362      1.00000
    329      -3.3070      1.00000
    330      -3.2763      1.00000
    331      -3.2669      1.00000
    332      -3.2545      1.00000
    333      -3.2379      1.00000
    334      -3.2335      1.00000
    335      -3.2196      1.00000
    336      -3.2149      1.00000
    337      -3.2064      1.00000
    338      -3.1924      1.00000
    339      -3.1634      1.00000
    340      -3.1439      1.00000
    341      -3.1396      1.00000
    342      -3.1267      1.00000
    343      -3.1032      1.00000
    344      -3.0978      1.00000
    345      -3.0737      1.00000
    346      -3.0573      1.00000
    347      -3.0204      1.00000
    348      -3.0050      1.00000
    349      -2.9889      1.00000
    350      -2.9749      1.00000
    351      -2.9500      1.00000
    352      -2.8389      1.00000
    353      -2.7698      1.00000
    354      -2.7348      1.00000
    355      -2.6888      1.00000
    356      -2.6492      1.00000
    357      -2.6380      1.00000
    358      -2.6172      1.00000
    359      -2.5537      1.00000
    360      -2.5285      1.00000
    361      -2.5108      1.00000
    362      -2.4903      1.00000
    363      -2.4838      1.00000
    364      -2.4660      1.00000
    365      -2.4457      1.00000
    366      -2.4317      1.00000
    367      -2.3762      1.00000
    368      -2.3456      1.00000
    369      -2.3256      1.00000
    370      -2.3191      1.00000
    371      -2.2702      1.00000
    372      -2.2095      1.00000
    373      -2.1907      1.00000
    374      -2.1893      1.00000
    375      -2.1633      1.00000
    376      -2.1256      1.00000
    377      -2.1044      1.00000
    378      -2.0704      1.00000
    379      -2.0237      1.00000
    380      -1.9942      1.00000
    381      -1.9582      1.00000
    382      -1.9489      1.00000
    383      -1.9151      1.00000
    384      -1.8783      1.00000
    385      -1.7139      1.00000
    386      -1.6522      1.00000
    387      -1.6165      1.00000
    388      -1.5944      1.00000
    389      -1.5641      1.00000
    390      -1.5469      1.00000
    391      -1.5322      1.00000
    392      -1.4479      1.00000
    393      -1.4290      1.00000
    394      -1.3642      1.00000
    395      -1.3502      1.00000
    396      -1.2871      1.00000
    397      -1.2589      1.00000
    398      -1.1980      1.00000
    399      -1.0772      1.00000
    400      -1.0436      1.00000
    401      -0.9720      1.00000
    402      -0.9096      1.00000
    403      -0.8795      1.00000
    404      -0.8478      1.00000
    405      -0.7756      1.00000
    406       1.6964      0.00000
    407       1.7232      0.00000
    408       1.7681      0.00000
    409       1.7746      0.00000
    410       1.8515      0.00000
    411       2.0516      0.00000
    412       2.0754      0.00000
    413       2.1168      0.00000
    414       2.1356      0.00000
    415       2.1471      0.00000
    416       2.2554      0.00000
    417       2.3125      0.00000
    418       2.3567      0.00000
    419       2.4004      0.00000
    420       2.4184      0.00000
    421       2.4769      0.00000
    422       2.5077      0.00000
    423       2.5566      0.00000
    424       2.5641      0.00000
    425       2.5906      0.00000
    426       2.5972      0.00000
    427       2.6206      0.00000
    428       2.6356      0.00000
    429       2.6429      0.00000
    430       2.6664      0.00000
    431       2.6772      0.00000
    432       2.7000      0.00000
    433       2.7187      0.00000
    434       2.7597      0.00000
    435       2.7675      0.00000
    436       2.7960      0.00000
    437       2.8502      0.00000
    438       2.8805      0.00000
    439       2.8965      0.00000
    440       2.9210      0.00000
    441       2.9235      0.00000
    442       2.9548      0.00000
    443       2.9605      0.00000
    444       2.9756      0.00000
    445       3.0031      0.00000
    446       3.0134      0.00000
    447       3.0265      0.00000
    448       3.0492      0.00000
    449       3.0786      0.00000
    450       3.0942      0.00000
    451       3.1119      0.00000
    452       3.1144      0.00000
    453       3.1365      0.00000
    454       3.1824      0.00000
    455       3.1913      0.00000
    456       3.2328      0.00000
    457       3.2605      0.00000
    458       3.2716      0.00000
    459       3.2764      0.00000
    460       3.3182      0.00000
    461       3.3209      0.00000
    462       3.3542      0.00000
    463       3.3639      0.00000
    464       3.3898      0.00000
    465       3.4201      0.00000
    466       3.4287      0.00000
    467       3.4395      0.00000
    468       3.4726      0.00000
    469       3.4958      0.00000
    470       3.5051      0.00000
    471       3.5292      0.00000
[...]
      3.77768      3.97754      7.61593         0.001019     -0.000415      0.000400
      3.78328      7.85577      0.10954         0.000760     -0.001299     -0.001733
      3.81384      7.62528      3.74523        -0.000023     -0.000468     -0.000620
      3.74962      7.61105      7.72521         0.001087     -0.001652     -0.001546
      7.59553     11.52124     11.54685         0.000428      0.001810      0.002699
      7.73092     11.45355      3.88615        -0.001753      0.000286      0.001432
      7.74323     11.59302      7.89669        -0.000747     -0.000230      0.002837
      7.88883      3.88690     11.51001         0.002550      0.000237      0.001530
      7.86592      3.86428      3.87339         0.000545     -0.000048      0.001368
      7.74150      3.94790      7.86815         0.001623     -0.000386     -0.000797
      7.73551      7.86208      0.11210        -0.000837     -0.000117     -0.000606
      7.74599      7.80923      3.74146         0.000973     -0.002847      0.000987
      7.73655      7.59069      7.72773         0.000681     -0.001356     -0.000207
      0.04673      1.93171      0.06964         0.000816      0.001577     -0.001379
     11.59633      1.95601      3.77996         0.000891     -0.002258     -0.002695
     11.56780      9.67264      7.76498         0.005341      0.000522      0.003259
      3.88213      5.78879      3.90917        -0.005911      0.000477      0.005942
      3.98635      5.79869      7.73165         0.001881      0.000114     -0.001079
      3.92671      9.66176      0.01407         0.006920      0.003276      0.000520
      7.68588      5.80579      7.72654         0.000461      0.000189      0.003827
      7.72868      9.65578      0.04105        -0.002634      0.000328      0.001132
      7.75438      9.67847      3.86163         0.001191     -0.001755     -0.004124
      1.96315     11.50491      3.89999        -0.002445     -0.003432      0.003800
      1.94829      0.04394      7.69944        -0.000176      0.000885     -0.001211
      1.93251      3.87479      7.77522        -0.000036      0.003026      0.004737
      1.93790      7.71651      0.02733        -0.000717      0.003984      0.001192
      1.91544      7.81829      3.86423         0.000531      0.004099     -0.004410
      1.95307      7.69024      7.70504         0.000130     -0.004304     -0.000692
      5.80518      0.11697      0.07407        -0.004275      0.005648     -0.000076
      9.65632      3.91051      0.13198         0.002083      0.001691      0.004155
      9.63634      3.90762      3.82048         0.003231      0.002072      0.001766
     11.52778      0.04025      5.78280        -0.000105      0.002102      0.002252
     11.53725      3.93731      9.67908        -0.005336      0.000374     -0.000246
     11.55642      7.66578      9.68134         0.003298     -0.002260     -0.000803
      3.88847      0.05682      9.66202        -0.000768     -0.000037      0.002549
      3.89743      3.78218      5.79137        -0.000836     -0.002387      0.000062
      3.97342      7.69415      1.94524        -0.000976     -0.004734     -0.001081
      7.70437      0.06452      9.64286        -0.002707     -0.000491      0.001155
      7.78662      3.81266      9.66795         0.007993     -0.001636      0.001165
      7.69207      7.65884      1.95760        -0.002839     -0.002401     -0.001841
     11.51867      1.95620      7.76305         0.004880      0.000351      0.002322
      0.02394      5.78785      0.11740         0.002156      0.002439      0.000282
      0.04510      5.79255      3.87851         0.004211      0.000035      0.001640
     11.49491      5.80528      7.62203         0.001362      0.000064     -0.003786
     11.54567      9.70459     11.59261        -0.004644      0.001179     -0.004771
     11.44511      9.65610      3.85783        -0.005268     -0.000588      0.002774
      3.74838      1.97423      0.07132        -0.009419     -0.000134      0.003146
      3.85442      1.93844      3.77253        -0.005085     -0.000688     -0.003398
      3.96405      1.95227      7.75251        -0.002277     -0.001510      0.001294
      3.93985      5.75040     11.54415         0.002607     -0.000101     -0.004491
      4.01369      9.68706      3.88222         0.002410     -0.000748     -0.002297
      3.93779      9.66319      7.72274        -0.004996     -0.000173      0.000204
      7.77686      1.95350      0.10676         0.004755      0.000547      0.002578
      7.72868      1.93623      3.86769         0.000640     -0.000914     -0.001083
      7.73296      1.93959      7.62911         0.000899     -0.001657     -0.001976
      7.66302      5.80642     11.54897        -0.002957      0.000285     -0.005059
      7.65398      5.79263      3.97454        -0.003775     -0.000237      0.002813
      7.79136      9.66259      7.71512         0.003540      0.000176      0.001750
      1.92657     11.55464      0.05527        -0.001272     -0.006455     -0.001514
      1.98153      3.95698     11.58157         0.000618      0.004633     -0.006426
      1.93473      3.86269      3.84648         0.000633      0.000306      0.001875
      5.81014      0.07187      3.83870        -0.001563      0.001155      0.000145
      5.83835     11.57018      7.64220        -0.001353     -0.004369     -0.001186
      5.77867      3.78597      0.03007         0.000523     -0.005469     -0.002163
      5.82571      3.80602      3.81600        -0.001352     -0.002562     -0.000087
      5.82281      3.78055      7.77289         0.001151     -0.000374      0.003905
      5.82275      7.65009     11.49349         0.000228      0.000647     -0.004958
      5.83116      7.73776      3.98647        -0.000644      0.000267      0.001129
      5.84483      7.84758      7.74591        -0.000121      0.002891      0.001717
      9.65781      0.04928      0.02537        -0.000355      0.000776     -0.001412
      9.63256      0.05818      3.82013        -0.001026      0.001396     -0.001935
      9.64220      0.06227      7.74409         0.000407     -0.000725      0.005254
      9.65075      3.85306      7.60909         0.001877     -0.000048     -0.005420
      9.65910      7.66011      0.03575        -0.000009      0.002449      0.000107
      9.65999      7.63204      3.89876         0.000620     -0.004650     -0.002455
      9.64117      7.72090      7.68597         0.002217     -0.002605     -0.001606
     11.57630     11.49318      1.94649         0.000758     -0.001244     -0.000451
     11.56622      0.05711      9.69424         0.002925      0.003096     -0.000450
      0.11936      3.95296      1.93412         0.005225      0.000893      0.000361
      0.01299      3.84609      5.78375         0.002040     -0.003220      0.000415
     11.50209      7.75846      1.95234         0.000707      0.003127     -0.002007
     11.52955      7.73365      5.78174         0.002187      0.002908     -0.001380
      3.84785      0.03411      1.94564        -0.005311     -0.002049     -0.000128
      3.96053      0.06556      5.77823         0.000837     -0.001514      0.001001
      3.86781      3.88199      1.90251        -0.001908      0.006593     -0.000559
      3.92884      3.79893      9.71545         0.001513     -0.002675      0.000383
      3.93657      7.81697      5.79351        -0.002585      0.003976     -0.000938
      3.93025      7.72872      9.66781        -0.005059      0.000582     -0.001575
      7.77878      0.08176      1.96140         0.000898     -0.002010      0.000869
      7.75897      0.02880      5.79058         0.000238     -0.003088      0.001111
      7.62003      3.93811      1.94862        -0.002588      0.004283     -0.000008
      7.67271      3.83522      5.79168        -0.000924      0.000193      0.000835
      7.75172      7.75671      5.80591         0.000198      0.001240      0.000297
      7.79502      7.75201      9.65634         0.002592      0.002444      0.000456
 -----------------------------------------------------------------------------------
    total drift:                                0.001925     -0.006264     -0.003141


--------------------------------------------------------------------------------------------------------



  FREE ENERGIE OF THE ION-ELECTRON SYSTEM (eV)
  ---------------------------------------------------
  free  energy   TOTEN  =      -721.02154046 eV

  energy  without entropy=     -721.02154046  energy(sigma->0) =     -721.02154046
 


--------------------------------------------------------------------------------------------------------


    POTLOK:  cpu time      1.0811: real time      1.0844


--------------------------------------------------------------------------------------------------------


 Quasi-Newton relaxation of ions (Broydens 2nd method)
  g(Force)  = 0.929E-04   g(Stress)= 0.112E-03

 Reset! Starting new Quasi-Newton update for ions 


--------------------------------------------------------------------------------------------------------


  
 reached required accuracy - stopping structural energy minimisation
 writing wavefunctions
     LOOP+:  cpu time    430.7967: real time    471.1000
    4ORBIT:  cpu time      0.0000: real time      0.0000



 total charge

# of ion       s       p       d       tot
------------------------------------------
    1        0.314   6.460   1.744   8.518
    2        0.327   6.460   1.811   8.598
    3        0.328   6.456   1.809   8.592
    4        0.327   6.461   1.795   8.584
    5        0.319   6.458   1.769   8.547
    6        0.320   6.451   1.779   8.551
    7        0.320   6.450   1.804   8.574
    8        0.315   6.456   1.766   8.537
    9        0.328   6.455   1.809   8.591
   10        0.332   6.461   1.841   8.634
   11        0.317   6.460   1.770   8.547
   12        0.322   6.453   1.808   8.583
   13        0.316   6.488   1.678   8.483
   14        0.324   6.457   1.832   8.612
   15        0.329   6.458   1.812   8.598
   16        0.330   6.457   1.823   8.609
   17        0.325   6.456   1.796   8.577
   18        0.321   6.452   1.791   8.564
   19        0.327   6.459   1.806   8.592
   20        0.318   6.467   1.757   8.543
   21        0.316   6.461   1.776   8.553
   22        0.324   6.459   1.803   8.586
   23        0.314   6.461   1.750   8.526
   24        0.322   6.461   1.764   8.546
   25        0.321   6.457   1.776   8.554
   26        0.322   6.463   1.774   8.560
   27        0.317   6.466   1.746   8.529
   28        1.570   3.467   0.000   5.038
   29        1.570   3.472   0.000   5.042
   30        1.569   3.474   0.000   5.043
   31        1.569   3.477   0.000   5.046
   32        1.568   3.472   0.000   5.040
   33        1.570   3.484   0.000   5.054
   34        1.570   3.471   0.000   5.042
   35        1.569   3.472   0.000   5.041
   36        1.571   3.472   0.000   5.043
   37        1.571   3.469   0.000   5.040
   38        1.569   3.475   0.000   5.044
   39        1.568   3.472   0.000   5.040
   40        1.568   3.474   0.000   5.042
   41        1.570   3.464   0.000   5.034
   42        1.569   3.475   0.000   5.044
   43        1.570   3.476   0.000   5.046
   44        1.571   3.478   0.000   5.049
   45        1.570   3.465   0.000   5.035
   46        1.570   3.475   0.000   5.045
   47        1.569   3.472   0.000   5.040
   48        1.569   3.474   0.000   5.043
   49        1.569   3.478   0.000   5.047
   50        1.571   3.481   0.000   5.052
   51        1.569   3.472   0.000   5.041
   52        1.571   3.469   0.000   5.040
   53        1.569   3.473   0.000   5.042
   54        1.570   3.473   0.000   5.043
   55        1.729   4.377   0.000   6.107
   56        1.730   4.384   0.000   6.114
   57        1.730   4.377   0.000   6.107
   58        1.729   4.377   0.000   6.106
   59        1.729   4.377   0.000   6.106
   60        1.730   4.379   0.000   6.109
   61        1.732   4.372   0.000   6.104
   62        1.729   4.379   0.000   6.109
   63        1.730   4.382   0.000   6.111
   64        1.732   4.370   0.000   6.103
   65        1.730   4.377   0.000   6.107
   66        1.729   4.378   0.000   6.107
   67        1.730   4.382   0.000   6.112
   68        1.730   4.379   0.000   6.109
   69        1.730   4.382   0.000   6.112
   70        1.730   4.378   0.000   6.108
   71        1.730   4.381   0.000   6.111
   72        1.729   4.377   0.000   6.107
   73        1.729   4.378   0.000   6.107
   74        1.731   4.373   0.000   6.105
   75        1.729   4.383   0.000   6.112
   76        1.730   4.375   0.000   6.106
   77        1.730   4.377   0.000   6.107
   78        1.731   4.372   0.000   6.103
   79        1.729   4.381   0.000   6.110
   80        1.730   4.379   0.000   6.109
   81        1.730   4.379   0.000   6.109
   82        1.730   4.382   0.000   6.112
   83        1.731   4.374   0.000   6.105
   84        1.730   4.377   0.000   6.106
   85        1.730   4.382   0.000   6.113
   86        1.730   4.379   0.000   6.109
   87        1.730   4.375   0.000   6.105
   88        1.729   4.376   0.000   6.105
   89        1.730   4.376   0.000   6.105
   90        1.731   4.378   0.000   6.109
   91        1.730   4.377   0.000   6.107
   92        1.729   4.376   0.000   6.106
   93        1.730   4.379   0.000   6.110
   94        1.729   4.376   0.000   6.106
   95        1.730   4.376   0.000   6.105
   96        1.730   4.377   0.000   6.107
   97        1.730   4.380   0.000   6.110
   98        1.730   4.375   0.000   6.105
   99        1.731   4.373   0.000   6.104
  100        1.732   4.372   0.000   6.104
  101        1.729   4.378   0.000   6.107
  102        1.729   4.379   0.000   6.108
  103        1.730   4.382   0.000   6.113
  104        1.730   4.376   0.000   6.106
  105        1.730   4.378   0.000   6.108
  106        1.730   4.376   0.000   6.106
  107        1.730   4.379   0.000   6.109
  108        1.729   4.378   0.000   6.108
--------------------------------------------------
tot        144.491 504.578  48.188 697.257



 magnetization (x)

# of ion       s       p       d       tot
------------------------------------------
    1       -0.000   0.000   0.000   0.000
    2       -0.000  -0.000  -0.000  -0.000
    3        0.000  -0.000  -0.000  -0.000
    4       -0.000   0.000   0.000   0.000
    5       -0.000  -0.000  -0.000  -0.000
    6       -0.000   0.000   0.000   0.000
    7        0.000  -0.000  -0.000  -0.000
    8       -0.000  -0.000   0.000  -0.000
    9        0.000   0.000   0.000   0.000
   10        0.000  -0.000  -0.000  -0.000
   11       -0.000   0.000  -0.000  -0.000
   12       -0.000   0.000  -0.000  -0.000
   13        0.000  -0.000  -0.000   0.000
   14       -0.000   0.000  -0.000  -0.000
   15       -0.000   0.000   0.000   0.000
   16        0.000   0.000   0.000   0.000
   17       -0.000   0.000   0.000   0.000
   18        0.000  -0.000   0.000   0.000
   19        0.000   0.000  -0.000  -0.000
   20       -0.000  -0.000   0.000   0.000
   21       -0.000   0.000   0.000   0.000
   22       -0.000  -0.000  -0.000  -0.000
   23       -0.000   0.000  -0.000  -0.000
   24        0.000   0.000   0.000   0.000
   25       -0.000  -0.000  -0.000  -0.000
   26        0.000  -0.000   0.000   0.000
   27        0.000   0.000   0.000   0.000
   28       -0.000  -0.000   0.000  -0.000
   29        0.000   0.000   0.000   0.000
   30       -0.000  -0.000   0.000  -0.000
   31        0.000   0.000   0.000   0.000
   32       -0.000  -0.000   0.000  -0.000
   33        0.000   0.000   0.000   0.000
   34        0.000  -0.000   0.000   0.000
   35       -0.000  -0.000   0.000  -0.000
   36        0.000  -0.000   0.000  -0.000
   37        0.000   0.000   0.000   0.000
   38       -0.000   0.000   0.000   0.000
   39       -0.000   0.000   0.000   0.000
   40       -0.000  -0.000   0.000  -0.000
   41       -0.000  -0.000   0.000  -0.000
   42       -0.000   0.000   0.000  -0.000
   43        0.000   0.000   0.000   0.000
   44        0.000   0.000   0.000   0.000
   45       -0.000  -0.000   0.000  -0.000
   46        0.000   0.000   0.000   0.000
   47       -0.000  -0.000   0.000  -0.000
   48       -0.000   0.000   0.000   0.000
   49        0.000   0.000   0.000   0.000
   50        0.000   0.000   0.000   0.000
   51        0.000  -0.000   0.000  -0.000
   52       -0.000  -0.000   0.000  -0.000
   53        0.000  -0.000   0.000   0.000
   54       -0.000  -0.000   0.000  -0.000
   55       -0.000  -0.000   0.000  -0.000
   56        0.000  -0.000   0.000   0.000
   57        0.000   0.000   0.000   0.000
   58        0.000  -0.000   0.000  -0.000
   59        0.000   0.000   0.000   0.000
   60        0.000   0.000   0.000   0.000
   61        0.000  -0.000   0.000  -0.000
   62        0.000   0.000   0.000   0.000
   63       -0.000  -0.000   0.000  -0.000
   64        0.000  -0.000   0.000   0.000
   65        0.000  -0.000   0.000   0.000
   66        0.000  -0.000   0.000  -0.000
   67       -0.000   0.000   0.000  -0.000
   68       -0.000  -0.000   0.000  -0.000
   69       -0.000   0.000   0.000   0.000
   70        0.000  -0.000   0.000   0.000
   71       -0.000   0.000   0.000  -0.000
   72       -0.000   0.000   0.000   0.000
   73       -0.000   0.000   0.000   0.000
   74        0.000   0.000   0.000   0.000
   75        0.000  -0.000   0.000  -0.000
   76       -0.000  -0.000   0.000  -0.000
   77        0.000   0.000   0.000   0.000
   78       -0.000  -0.000   0.000  -0.000
   79       -0.000   0.000   0.000   0.000
   80       -0.000  -0.000   0.000  -0.000
   81       -0.000  -0.000   0.000  -0.000
   82       -0.000   0.000   0.000   0.000
   83        0.000  -0.000   0.000  -0.000
   84        0.000   0.000   0.000   0.000
   85       -0.000  -0.000   0.000  -0.000
   86        0.000   0.000   0.000   0.000
   87       -0.000  -0.000   0.000  -0.000
   88       -0.000  -0.000   0.000  -0.000
   89       -0.000  -0.000   0.000  -0.000
   90       -0.000  -0.000   0.000  -0.000
   91        0.000  -0.000   0.000  -0.000
   92        0.000  -0.000   0.000  -0.000
   93       -0.000  -0.000   0.000  -0.000
   94       -0.000   0.000   0.000  -0.000
   95        0.000   0.000   0.000   0.000
   96       -0.000  -0.000   0.000  -0.000
   97       -0.000  -0.000   0.000  -0.000
   98        0.000  -0.000   0.000   0.000
   99       -0.000  -0.000   0.000  -0.000
  100       -0.000   0.000   0.000  -0.000
  101        0.000   0.000   0.000   0.000
  102       -0.000   0.000   0.000  -0.000
  103        0.000   0.000   0.000   0.000
  104       -0.000   0.000   0.000   0.000
  105        0.000   0.000   0.000   0.000
  106       -0.000   0.000   0.000  -0.000
  107       -0.000   0.000   0.000  -0.000
  108       -0.000   0.000   0.000  -0.000
--------------------------------------------------
tot         -0.000  -0.000  -0.000  -0.000
 

 total amount of memory used by VASP MPI-rank0   298132. kBytes
=======================================================================

   base      :      30000. kBytes
   nonlr-proj:      25249. kBytes
   fftplans  :      18873. kBytes
   grid      :      21088. kBytes
   one-center:        435. kBytes
   wavefun   :     202487. kBytes
 
  
  
 General timing and accounting informations for this job:
 ========================================================
  
                  Total CPU time used (sec):      519.623
                            User time (sec):      497.347
                          System time (sec):       22.276
                         Elapsed time (sec):      561.318
  
                   Maximum memory used (kb):      829440.
                   Average memory used (kb):          N/A
  
                          Minor page faults:       140950
                          Major page faults:           16
                 Voluntary context switches:        10511
