 vasp.5.4.4.18Apr17-6-g9f103f2a35 (build Apr 30 2017 20:10:35) complex          
  
 executed on             LinuxIFC date 2017.08.06  23:47:52
 running on   64 total cores
 distrk:  each k-point on   64 cores,    1 groups
 distr:  one band on NCORES_PER_BAND=   8 cores,    8 groups


--------------------------------------------------------------------------------------------------------


 INCAR:
 POTCAR:   PAW_PBE Ti_pv 07Sep2000                
 POTCAR:   PAW_PBE O 08Apr2002                    
 POTCAR:    PAW_PBE F 08Apr2002                   
 POTCAR:   PAW_PBE Ti_pv 07Sep2000                
   VRHFIN =Ti: d3 s1                                                            
   LEXCH  = PE                                                                  
   EATOM  =  1042.3781 eV,   76.6126 Ry                                         
                                                                                
   TITEL  = PAW_PBE Ti_pv 07Sep2000                                             
   LULTRA =        F    use ultrasoft PP ?                                      
   IUNSCR =        1    unscreen: 0-lin 1-nonlin 2-no                           
   RPACOR =    2.200    partial core radius                                     
   POMASS =   47.880; ZVAL   =   10.000    mass and valenz                      
   RCORE  =    2.500    outmost cutoff radius                                   
   RWIGS  =    2.500; RWIGS  =    1.323    wigner-seitz radius (au A)           
   ENMAX  =  222.338; ENMIN  =  166.753 eV                                      
   RCLOC  =    1.701    cutoff for local pot                                    
   LCOR   =        T    correct aug charges                                     
   LPAW   =        T    paw PP                                                  
   EAUG   =  482.848                                                            
   DEXC   =    -.008                                                            
   RMAX   =    3.092    core radius for proj-oper                               
   RAUG   =    1.300    factor for augmentation sphere                          
   RDEP   =    2.538    radius for radial grids                                 
   QCUT   =   -4.042; QGAM   =    8.085    optimization parameters              
                                                                                
   Description                                                                  
     l     E      TYP  RCUT    TYP  RCUT                                        
     1   .000     23  2.300                                                     
     1  -.100     23  2.300                                                     
     2   .000     23  2.500                                                     
     2   .000     23  2.500                                                     
     0   .000     23  2.500                                                     
     0  1.500     23  2.500                                                     
     3   .000      7   .000                                                     
  local pseudopotential read in
  partial core-charges read in
  atomic valenz-charges read in
  non local Contribution for L=           1  read in
    real space projection operators read in
  non local Contribution for L=           1  read in
    real space projection operators read in
  non local Contribution for L=           2  read in
    real space projection operators read in
  non local Contribution for L=           2  read in
    real space projection operators read in
  non local Contribution for L=           0  read in
    real space projection operators read in
  non local Contribution for L=           0  read in
    real space projection operators read in
    PAW grid and wavefunctions read in
 
   number of l-projection  operators is LMAX  =           6
   number of lm-projection operators is LMMAX =          18
 
 POTCAR:   PAW_PBE O 08Apr2002                    
   VRHFIN =O: s2p4                                                              
   LEXCH  = PE                                                                  
   EATOM  =   432.3788 eV,   31.7789 Ry                                         
                                                                                
   TITEL  = PAW_PBE O 08Apr2002                                                 
   LULTRA =        F    use ultrasoft PP ?                                      
   IUNSCR =        0    unscreen: 0-lin 1-nonlin 2-no                           
   RPACOR =     .000    partial core radius                                     
   POMASS =   16.000; ZVAL   =    6.000    mass and valenz                      
   RCORE  =    1.520    outmost cutoff radius                                   
   RWIGS  =    1.550; RWIGS  =     .820    wigner-seitz radius (au A)           
   ENMAX  =  400.000; ENMIN  =  300.000 eV                                      
   ICORE  =        2    local potential                                         
   LCOR   =        T    correct aug charges                                     
   LPAW   =        T    paw PP                                                  
   EAUG   =  605.392                                                            
   DEXC   =     .000                                                            
   RMAX   =    2.264    core radius for proj-oper                               
   RAUG   =    1.300    factor for augmentation sphere                          
   RDEP   =    1.550    radius for radial grids                                 
   QCUT   =   -5.520; QGAM   =   11.041    optimization parameters              
                                                                                
   Description                                                                  
     l     E      TYP  RCUT    TYP  RCUT                                        
     0   .000     23  1.200                                                     
     0  -.700     23  1.200                                                     
     1   .000     23  1.520                                                     
     1   .600     23  1.520                                                     
     2   .000      7  1.500                                                     
  local pseudopotential read in
  atomic valenz-charges read in
  non local Contribution for L=           0  read in
    real space projection operators read in
  non local Contribution for L=           0  read in
    real space projection operators read in
  non local Contribution for L=           1  read in
    real space projection operators read in
  non local Contribution for L=           1  read in
    real space projection operators read in
    PAW grid and wavefunctions read in
 
   number of l-projection  operators is LMAX  =           4
   number of lm-projection operators is LMMAX =           8
 
 POTCAR:    PAW_PBE F 08Apr2002                   
   VRHFIN =F: s2p5                                                              
   LEXCH  = PE                                                                  
   EATOM  =   659.6475 eV,   48.4827 Ry                                         
                                                                                
   TITEL  = PAW_PBE F 08Apr2002                                                 
   LULTRA =        F    use ultrasoft PP ?                                      
   IUNSCR =        1    unscreen: 0-lin 1-nonlin 2-no                           
   RPACOR =    1.200    partial core radius                                     
   POMASS =   18.998; ZVAL   =    7.000    mass and valenz                      
   RCORE  =    1.520    outmost cutoff radius                                   
   RWIGS  =    1.500; RWIGS  =    0.794    wigner-seitz radius (au A)           
   ENMAX  =  400.000; ENMIN  =  300.000 eV                                      
   ICORE  =        2    local potential                                         
   LCOR   =        T    correct aug charges                                     
   LPAW   =        T    paw PP                                                  
   EAUG   =  613.614                                                            
   RMAX   =    1.555    core radius for proj-oper                               
   RAUG   =    1.300    factor for augmentation sphere                          
   RDEP   =    1.539    radius for radial grids                                 
   RDEPT  =    1.299    core radius for aug-charge                              
                                                                                
   Atomic configuration                                                         
    4 entries                                                                   
     n  l   j            E        occ.                                          
     1  0  0.50      -663.3661   2.0000                                         
     2  0  0.50       -29.8995   2.0000                                         
     2  1  0.50       -11.1114   5.0000                                         
     3  2  1.50       -10.8847   0.0000                                         
   Description                                                                  
     l       E           TYP  RCUT    TYP  RCUT                                 
     0    -29.8995018     23  1.200                                             
     0     -9.5240782     23  1.200                                             
     1    -11.1113914     23  1.520                                             
     1      1.3605826     23  1.520                                             
     2    -10.8846608      7  1.500                                             
  local pseudopotential read in
  partial core-charges read in
  partial kinetic energy density read in
  atomic valenz-charges read in
  non local Contribution for L=           0  read in
    real space projection operators read in
  non local Contribution for L=           0  read in
    real space projection operators read in
  non local Contribution for L=           1  read in
    real space projection operators read in
  non local Contribution for L=           1  read in
    real space projection operators read in
    PAW grid and wavefunctions read in
 
   number of l-projection  operators is LMAX  =           4
   number of lm-projection operators is LMMAX =           8
 
 Optimization of the real space projectors (new method)

 maximal supplied QI-value         = 15.12
 optimisation between [QCUT,QGAM] = [ 13.45, 27.06] = [ 50.69,205.06] Ry 
 Optimized for a Real-space Cutoff    1.49 Angstroem

   l    n(q)    QCUT    max X(q) W(low)/X(q) W(high)/X(q)  e(spline) 
   1     12    13.455     4.841    0.13E-05    0.83E-06    0.56E-07
   1     12    13.455     5.701    0.32E-04    0.25E-04    0.17E-06
   2     11    13.455     4.569    0.64E-05    0.34E-05    0.50E-07
   2     11    13.455    32.276    0.49E-04    0.38E-04    0.46E-06
   0     12    13.455    30.046    0.17E-04    0.41E-05    0.51E-07
   0     12    13.455    45.433    0.12E-04    0.27E-04    0.38E-06
 Optimization of the real space projectors (new method)

 maximal supplied QI-value         = 24.76
 optimisation between [QCUT,QGAM] = [ 13.37, 26.98] = [ 50.04,203.89] Ry 
 Optimized for a Real-space Cutoff    1.17 Angstroem

   l    n(q)    QCUT    max X(q) W(low)/X(q) W(high)/X(q)  e(spline) 
   0      9    13.368     4.192    0.20E-04    0.58E-05    0.56E-07
   0      9    13.368     8.473    0.60E-04    0.52E-04    0.21E-06
   1      9    13.368     2.474    0.22E-04    0.17E-04    0.28E-07
   1      9    13.368     3.912    0.94E-04    0.97E-04    0.20E-06
 Optimization of the real space projectors (new method)

 maximal supplied QI-value         = 24.76
 optimisation between [QCUT,QGAM] = [ 13.37, 26.98] = [ 50.04,203.89] Ry 
 Optimized for a Real-space Cutoff    1.17 Angstroem

   l    n(q)    QCUT    max X(q) W(low)/X(q) W(high)/X(q)  e(spline) 
   0      9    13.368    14.049    0.39E-04    0.34E-04    0.16E-06
   0      9    13.368     8.945    0.54E-04    0.47E-04    0.20E-06
   1      9    13.368     7.086    0.99E-04    0.10E-03    0.23E-06
   1      9    13.368     6.747    0.86E-04    0.89E-04    0.21E-06

 ----------------------------------------------------------------------------- 
|                                                                             |
|  ADVICE TO THIS USER RUNNING 'VASP/VAMP'   (HEAR YOUR MASTER'S VOICE ...):  |
|                                                                             |
|      You enforced a specific xc-type in the INCAR file,                     |
|      a different type was found on the POTCAR file                          |
|          I HOPE YOU KNOW, WHAT YOU ARE  DOING                               |
|                                                                             |
 ----------------------------------------------------------------------------- 

 PAW_PBE Ti_pv 07Sep2000                :
 energy of atom  1       EATOM=-1042.3781
 kinetic energy error for atom=    0.0006 (will be added to EATOM!!)
 PAW_PBE O 08Apr2002                    :
 energy of atom  2       EATOM= -432.3788
 kinetic energy error for atom=    0.0091 (will be added to EATOM!!)
  PAW_PBE F 08Apr2002                   :
 energy of atom  3       EATOM= -659.6475
 kinetic energy error for atom=    0.0140 (will be added to EATOM!!)
 
 
 POSCAR: TiOF2 2x2x2 config 0516                 
  positions in direct lattice
  velocities in cartesian coordinates
 exchange correlation table for  LEXCH =       14
   RHO(1)=    0.500       N(1)  =     2000
   RHO(2)=  100.500       N(2)  =     4000

 VTST: version 3.1, (03/28/14)

 CHAIN: initializing optimizer
 
 OPT: Using VASP QUASI-newton optimizer
 CHAIN: Read ICHAIN            0
 
 POSCAR: TiOF2 2x2x2 config 0516                 
  positions in direct lattice
  velocities in cartesian coordinates
 


--------------------------------------------------------------------------------------------------------


 ion  position               nearest neighbor table
   1  0.000  0.000  0.000-  24 1.84  26 1.84  21 1.87  17 1.87  29 1.93  28 1.93
   2  0.002  1.000  0.500-  27 1.84  25 1.84  18 1.87  22 1.87  28 1.93  29 1.93
   3  0.000  0.500  0.001-  14 1.87  15 1.88  19 1.95  23 1.95  24 1.98  26 1.98
   4  0.980  0.500  0.501-   9 1.78  15 1.99  14 1.99  25 2.00  27 2.00  20 2.08
   5  0.500  0.000  0.000-  10 1.85  12 1.85  30 1.92  31 1.93  17 2.07  21 2.07
   6  0.501  1.000  0.500-  13 1.84  11 1.84  30 1.93  31 1.94  18 2.06  22 2.08
   7  0.500  0.500  0.985-  16 1.81  12 1.98  10 1.98  19 1.99  23 1.99  32 2.02
   8  0.507  0.500  0.508-  16 1.88   9 1.95  11 1.99  13 1.99  32 2.01  20 2.06
   9  0.754  0.500  0.499-   4 1.78   8 1.95
  10  0.501  0.241  0.001-   5 1.85   7 1.98
  11  0.501  0.241  0.499-   6 1.84   8 1.99
  12  0.501  0.759  0.001-   5 1.85   7 1.98
  13  0.501  0.759  0.499-   6 1.84   8 1.99
  14  1.000  0.500  0.244-   3 1.87   4 1.99
  15  1.000  0.500  0.757-   3 1.88   4 1.99
  16  0.498  0.500  0.751-   7 1.81   8 1.88
  17  0.238  1.000  1.000-   1 1.87   5 2.07
  18  0.239  0.000  0.500-   2 1.87   6 2.06
  19  0.248  0.500  0.003-   3 1.95   7 1.99
  20  0.245  0.500  0.498-   8 2.06   4 2.08
  21  0.763  1.000  0.000-   1 1.87   5 2.07
  22  0.765  0.000  0.500-   2 1.87   6 2.08
  23  0.752  0.500  0.004-   3 1.95   7 1.99
  24  0.000  0.241  0.000-   1 1.84   3 1.98
  25  0.005  0.240  0.500-   2 1.84   4 2.00
  26  0.000  0.759  0.000-   1 1.84   3 1.98
  27  0.005  0.760  0.500-   2 1.84   4 2.00
  28  0.000  1.000  0.250-   1 1.93   2 1.93
  29  0.000  0.000  0.750-   1 1.93   2 1.93
  30  0.500  1.000  0.249-   5 1.92   6 1.93
  31  0.500  1.000  0.750-   5 1.93   6 1.94
  32  0.496  0.500  0.247-   8 2.01   7 2.02
 

IMPORTANT INFORMATION: All symmetrisations will be switched off!
NOSYMM: (Re-)initialisation of all symmetry stuff for point group C_1.

 
 
 KPOINTS: Title                                   

Automatic generation of k-mesh.
Space group operators:
 irot       det(A)        alpha          n_x          n_y          n_z        tau_x        tau_y        tau_z
    1     1.000000     0.000001     1.000000     0.000000     0.000000     0.000000     0.000000     0.000000
 
 Subroutine IBZKPT returns following result:
 ===========================================
 
 Found     32 irreducible k-points:
 
 Following reciprocal coordinates:
            Coordinates               Weight
  0.125000  0.125000  0.125000      2.000000
  0.375000  0.125000  0.125000      2.000000
 -0.375000  0.125000  0.125000      2.000000
 -0.125000  0.125000  0.125000      2.000000
  0.125000  0.375000  0.125000      2.000000
  0.375000  0.375000  0.125000      2.000000
 -0.375000  0.375000  0.125000      2.000000
 -0.125000  0.375000  0.125000      2.000000
  0.125000 -0.375000  0.125000      2.000000
  0.375000 -0.375000  0.125000      2.000000
 -0.375000 -0.375000  0.125000      2.000000
 -0.125000 -0.375000  0.125000      2.000000
  0.125000 -0.125000  0.125000      2.000000
  0.375000 -0.125000  0.125000      2.000000
 -0.375000 -0.125000  0.125000      2.000000
 -0.125000 -0.125000  0.125000      2.000000
  0.125000  0.125000  0.375000      2.000000
  0.375000  0.125000  0.375000      2.000000
 -0.375000  0.125000  0.375000      2.000000
 -0.125000  0.125000  0.375000      2.000000
  0.125000  0.375000  0.375000      2.000000
  0.375000  0.375000  0.375000      2.000000
 -0.375000  0.375000  0.375000      2.000000
 -0.125000  0.375000  0.375000      2.000000
  0.125000 -0.375000  0.375000      2.000000
  0.375000 -0.375000  0.375000      2.000000
 -0.375000 -0.375000  0.375000      2.000000
 -0.125000 -0.375000  0.375000      2.000000
  0.125000 -0.125000  0.375000      2.000000
  0.375000 -0.125000  0.375000      2.000000
 -0.375000 -0.125000  0.375000      2.000000
 -0.125000 -0.125000  0.375000      2.000000
 
 Following cartesian coordinates:
            Coordinates               Weight
  0.015869  0.016332  0.016190      2.000000
  0.047607  0.016332  0.016191      2.000000
 -0.047605  0.016332  0.016188      2.000000
 -0.015868  0.016332  0.016189      2.000000
  0.015869  0.048995  0.016190      2.000000
  0.047607  0.048995  0.016191      2.000000
 -0.047605  0.048995  0.016188      2.000000
 -0.015868  0.048995  0.016189      2.000000
  0.015869 -0.048995  0.016190      2.000000
  0.047607 -0.048995  0.016191      2.000000
 -0.047605 -0.048995  0.016188      2.000000
 -0.015868 -0.048995  0.016189      2.000000
  0.015869 -0.016332  0.016190      2.000000
  0.047607 -0.016332  0.016191      2.000000
 -0.047605 -0.016332  0.016188      2.000000
 -0.015868 -0.016332  0.016189      2.000000
  0.015871  0.016332  0.048569      2.000000
  0.047608  0.016332  0.048570      2.000000
 -0.047604  0.016332  0.048567      2.000000
 -0.015866  0.016332  0.048568      2.000000
  0.015871  0.048995  0.048569      2.000000
  0.047608  0.048995  0.048570      2.000000
 -0.047604  0.048995  0.048567      2.000000
 -0.015866  0.048995  0.048568      2.000000
  0.015871 -0.048995  0.048569      2.000000
  0.047608 -0.048995  0.048570      2.000000
 -0.047604 -0.048995  0.048567      2.000000
 -0.015866 -0.048995  0.048568      2.000000
  0.015871 -0.016332  0.048569      2.000000
  0.047608 -0.016332  0.048570      2.000000
 -0.047604 -0.016332  0.048567      2.000000
 -0.015866 -0.016332  0.048568      2.000000
 


--------------------------------------------------------------------------------------------------------




 Dimension of arrays:
   k-points           NKPTS =     32   k-points in BZ     NKDIM =     32   number of bands    NBANDS=    160
   number of dos      NEDOS =   3001   number of ions     NIONS =     32
   non local maximal  LDIM  =      6   non local SUM 2l+1 LMDIM =     18
   total plane-waves  NPLWV = 343000
   max r-space proj   IRMAX =  10216   max aug-charges    IRDMAX= 229029
   dimension x,y,z NGX =    70 NGY =   70 NGZ =   70
   dimension x,y,z NGXF=   140 NGYF=  140 NGZF=  140
   support grid    NGXF=   280 NGYF=  280 NGZF=  280
   ions per type =               8   8  16
   NGX,Y,Z   is equivalent  to a cutoff of  14.77, 15.20, 15.07 a.u.
   NGXF,Y,Z  is equivalent  to a cutoff of  29.55, 30.41, 30.14 a.u.

 SYSTEM =  LTO                                     
 POSCAR =  TiOF2 2x2x2 config 0516                 

 Startparameter for this run:
   NWRITE =      2    write-flag & timer
   PREC   = accura    normal or accurate (medium, high low for compatibility)
   ISTART =      1    job   : 0-new  1-cont  2-samecut
   ICHARG =      0    charge: 1-file 2-atom 10-const
   ISPIN  =      2    spin polarized calculation?
   LNONCOLLINEAR =      F non collinear calculations
   LSORBIT =      F    spin-orbit coupling
   INIWAV =      1    electr: 0-lowe 1-rand  2-diag
   LASPH  =      T    aspherical Exc in radial PAW
   METAGGA=      F    non-selfconsistent MetaGGA calc.

 Electronic Relaxation 1
   ENCUT  =  700.0 eV  51.45 Ry    7.17 a.u.  16.99 16.51 16.66*2*pi/ulx,y,z
   ENINI  =  700.0     initial cutoff
   ENAUG  =  613.6 eV  augmentation charge cutoff
   NELM   =     60;   NELMIN=  2; NELMDL=  0     # of ELM steps 
   EDIFF  = 0.1E-05   stopping-criterion for ELM
   LREAL  =      T    real-space projection
   NLSPLINE    = F    spline interpolate recip. space projectors
   LCOMPAT=      F    compatible to vasp.4.4
   GGA_COMPAT  = T    GGA compatible to vasp.4.4-vasp.4.6
   LMAXPAW     = -100 max onsite density
   LMAXMIX     =    4 max onsite mixed and CHGCAR
   VOSKOWN=      0    Vosko Wilk Nusair interpolation
   ROPT   =   -0.00010  -0.00010  -0.00010
 Ionic relaxation
   EDIFFG = -.1E-01   stopping-criterion for IOM
   NSW    =    100    number of steps for IOM
   NBLOCK =      1;   KBLOCK =    100    inner block; outer block 
   IBRION =      1    ionic relax: 0-MD 1-quasi-New 2-CG
   NFREE  =      0    steps in history (QN), initial steepest desc. (CG)
   ISIF   =      3    stress and relaxation
   IWAVPR =     11    prediction:  0-non 1-charg 2-wave 3-comb
   ISYM   =      0    0-nonsym 1-usesym 2-fastsym
   LCORR  =      T    Harris-Foulkes like correction to forces

   POTIM  = 0.5000    time-step for ionic-motion
   TEIN   =    0.0    initial temperature
   TEBEG  =    0.0;   TEEND  =   0.0 temperature during run
   SMASS  =  -3.00    Nose mass-parameter (am)
   estimated Nose-frequenzy (Omega)   =  0.10E-29 period in steps =****** mass=  -0.142E-26a.u.
   SCALEE = 1.0000    scale energy and forces
   NPACO  =    256;   APACO  = 16.0  distance and # of slots for P.C.
   PSTRESS=    0.0 pullay stress

  Mass of Ions in am
   POMASS =  47.88 16.00 19.00
  Ionic Valenz
   ZVAL   =  10.00  6.00  7.00
  Atomic Wigner-Seitz radii
   RWIGS  =  -1.00 -1.00 -1.00
  virtual crystal weights 
   VCA    =   1.00  1.00  1.00
   NELECT =     240.0000    total number of electrons
   NUPDOWN=      -1.0000    fix difference up-down

 DOS related values:
   EMIN   =  10.00;   EMAX   =-10.00  energy-range for DOS
   EFERMI =   0.00
   ISMEAR =     0;   SIGMA  =   0.01  broadening in eV -4-tet -1-fermi 0-gaus

 Electronic relaxation 2 (details)
   IALGO  =     38    algorithm
   LDIAG  =      T    sub-space diagonalisation (order eigenvalues)
   LSUBROT=      F    optimize rotation matrix (better conditioning)
   TURBO    =      0    0=normal 1=particle mesh
   IRESTART =      0    0=no restart 2=restart with 2 vectors
   NREBOOT  =      0    no. of reboots
   NMIN     =      0    reboot dimension
   EREF     =   0.00    reference energy to select bands
   IMIX   =      4    mixing-type and parameters
     AMIX     =   0.40;   BMIX     =  1.00
     AMIX_MAG =   1.60;   BMIX_MAG =  1.00
     AMIN     =   0.10
     WC   =   100.;   INIMIX=   1;  MIXPRE=   1;  MAXMIX= -45

 Intra band minimization:
   WEIMIN = 0.0010     energy-eigenvalue tresh-hold
   EBREAK =  0.16E-08  absolut break condition
   DEPER  =   0.30     relativ break condition  

   TIME   =   0.40     timestep for ELM

  volume/ion in A,a.u.               =      14.55        98.17
  Fermi-wavevector in a.u.,A,eV,Ry     =   1.312714  2.480669 23.445797  1.723217
  Thomas-Fermi vector in A             =   2.443087
 
 Write flags
   LWAVE        =      T    write WAVECAR
   LDOWNSAMPLE  =      F    k-point downsampling of WAVECAR
   LCHARG       =      T    write CHGCAR
   LVTOT        =      F    write LOCPOT, total local potential
   LVHAR        =      F    write LOCPOT, Hartree potential only
   LELF         =      F    write electronic localiz. function (ELF)
   LORBIT       =     11    0 simple, 1 ext, 2 COOP (PROOUT), +10 PAW based schemes


 Dipole corrections
   LMONO  =      F    monopole corrections only (constant potential shift)
   LDIPOL =      F    correct potential (dipole corrections)
   IDIPOL =      0    1-x, 2-y, 3-z, 4-all directions 
   EPSILON=  1.0000000 bulk dielectric constant

 LDA+U is selected, type is set to LDAUTYPE =  2
   angular momentum for each species LDAUL =     2   -1   -1
   U (eV)           for each species LDAUU =   4.2  0.0  0.0
   J (eV)           for each species LDAUJ =   0.0  0.0  0.0
 Exchange correlation treatment:
   GGA     =    PS    GGA type
   LEXCH   =    14    internal setting for exchange type
   VOSKOWN=      0    Vosko Wilk Nusair interpolation
   LHFCALC =     F    Hartree Fock is set to
   LHFONE  =     F    Hartree Fock one center treatment
   AEXX    =    0.0000 exact exchange contribution

 Linear response parameters
   LEPSILON=     F    determine dielectric tensor
   LRPA    =     F    only Hartree local field effects (RPA)
   LNABLA  =     F    use nabla operator in PAW spheres
   LVEL    =     F    velocity operator in full k-point grid
   LINTERFAST=   F  fast interpolation
   KINTER  =     0    interpolate to denser k-point grid
   CSHIFT  =0.1000    complex shift for real part using Kramers Kronig
   OMEGAMAX=  -1.0    maximum frequency
   DEG_THRESHOLD= 0.2000000E-02 threshold for treating states as degnerate
   RTIME   =   -0.100 relaxation time in fs
  (WPLASMAI=    0.000 imaginary part of plasma frequency in eV, 0.658/RTIME)
   DFIELD  = 0.0000000 0.0000000 0.0000000 field for delta impulse in time
 
 Orbital magnetization related:
   ORBITALMAG=     F  switch on orbital magnetization
   LCHIMAG   =     F  perturbation theory with respect to B field
   DQ        =  0.001000  dq finite difference perturbation B field
   LLRAUG    =     F  two centre corrections for induced B field



--------------------------------------------------------------------------------------------------------


 quasi-Newton-method for relaxation of ions
 charge density and potential will be updated during run
 spin polarized calculation
 Variant of blocked Davidson
 Davidson routine will perform the subspace rotation
 perform sub-space diagonalisation
    after iterative eigenvector-optimisation
 modified Broyden-mixing scheme, WC =      100.0
 initial mixing is a Kerker type mixing with AMIX =  0.4000 and BMIX =      1.0000
 Hartree-type preconditioning will be used
 using additional bands           40
 real space projection scheme for non local part
 use partial core corrections
 calculate Harris-corrections to forces 
   (improved forces if not selfconsistent)
 use gradient corrections 
 use of overlap-Matrix (Vanderbilt PP)
 Gauss-broadening in eV      SIGMA  =   0.01


--------------------------------------------------------------------------------------------------------


  energy-cutoff  :      700.00
  volume of cell :      465.51
      direct lattice vectors                 reciprocal lattice vectors
     7.877156598 -0.000004771 -0.000360918     0.126949362 -0.000000017  0.000003353
     0.000001028  7.653850535 -0.000022200     0.000000079  0.130653192  0.000000381
    -0.000203899 -0.000022490  7.721045957     0.000005934  0.000000376  0.129516131

  length of vectors
     7.877156607  7.653850535  7.721045960     0.126949362  0.130653192  0.129516131


 
 old parameters found on file WAVECAR:
  energy-cutoff  :      700.00
  volume of cell :      465.47
      direct lattice vectors                 reciprocal lattice vectors
     7.878261730  0.000004960 -0.000512761     0.126931554 -0.000000174  0.000005795
     0.000010472  7.651378591 -0.000007195    -0.000000082  0.130695402  0.000000125
    -0.000352518 -0.000007406  7.721779793     0.000008429  0.000000122  0.129503823

  length of vectors

 
 k-points in units of 2pi/SCALE and weight: Title                                   
   0.01586942  0.01633169  0.01618998       0.031
   0.04760676  0.01633169  0.01619082       0.031
  -0.04760526  0.01633170  0.01618831       0.031
  -0.01586792  0.01633170  0.01618914       0.031
   0.01586944  0.04899499  0.01619008       0.031
   0.04760678  0.04899499  0.01619092       0.031
  -0.04760524  0.04899500  0.01618840       0.031
  -0.01586790  0.04899500  0.01618924       0.031
   0.01586938 -0.04899490  0.01618979       0.031
   0.04760672 -0.04899491  0.01619063       0.031
  -0.04760530 -0.04899489  0.01618812       0.031
  -0.01586796 -0.04899490  0.01618895       0.031
   0.01586940 -0.01633160  0.01618989       0.031
   0.04760674 -0.01633161  0.01619073       0.031
  -0.04760528 -0.01633160  0.01618821       0.031
  -0.01586794 -0.01633160  0.01618905       0.031
   0.01587091  0.01633179  0.04856902       0.031
   0.04760825  0.01633178  0.04856985       0.031
  -0.04760378  0.01633180  0.04856734       0.031
  -0.01586643  0.01633179  0.04856818       0.031
   0.01587093  0.04899509  0.04856911       0.031
   0.04760827  0.04899508  0.04856995       0.031
  -0.04760376  0.04899509  0.04856743       0.031
  -0.01586642  0.04899509  0.04856827       0.031
   0.01587087 -0.04899481  0.04856883       0.031
   0.04760821 -0.04899481  0.04856966       0.031
  -0.04760381 -0.04899480  0.04856715       0.031
  -0.01586647 -0.04899480  0.04856799       0.031
   0.01587089 -0.01633151  0.04856892       0.031
   0.04760823 -0.01633151  0.04856976       0.031
  -0.04760380 -0.01633150  0.04856724       0.031
  -0.01586645 -0.01633151  0.04856808       0.031
 
 k-points in reciprocal lattice and weights: Title                                   
   0.12500000  0.12500000  0.12500000       0.031
   0.37500000  0.12500000  0.12500000       0.031
  -0.37500000  0.12500000  0.12500000       0.031
  -0.12500000  0.12500000  0.12500000       0.031
   0.12500000  0.37500000  0.12500000       0.031
   0.37500000  0.37500000  0.12500000       0.031
  -0.37500000  0.37500000  0.12500000       0.031
  -0.12500000  0.37500000  0.12500000       0.031
   0.12500000 -0.37500000  0.12500000       0.031
   0.37500000 -0.37500000  0.12500000       0.031
  -0.37500000 -0.37500000  0.12500000       0.031
  -0.12500000 -0.37500000  0.12500000       0.031
   0.12500000 -0.12500000  0.12500000       0.031
   0.37500000 -0.12500000  0.12500000       0.031
  -0.37500000 -0.12500000  0.12500000       0.031
  -0.12500000 -0.12500000  0.12500000       0.031
   0.12500000  0.12500000  0.37500000       0.031
   0.37500000  0.12500000  0.37500000       0.031
  -0.37500000  0.12500000  0.37500000       0.031
  -0.12500000  0.12500000  0.37500000       0.031
   0.12500000  0.37500000  0.37500000       0.031
   0.37500000  0.37500000  0.37500000       0.031
  -0.37500000  0.37500000  0.37500000       0.031
  -0.12500000  0.37500000  0.37500000       0.031
   0.12500000 -0.37500000  0.37500000       0.031
   0.37500000 -0.37500000  0.37500000       0.031
  -0.37500000 -0.37500000  0.37500000       0.031
  -0.12500000 -0.37500000  0.37500000       0.031
   0.12500000 -0.12500000  0.37500000       0.031
   0.37500000 -0.12500000  0.37500000       0.031
  -0.37500000 -0.12500000  0.37500000       0.031
  -0.12500000 -0.12500000  0.37500000       0.031
 
 position of ions in fractional coordinates (direct lattice) 
   0.00026068  0.00001149  0.00001651
   0.00213877  0.99998824  0.50000856
   0.00014748  0.49999724  0.00130601
   0.98003332  0.49999919  0.50082121
   0.50025046  0.00003254  0.00020188
   0.50117487  0.99999239  0.49981243
   0.49962324  0.50005212  0.98545403
   0.50650427  0.49999117  0.50822519
   0.75355220  0.49999525  0.49880408
   0.50053719  0.24140066  0.00064402
   0.50065688  0.24056498  0.49863936
   0.50054089  0.75858046  0.00064351
   0.50065789  0.75942961  0.49864012
   0.99995452  0.50000120  0.24387714
   0.99967122  0.50000050  0.75722177
   0.49764613  0.49999670  0.75144320
   0.23776410  0.99999573  0.99997931
   0.23917336  0.00000064  0.50017809
   0.24757749  0.50000027  0.00333743
   0.24467724  0.49999744  0.49808943
   0.76279166  0.99999837  0.00001463
   0.76464780  0.00000190  0.50015859
   0.75197709  0.49999738  0.00410922
   0.00017070  0.24095651  0.00015370
   0.00529042  0.24041355  0.50029669
   0.00016633  0.75903806  0.00015481
   0.00529187  0.75958754  0.50030087
   0.00039237  0.99999927  0.24986053
   0.00037519  0.00000031  0.75024982
   0.50008813  0.99999129  0.24945066
   0.50021657  0.99999372  0.75043724
   0.49604967  0.49999432  0.24746997
 
 position of ions in cartesian coordinates  (Angst):
   0.00205340  0.00008796  0.00012739
   0.01674648  7.65374924  3.86056607
   0.00116199  3.82690411  0.01007263
   7.71977432  3.82690317  3.86649877
   3.94055120  0.00024663  0.00137821
   3.94773206  7.65377865  3.85887167
   3.93541006  3.82729965  7.60854442
   3.98971034  3.82684382  3.92383615
   5.93574753  3.82687408  3.85100619
   3.94280995  1.84764221  0.00478646
   3.94365126  1.84123479  3.84983139
   3.94283963  5.80605904  0.00477105
   3.94365972  5.81254710  3.84982575
   7.87674915  3.82692416  1.88261458
   7.87441283  3.82690728  5.84617220
   3.91988377  3.82688070  5.80173679
   1.87270217  7.65379423  7.72077821
   1.88390399 -0.00000749  3.86181167
   1.95020646  3.82692609  0.02566796
   1.92725991  3.82689329  3.84567194
   6.00863036  7.65383439 -0.00018451
   6.02314845 -0.00000032  3.86147150
   5.92344093  3.82690154  0.03144498
   0.00134486  1.84424507  0.00118133
   0.04157172  1.84007806  3.86280649
   0.00131097  5.80956383  0.00117837
   0.04158366  5.81375822  3.86282720
   0.00304083  7.65383931  1.92916227
   0.00280248 -0.00001454  5.79271321
   3.93922270  7.65377585  1.92581728
   3.94013228  7.65378317  5.79395765
   3.90741101  3.82687390  1.91053686
 


--------------------------------------------------------------------------------------------------------


 k-point  1 :   0.1250 0.1250 0.1250  plane waves:   19600
 k-point  2 :   0.3750 0.1250 0.1250  plane waves:   19602
 k-point  3 :  -0.3750 0.1250 0.1250  plane waves:   19602
 k-point  4 :  -0.1250 0.1250 0.1250  plane waves:   19599
 k-point  5 :   0.1250 0.3750 0.1250  plane waves:   19569
 k-point  6 :   0.3750 0.3750 0.1250  plane waves:   19577
 k-point  7 :  -0.3750 0.3750 0.1250  plane waves:   19575
 k-point  8 :  -0.1250 0.3750 0.1250  plane waves:   19570
 k-point  9 :   0.1250-0.3750 0.1250  plane waves:   19569
 k-point 10 :   0.3750-0.3750 0.1250  plane waves:   19577
 k-point 11 :  -0.3750-0.3750 0.1250  plane waves:   19575
 k-point 12 :  -0.1250-0.3750 0.1250  plane waves:   19570
 k-point 13 :   0.1250-0.1250 0.1250  plane waves:   19600
 k-point 14 :   0.3750-0.1250 0.1250  plane waves:   19602
 k-point 15 :  -0.3750-0.1250 0.1250  plane waves:   19602
 k-point 16 :  -0.1250-0.1250 0.1250  plane waves:   19599
 k-point 17 :   0.1250 0.1250 0.3750  plane waves:   19568
 k-point 18 :   0.3750 0.1250 0.3750  plane waves:   19574
 k-point 19 :  -0.3750 0.1250 0.3750  plane waves:   19576
 k-point 20 :  -0.1250 0.1250 0.3750  plane waves:   19567
 k-point 21 :   0.1250 0.3750 0.3750  plane waves:   19553
 k-point 22 :   0.3750 0.3750 0.3750  plane waves:   19565
 k-point 23 :  -0.3750 0.3750 0.3750  plane waves:   19565
 k-point 24 :  -0.1250 0.3750 0.3750  plane waves:   19555
 k-point 25 :   0.1250-0.3750 0.3750  plane waves:   19554
 k-point 26 :   0.3750-0.3750 0.3750  plane waves:   19565
 k-point 27 :  -0.3750-0.3750 0.3750  plane waves:   19565
 k-point 28 :  -0.1250-0.3750 0.3750  plane waves:   19554
 k-point 29 :   0.1250-0.1250 0.3750  plane waves:   19568
 k-point 30 :   0.3750-0.1250 0.3750  plane waves:   19575
 k-point 31 :  -0.3750-0.1250 0.3750  plane waves:   19576
 k-point 32 :  -0.1250-0.1250 0.3750  plane waves:   19567

 maximum and minimum number of plane-waves per node :      2471     2416

 maximum number of plane-waves:     19602
 maximum index in each direction: 
   IXMAX=   17   IYMAX=   16   IZMAX=   16
   IXMIN=  -17   IYMIN=  -16   IZMIN=  -17


 real space projection operators:
  total allocation   :      18373.33 KBytes
  max/ min on nodes  :       2439.66       1912.06


 parallel 3D FFT for wavefunctions:
    minimum data exchange during FFTs selected (reduces bandwidth)
 parallel 3D FFT for charge:
    minimum data exchange during FFTs selected (reduces bandwidth)


 total amount of memory used by VASP MPI-rank0   107292. kBytes
=======================================================================

   base      :      30000. kBytes
   nonlr-proj:       8516. kBytes
   fftplans  :       8424. kBytes
   grid      :       8783. kBytes
   one-center:        124. kBytes
   wavefun   :      51445. kBytes
 
     INWAV:  cpu time   30.1484: real time   36.0765
 Broyden mixing: mesh for mixing (old mesh)
   NGX = 33   NGY = 33   NGZ = 33
  (NGX  =140   NGY  =140   NGZ  =140)
  gives a total of  35937 points

 charge density for first step will be calculated from the start-wavefunctions


--------------------------------------------------------------------------------------------------------


 Maximum index for non-local projection operator         1370
 Maximum index for augmentation-charges         7778 (set IRDMAX)


--------------------------------------------------------------------------------------------------------


 initial charge from wavefunction
 First call to EWALD:  gamma=   0.229
 Maximum number of real-space cells 3x 3x 3
 Maximum number of reciprocal cells 3x 3x 3

    FEWALD:  cpu time    0.0030: real time    0.0034


--------------------------------------- Iteration      1(   1)  ---------------------------------------


    POTLOK:  cpu time    0.1500: real time    0.2699
    SETDIJ:  cpu time    0.8609: real time    0.8669
     EDDAV:  cpu time   29.5305: real time   29.6809
       DOS:  cpu time    0.0050: real time    0.0047
    CHARGE:  cpu time    1.1838: real time    1.1926
    MIXING:  cpu time    0.0020: real time    0.0020
    --------------------------------------------
      LOOP:  cpu time   31.7322: real time   32.0170

 eigenvalue-minimisations  : 21232
 total energy-change (2. order) :-0.2083958E+03  (-0.2970096E-03)
 number of electron     240.0000004 magnetization       0.1175694
 augmentation part       61.9381884 magnetization       0.0891614

 Broyden mixing:
  rms(total) = 0.38967E-01    rms(broyden)= 0.38964E-01
  rms(prec ) = 0.61770E-01
  weight for this iteration     100.00

 Free energy of the ion-electron system (eV)
  ---------------------------------------------------
  alpha Z        PSCENC =       752.22629464
  Ewald energy   TEWEN  =    -12681.25426150
  -Hartree energ DENC   =     -8320.23965798
  -exchange      EXHF   =         0.00000000
  -V(xc)+E(xc)   XCENC  =      1119.00946527
  PAW double counting   =     17985.03974087   -18107.80968109
  entropy T*S    EENTRO =        -0.00162507
  eigenvalues    EBANDS =     -3257.71924198
  atomic energy  EATOM  =     22302.35321627
  Solvation  Ediel_sol  =         0.00000000
  ---------------------------------------------------
  free energy    TOTEN  =      -208.39575056 eV

  energy without entropy =     -208.39412549  energy(sigma->0) =     -208.39493803


--------------------------------------------------------------------------------------------------------




--------------------------------------- Iteration      1(   2)  ---------------------------------------


    POTLOK:  cpu time    0.1540: real time    0.1682
    SETDIJ:  cpu time    0.8689: real time    0.8671
     EDDAV:  cpu time   36.1635: real time   36.1552
       DOS:  cpu time    0.0050: real time    0.0054
    CHARGE:  cpu time    1.1908: real time    1.1891
    MIXING:  cpu time    0.0030: real time    0.0023
    --------------------------------------------
      LOOP:  cpu time   38.3852: real time   38.3874

 eigenvalue-minimisations  : 27456
 total energy-change (2. order) :-0.2762388E-02  (-0.6989148E-03)
 number of electron     240.0000004 magnetization       0.1376745
 augmentation part       62.0144977 magnetization       0.0436175

 Broyden mixing:
  rms(total) = 0.11561E+00    rms(broyden)= 0.11560E+00
  rms(prec ) = 0.17755E+00
  weight for this iteration     100.00

 eigenvalues of (default mixing * dielectric matrix)
  average eigenvalue GAMMA=   0.2482
  0.2482

 Free energy of the ion-electron system (eV)
  ---------------------------------------------------
  alpha Z        PSCENC =       752.22629464
  Ewald energy   TEWEN  =    -12681.25426150
  -Hartree energ DENC   =     -8319.59000820
  -exchange      EXHF   =         0.00000000
  -V(xc)+E(xc)   XCENC  =      1119.01024951
  PAW double counting   =     17983.69523722   -18106.52615019
  entropy T*S    EENTRO =        -0.00135329
  eigenvalues    EBANDS =     -3258.31173741
  atomic energy  EATOM  =     22302.35321627
  Solvation  Ediel_sol  =         0.00000000
  ---------------------------------------------------
  free energy    TOTEN  =      -208.39851295 eV

  energy without entropy =     -208.39715966  energy(sigma->0) =     -208.39783630


--------------------------------------------------------------------------------------------------------




--------------------------------------- Iteration      1(   3)  ---------------------------------------


    POTLOK:  cpu time    0.1430: real time    0.1609
    SETDIJ:  cpu time    0.8659: real time    0.8655
     EDDAV:  cpu time   36.7234: real time   36.7063
       DOS:  cpu time    0.0060: real time    0.0055
    CHARGE:  cpu time    1.1918: real time    1.1899
    MIXING:  cpu time    0.0030: real time    0.0024
    --------------------------------------------
      LOOP:  cpu time   38.9331: real time   38.9305

 eigenvalue-minimisations  : 27824
 total energy-change (2. order) : 0.2840477E-02  (-0.4545293E-03)
 number of electron     240.0000004 magnetization       0.1388168
 augmentation part       61.9774153 magnetization       0.0822203

 Broyden mixing:
  rms(total) = 0.44870E-01    rms(broyden)= 0.44869E-01
  rms(prec ) = 0.68935E-01
  weight for this iteration     100.00

 eigenvalues of (default mixing * dielectric matrix)
  average eigenvalue GAMMA=   0.2244
  0.2244  0.2244

 Free energy of the ion-electron system (eV)
  ---------------------------------------------------
  alpha Z        PSCENC =       752.22629464
  Ewald energy   TEWEN  =    -12681.25426150
  -Hartree energ DENC   =     -8319.97215839
  -exchange      EXHF   =         0.00000000
  -V(xc)+E(xc)   XCENC  =      1118.99927664
  PAW double counting   =     17984.54574800   -18107.31414925
  entropy T*S    EENTRO =        -0.00181475
  eigenvalues    EBANDS =     -3257.97782414
  atomic energy  EATOM  =     22302.35321627
  Solvation  Ediel_sol  =         0.00000000
  ---------------------------------------------------
  free energy    TOTEN  =      -208.39567247 eV

  energy without entropy =     -208.39385772  energy(sigma->0) =     -208.39476510


--------------------------------------------------------------------------------------------------------




--------------------------------------- Iteration      1(   4)  ---------------------------------------


    POTLOK:  cpu time    0.1520: real time    0.1627
    SETDIJ:  cpu time    0.8669: real time    0.8658
     EDDAV:  cpu time   32.7580: real time   32.7425
       DOS:  cpu time    0.0060: real time    0.0060
    CHARGE:  cpu time    1.1908: real time    1.1881
    MIXING:  cpu time    0.0030: real time    0.0024
    --------------------------------------------
      LOOP:  cpu time   34.9767: real time   34.9676

 eigenvalue-minimisations  : 24144
 total energy-change (2. order) :-0.5938925E-04  (-0.6400885E-04)
 number of electron     240.0000004 magnetization       0.1442602
 augmentation part       61.9698991 magnetization       0.1476258

 Broyden mixing:
  rms(total) = 0.36745E-01    rms(broyden)= 0.36740E-01
  rms(prec ) = 0.46814E-01
  weight for this iteration     100.00

 eigenvalues of (default mixing * dielectric matrix)
  average eigenvalue GAMMA=   0.2644
  0.3377  0.3377  0.1177

 Free energy of the ion-electron system (eV)
  ---------------------------------------------------
  alpha Z        PSCENC =       752.22629464
  Ewald energy   TEWEN  =    -12681.25426150
  -Hartree energ DENC   =     -8320.07499867
  -exchange      EXHF   =         0.00000000
  -V(xc)+E(xc)   XCENC  =      1119.00445193
  PAW double counting   =     17984.72013783   -18107.49340180
  entropy T*S    EENTRO =        -0.00174807
  eigenvalues    EBANDS =     -3257.87542250
  atomic energy  EATOM  =     22302.35321627
  Solvation  Ediel_sol  =         0.00000000
  ---------------------------------------------------
  free energy    TOTEN  =      -208.39573186 eV

  energy without entropy =     -208.39398379  energy(sigma->0) =     -208.39485783


--------------------------------------------------------------------------------------------------------




--------------------------------------- Iteration      1(   5)  ---------------------------------------


    POTLOK:  cpu time    0.1440: real time    0.1550
    SETDIJ:  cpu time    0.8679: real time    0.8658
     EDDAV:  cpu time   31.0073: real time   30.9922
       DOS:  cpu time    0.0050: real time    0.0055
    CHARGE:  cpu time    1.1908: real time    1.1883
    MIXING:  cpu time    0.0030: real time    0.0024
    --------------------------------------------
      LOOP:  cpu time   33.2180: real time   33.2092

 eigenvalue-minimisations  : 22496
 total energy-change (2. order) : 0.1461316E-03  (-0.7330986E-05)
 number of electron     240.0000004 magnetization       0.1470667
 augmentation part       61.9682644 magnetization       0.0922563

 Broyden mixing:
  rms(total) = 0.21103E-01    rms(broyden)= 0.21097E-01
  rms(prec ) = 0.32612E-01
  weight for this iteration     100.00

 eigenvalues of (default mixing * dielectric matrix)
  average eigenvalue GAMMA=   0.3208
  0.4164  0.4164  0.3323  0.1181

 Free energy of the ion-electron system (eV)
  ---------------------------------------------------
  alpha Z        PSCENC =       752.22629464
  Ewald energy   TEWEN  =    -12681.25426150
  -Hartree energ DENC   =     -8320.07473216
  -exchange      EXHF   =         0.00000000
  -V(xc)+E(xc)   XCENC  =      1119.00456411
  PAW double counting   =     17984.71517705   -18107.48930469
  entropy T*S    EENTRO =        -0.00188636
  eigenvalues    EBANDS =     -3257.87465309
  atomic energy  EATOM  =     22302.35321627
  Solvation  Ediel_sol  =         0.00000000
  ---------------------------------------------------
  free energy    TOTEN  =      -208.39558573 eV

  energy without entropy =     -208.39369937  energy(sigma->0) =     -208.39464255


--------------------------------------------------------------------------------------------------------




--------------------------------------- Iteration      1(   6)  ---------------------------------------


    POTLOK:  cpu time    0.1460: real time    0.1564
    SETDIJ:  cpu time    0.8679: real time    0.8678
     EDDAV:  cpu time   33.1280: real time   33.1155
       DOS:  cpu time    0.0050: real time    0.0054
    CHARGE:  cpu time    1.1898: real time    1.1871
    MIXING:  cpu time    0.0030: real time    0.0025
    --------------------------------------------
      LOOP:  cpu time   35.3396: real time   35.3348

 eigenvalue-minimisations  : 24592
 total energy-change (2. order) :-0.1102703E-04  (-0.1785500E-05)
 number of electron     240.0000004 magnetization       0.1489343
 augmentation part       61.9658142 magnetization       0.0882326

 Broyden mixing:
  rms(total) = 0.16362E-01    rms(broyden)= 0.16361E-01
  rms(prec ) = 0.25548E-01
  weight for this iteration     100.00

 eigenvalues of (default mixing * dielectric matrix)
  average eigenvalue GAMMA=   0.4069
  0.6004  0.6004  0.3581  0.3581  0.1177

 Free energy of the ion-electron system (eV)
  ---------------------------------------------------
  alpha Z        PSCENC =       752.22629464
  Ewald energy   TEWEN  =    -12681.25426150
  -Hartree energ DENC   =     -8320.13522153
  -exchange      EXHF   =         0.00000000
  -V(xc)+E(xc)   XCENC  =      1119.00674600
  PAW double counting   =     17984.83710810   -18107.60948441
  entropy T*S    EENTRO =        -0.00189121
  eigenvalues    EBANDS =     -3257.81810312
  atomic energy  EATOM  =     22302.35321627
  Solvation  Ediel_sol  =         0.00000000
  ---------------------------------------------------
  free energy    TOTEN  =      -208.39559676 eV

  energy without entropy =     -208.39370555  energy(sigma->0) =     -208.39465115


--------------------------------------------------------------------------------------------------------




--------------------------------------- Iteration      1(   7)  ---------------------------------------


    POTLOK:  cpu time    0.1610: real time    0.1721
    SETDIJ:  cpu time    0.8739: real time    0.8718
     EDDAV:  cpu time   35.8805: real time   35.8640
       DOS:  cpu time    0.0050: real time    0.0052
    CHARGE:  cpu time    1.1858: real time    1.1838
    MIXING:  cpu time    0.0020: real time    0.0027
    --------------------------------------------
      LOOP:  cpu time   38.1082: real time   38.0994

 eigenvalue-minimisations  : 27296
 total energy-change (2. order) : 0.1890504E-04  (-0.1281061E-05)
 number of electron     240.0000004 magnetization       0.1495905
 augmentation part       61.9603157 magnetization       0.0962537

 Broyden mixing:
  rms(total) = 0.50629E-02    rms(broyden)= 0.50610E-02
  rms(prec ) = 0.78930E-02
  weight for this iteration     100.00

 eigenvalues of (default mixing * dielectric matrix)
  average eigenvalue GAMMA=   0.4497
  0.6990  0.6990  0.3862  0.3862  0.4101  0.1177

 Free energy of the ion-electron system (eV)
  ---------------------------------------------------
  alpha Z        PSCENC =       752.22629464
  Ewald energy   TEWEN  =    -12681.25426150
  -Hartree energ DENC   =     -8320.18814294
  -exchange      EXHF   =         0.00000000
  -V(xc)+E(xc)   XCENC  =      1119.00897681
  PAW double counting   =     17984.94703421   -18107.71892821
  entropy T*S    EENTRO =        -0.00188613
  eigenvalues    EBANDS =     -3257.76788100
  atomic energy  EATOM  =     22302.35321627
  Solvation  Ediel_sol  =         0.00000000
  ---------------------------------------------------
  free energy    TOTEN  =      -208.39557785 eV

  energy without entropy =     -208.39369172  energy(sigma->0) =     -208.39463479


--------------------------------------------------------------------------------------------------------




--------------------------------------- Iteration      1(   8)  ---------------------------------------


    POTLOK:  cpu time    0.1610: real time    0.1726
    SETDIJ:  cpu time    0.8679: real time    0.8665
     EDDAV:  cpu time   29.6765: real time   29.6602
       DOS:  cpu time    0.0050: real time    0.0053
    --------------------------------------------
      LOOP:  cpu time   30.7103: real time   30.7046

 eigenvalue-minimisations  : 20976
 total energy-change (2. order) : 0.1585067E-07  (-0.4362639E-06)
 number of electron     240.0000004 magnetization       0.1495905
 augmentation part       61.9603157 magnetization       0.0962537

 Free energy of the ion-electron system (eV)
  ---------------------------------------------------
  alpha Z        PSCENC =       752.22629464
  Ewald energy   TEWEN  =    -12681.25426150
  -Hartree energ DENC   =     -8320.19872562
  -exchange      EXHF   =         0.00000000
  -V(xc)+E(xc)   XCENC  =      1119.00919827
  PAW double counting   =     17984.98100389   -18107.75229207
  entropy T*S    EENTRO =        -0.00187643
  eigenvalues    EBANDS =     -3257.75813530
  atomic energy  EATOM  =     22302.35321627
  Solvation  Ediel_sol  =         0.00000000
  ---------------------------------------------------
  free energy    TOTEN  =      -208.39557784 eV

  energy without entropy =     -208.39370141  energy(sigma->0) =     -208.39463962


--------------------------------------------------------------------------------------------------------




 average (electrostatic) potential at core
  the test charge radii are     1.0397  0.7215  0.7167
  (the norm of the test charge is              1.0000)
       1 -61.0155       2 -60.9764       3 -58.4784       4 -58.0303       5 -58.3638
       6 -58.1921       7 -57.9507       8 -57.7717       9 -73.2728      10 -72.9303
      11 -72.7967      12 -72.9294      13 -72.7967      14 -72.9521      15 -72.9364
      16 -73.2264      17 -80.4527      18 -80.3455      19 -78.7347      20 -77.4842
      21 -80.4532      22 -80.3394      23 -78.7146      24 -80.7385      25 -80.5566
      26 -80.7367      27 -80.5581      28 -81.2630      29 -81.2606      30 -79.2827
      31 -79.2751      32 -77.6449
 
 
 
 E-fermi :   0.2593     XC(G=0):  -8.9537     alpha+bet : -7.5908


 spin component 1

 k-point     1 :       0.1250    0.1250    0.1250
  band No.  band energies     occupation 
      1     -37.0772      1.00000
      2     -37.0222      1.00000
      3     -37.0211      1.00000
      4     -36.9580      1.00000
      5     -36.9519      1.00000
      6     -36.9398      1.00000
      7     -34.6931      1.00000
      8     -34.5318      1.00000
      9     -34.5199      1.00000
     10     -34.4967      1.00000
     11     -34.3578      1.00000
     12     -34.3292      1.00000
     13     -34.2179      1.00000
     14     -34.0155      1.00000
     15     -33.9845      1.00000
     16     -33.9091      1.00000
     17     -33.8540      1.00000
     18     -33.7856      1.00000
     19     -33.7409      1.00000
     20     -33.7389      1.00000
     21     -33.6533      1.00000
     22     -33.6262      1.00000
     23     -33.6049      1.00000
     24     -33.4710      1.00000
     25     -25.1884      1.00000
     26     -24.6637      1.00000
     27     -24.6123      1.00000
     28     -24.4510      1.00000
     29     -24.2586      1.00000
     30     -24.1417      1.00000
     31     -24.0137      1.00000
     32     -23.8257      1.00000
     33     -23.7961      1.00000
     34     -23.6816      1.00000
     35     -23.1760      1.00000
     36     -22.6652      1.00000
     37     -22.5624      1.00000
     38     -22.1525      1.00000
     39     -21.3192      1.00000
     40     -21.1095      1.00000
     41     -15.8971      1.00000
     42     -15.8227      1.00000
     43     -15.7285      1.00000
     44     -15.5532      1.00000
     45     -15.5299      1.00000
     46     -15.0755      1.00000
     47     -15.0296      1.00000
     48     -14.8702      1.00000
     49      -8.8864      1.00000
     50      -8.3090      1.00000
     51      -8.0842      1.00000
     52      -7.8740      1.00000
     53      -7.7611      1.00000
     54      -7.3156      1.00000
     55      -7.2491      1.00000
     56      -7.1250      1.00000
     57      -6.7810      1.00000
     58      -6.7073      1.00000
     59      -6.6865      1.00000
     60      -6.6326      1.00000
     61      -6.5035      1.00000
     62      -6.3870      1.00000
     63      -6.2675      1.00000
     64      -6.1376      1.00000
     65      -6.0259      1.00000
     66      -5.8989      1.00000
     67      -5.6959      1.00000
     68      -5.6109      1.00000
     69      -5.5019      1.00000
     70      -5.4596      1.00000
     71      -5.3803      1.00000
     72      -5.3479      1.00000
     73      -5.2582      1.00000
     74      -5.2387      1.00000
     75      -5.1380      1.00000
     76      -5.0663      1.00000
     77      -5.0074      1.00000
     78      -4.9910      1.00000
     79      -4.8857      1.00000
     80      -4.8763      1.00000
     81      -4.7875      1.00000
     82      -4.7630      1.00000
     83      -4.6604      1.00000
     84      -4.6132      1.00000
     85      -4.5007      1.00000
     86      -4.2815      1.00000
     87      -4.2104      1.00000
     88      -4.0927      1.00000
     89      -4.0550      1.00000
     90      -3.9140      1.00000
     91      -3.8948      1.00000
     92      -3.8390      1.00000
     93      -3.7106      1.00000
     94      -3.6287      1.00000
     95      -3.5640      1.00000
     96      -2.9657      1.00000
     97      -2.9526      1.00000
     98      -2.6889      1.00000
     99      -2.6352      1.00000
    100      -2.3797      1.00000
    101      -2.1943      1.00000
    102      -1.9233      1.00000
    103      -1.6468      1.00000
    104      -1.6021      1.00000
    105      -1.3271      1.00000
    106      -1.2928      1.00000
    107      -1.2152      1.00000
    108      -1.2118      1.00000
    109      -0.9814      1.00000
    110      -0.9719      1.00000
    111      -0.7849      1.00000
    112      -0.6834      1.00000
    113      -0.5921      1.00000
    114      -0.5573      1.00000
    115      -0.5491      1.00000
    116      -0.4112      1.00000
    117      -0.2688      1.00000
    118      -0.1015      1.00000
    119       0.0321      1.00000
    120       0.1325      1.00000
    121       0.2576      0.59291
    122       0.5338      0.00000
    123       0.9988      0.00000
    124       1.0352      0.00000
    125       1.1296      0.00000
    126       1.2465      0.00000
    127       1.5099      0.00000
    128       2.3880      0.00000
    129       2.5599      0.00000
    130       2.6328      0.00000
    131       2.7424      0.00000
    132       2.8048      0.00000
    133       2.8380      0.00000
    134       2.8527      0.00000
    135       2.9852      0.00000
    136       3.2020      0.00000
    137       3.2613      0.00000
    138       3.4415      0.00000
    139       3.7801      0.00000
    140       3.8371      0.00000
    141       3.8885      0.00000
    142       3.8979      0.00000
    143       4.0130      0.00000
    144       4.2473      0.00000
    145       4.2799      0.00000
    146       4.3663      0.00000
    147       4.4953      0.00000
    148       4.5071      0.00000
    149       4.5174      0.00000
    150       4.8084      0.00000
    151       4.8307      0.00000
    152       4.8433      0.00000
    153       4.9211      0.00000
    154       5.0404      0.00000
    155       5.2838      0.00000
    156       5.6280      0.00000
    157       6.0639      0.00000
    158       6.1543      0.00000
    159       6.7000      0.00000
    160       7.4276      0.00000

 k-point     2 :       0.3750    0.1250    0.1250
  band No.  band energies     occupation 
      1     -37.0772      1.00000
      2     -37.0217      1.00000
      3     -37.0211      1.00000
      4     -36.9580      1.00000
      5     -36.9519      1.00000
      6     -36.9394      1.00000
      7     -34.6931      1.00000
      8     -34.5330      1.00000
      9     -34.5199      1.00000
     10     -34.4937      1.00000
     11     -34.3590      1.00000
     12     -34.3292      1.00000
     13     -34.2179      1.00000
     14     -34.0155      1.00000
     15     -33.9881      1.00000
     16     -33.9091      1.00000
     17     -33.8509      1.00000
     18     -33.7855      1.00000
     19     -33.7409      1.00000
     20     -33.7389      1.00000
     21     -33.6533      1.00000
     22     -33.6293      1.00000
     23     -33.6052      1.00000
     24     -33.4710      1.00000
     25     -25.1865      1.00000
     26     -24.6609      1.00000
     27     -24.6109      1.00000
     28     -24.4454      1.00000
     29     -24.1772      1.00000
     30     -24.0627      1.00000
     31     -24.0134      1.00000
     32     -23.8896      1.00000
     33     -23.8257      1.00000
     34     -23.7741      1.00000
     35     -23.1715      1.00000
     36     -22.6651      1.00000
     37     -22.4485      1.00000
     38     -22.2723      1.00000
     39     -21.3175      1.00000
     40     -21.1057      1.00000
     41     -15.9074      1.00000
     42     -15.8247      1.00000
     43     -15.7288      1.00000
     44     -15.5540      1.00000
     45     -15.5301      1.00000
     46     -15.0756      1.00000
     47     -15.0296      1.00000
     48     -14.8702      1.00000
     49      -8.8860      1.00000
     50      -8.3067      1.00000
     51      -8.0803      1.00000
     52      -7.5791      1.00000
     53      -7.4681      1.00000
     54      -7.3162      1.00000
     55      -7.2490      1.00000
     56      -7.0849      1.00000
     57      -6.8671      1.00000
     58      -6.8227      1.00000
     59      -6.7095      1.00000
     60      -6.6465      1.00000
     61      -6.5421      1.00000
     62      -6.4683      1.00000
     63      -6.3858      1.00000
     64      -6.0267      1.00000
     65      -5.9675      1.00000
     66      -5.8491      1.00000
     67      -5.7936      1.00000
     68      -5.6150      1.00000
     69      -5.5724      1.00000
     70      -5.4999      1.00000
     71      -5.4780      1.00000
     72      -5.2791      1.00000
     73      -5.2758      1.00000
     74      -5.2647      1.00000
     75      -5.1597      1.00000
     76      -5.1237      1.00000
     77      -5.0776      1.00000
     78      -4.9996      1.00000
     79      -4.9253      1.00000
     80      -4.8604      1.00000
     81      -4.7980      1.00000
     82      -4.7806      1.00000
     83      -4.7585      1.00000
     84      -4.5891      1.00000
     85      -4.2599      1.00000
     86      -4.2174      1.00000
     87      -4.1374      1.00000
     88      -4.0899      1.00000
     89      -4.0511      1.00000
     90      -3.8931      1.00000
     91      -3.8733      1.00000
     92      -3.8525      1.00000
     93      -3.7737      1.00000
     94      -3.7119      1.00000
     95      -3.6317      1.00000
     96      -2.9905      1.00000
     97      -2.9667      1.00000
     98      -2.8656      1.00000
     99      -2.6361      1.00000
    100      -2.5275      1.00000
    101      -2.1898      1.00000
    102      -1.9204      1.00000
    103      -1.7113      1.00000
    104      -1.6809      1.00000
    105      -1.3299      1.00000
    106      -1.2307      1.00000
    107      -1.2142      1.00000
    108      -1.0755      1.00000
    109      -0.9856      1.00000
    110      -0.9476      1.00000
    111      -0.7968      1.00000
    112      -0.6742      1.00000
    113      -0.6136      1.00000
    114      -0.5851      1.00000
    115      -0.5534      1.00000
    116      -0.4531      1.00000
    117      -0.2985      1.00000
    118      -0.1126      1.00000
    119      -0.0347      1.00000
    120       0.1316      1.00000
    121       0.2575      0.59994
    122       0.5969      0.00000
    123       1.0206      0.00000
    124       1.0352      0.00000
    125       1.1602      0.00000
    126       1.2613      0.00000
    127       1.5673      0.00000
    128       2.5744      0.00000
    129       2.6668      0.00000
    130       2.8034      0.00000
    131       2.8342      0.00000
    132       2.8488      0.00000
    133       2.8592      0.00000
    134       3.0574      0.00000
    135       3.0615      0.00000
    136       3.0771      0.00000
    137       3.4077      0.00000
    138       3.4696      0.00000
    139       3.5978      0.00000
    140       3.7896      0.00000
    141       3.8250      0.00000
    142       3.8880      0.00000
    143       4.2471      0.00000
    144       4.3227      0.00000
    145       4.3505      0.00000
    146       4.4664      0.00000
    147       4.4844      0.00000
    148       4.5181      0.00000
    149       4.5817      0.00000
    150       4.7072      0.00000
    151       4.7557      0.00000
    152       4.7909      0.00000
    153       4.9719      0.00000
    154       5.0468      0.00000
    155       5.1963      0.00000
    156       5.5624      0.00000
    157       6.1196      0.00000
    158       6.2377      0.00000
    159       6.5112      0.00000
    160       7.0039      0.00000

 k-point     3 :      -0.3750    0.1250    0.1250
  band No.  band energies     occupation 
      1     -37.0772      1.00000
      2     -37.0217      1.00000
      3     -37.0211      1.00000
      4     -36.9580      1.00000
      5     -36.9519      1.00000
      6     -36.9394      1.00000
      7     -34.6931      1.00000
      8     -34.5330      1.00000
      9     -34.5199      1.00000
     10     -34.4937      1.00000
     11     -34.3590      1.00000
     12     -34.3292      1.00000
     13     -34.2179      1.00000
     14     -34.0155      1.00000
     15     -33.9881      1.00000
     16     -33.9091      1.00000
     17     -33.8509      1.00000
     18     -33.7855      1.00000
     19     -33.7409      1.00000
     20     -33.7389      1.00000
     21     -33.6533      1.00000
     22     -33.6293      1.00000
     23     -33.6052      1.00000
     24     -33.4710      1.00000
     25     -25.1865      1.00000
     26     -24.6609      1.00000
     27     -24.6109      1.00000
     28     -24.4454      1.00000
     29     -24.1772      1.00000
     30     -24.0627      1.00000
     31     -24.0134      1.00000
     32     -23.8896      1.00000
     33     -23.8257      1.00000
     34     -23.7741      1.00000
     35     -23.1715      1.00000
     36     -22.6651      1.00000
     37     -22.4485      1.00000
     38     -22.2723      1.00000
     39     -21.3175      1.00000
     40     -21.1057      1.00000
     41     -15.9074      1.00000
     42     -15.8243      1.00000
     43     -15.7296      1.00000
     44     -15.5533      1.00000
     45     -15.5303      1.00000
     46     -15.0757      1.00000
     47     -15.0296      1.00000
     48     -14.8702      1.00000
     49      -8.8860      1.00000
     50      -8.3067      1.00000
     51      -8.0803      1.00000
     52      -7.5791      1.00000
     53      -7.4681      1.00000
     54      -7.3162      1.00000
     55      -7.2490      1.00000
     56      -7.0849      1.00000
     57      -6.8671      1.00000
     58      -6.8227      1.00000
     59      -6.7095      1.00000
     60      -6.6465      1.00000
     61      -6.5421      1.00000
     62      -6.4683      1.00000
     63      -6.3857      1.00000
     64      -6.0268      1.00000
     65      -5.9675      1.00000
     66      -5.8491      1.00000
     67      -5.7937      1.00000
     68      -5.6150      1.00000
     69      -5.5723      1.00000
     70      -5.5000      1.00000
     71      -5.4780      1.00000
     72      -5.2795      1.00000
     73      -5.2752      1.00000
     74      -5.2647      1.00000
     75      -5.1599      1.00000
     76      -5.1237      1.00000
     77      -5.0771      1.00000
     78      -4.9996      1.00000
     79      -4.9256      1.00000
     80      -4.8597      1.00000
     81      -4.7982      1.00000
     82      -4.7808      1.00000
     83      -4.7582      1.00000
     84      -4.5890      1.00000
     85      -4.2598      1.00000
     86      -4.2166      1.00000
     87      -4.1372      1.00000
     88      -4.0994      1.00000
     89      -4.0501      1.00000
     90      -3.8928      1.00000
     91      -3.8732      1.00000
     92      -3.8456      1.00000
     93      -3.7741      1.00000
     94      -3.7116      1.00000
     95      -3.6317      1.00000
     96      -3.0124      1.00000
     97      -2.9667      1.00000
     98      -2.8499      1.00000
     99      -2.6356      1.00000
    100      -2.5138      1.00000
    101      -2.1610      1.00000
    102      -1.9208      1.00000
    103      -1.7761      1.00000
    104      -1.6807      1.00000
    105      -1.3301      1.00000
    106      -1.2306      1.00000
    107      -1.2135      1.00000
    108      -1.0845      1.00000
    109      -0.9853      1.00000
    110      -0.9137      1.00000
    111      -0.7936      1.00000
    112      -0.6756      1.00000
    113      -0.6024      1.00000
    114      -0.5855      1.00000
    115      -0.5520      1.00000
    116      -0.4230      1.00000
    117      -0.3076      1.00000
    118      -0.1219      1.00000
    119      -0.0616      1.00000
    120       0.1316      1.00000
    121       0.2575      0.59977
    122       0.5969      0.00000
    123       1.0205      0.00000
    124       1.0352      0.00000
    125       1.1602      0.00000
    126       1.2613      0.00000
    127       1.5673      0.00000
    128       2.5744      0.00000
    129       2.6678      0.00000
    130       2.8034      0.00000
    131       2.8359      0.00000
    132       2.8477      0.00000
    133       2.8579      0.00000
    134       3.0572      0.00000
    135       3.0751      0.00000
    136       3.0816      0.00000
    137       3.4076      0.00000
    138       3.4688      0.00000
    139       3.5788      0.00000
    140       3.7900      0.00000
    141       3.8246      0.00000
    142       3.8881      0.00000
    143       4.2471      0.00000
    144       4.3280      0.00000
    145       4.3664      0.00000
    146       4.4660      0.00000
    147       4.4878      0.00000
    148       4.5184      0.00000
    149       4.5451      0.00000
    150       4.7259      0.00000
    151       4.7550      0.00000
    152       4.7837      0.00000
    153       4.9780      0.00000
    154       5.0466      0.00000
    155       5.1961      0.00000
    156       5.5586      0.00000
    157       6.1207      0.00000
    158       6.2521      0.00000
    159       6.5036      0.00000
    160       6.9997      0.00000

 k-point     4 :      -0.1250    0.1250    0.1250
  band No.  band energies     occupation 
      1     -37.0772      1.00000
      2     -37.0222      1.00000
      3     -37.0211      1.00000
      4     -36.9580      1.00000
      5     -36.9519      1.00000
      6     -36.9398      1.00000
      7     -34.6931      1.00000
      8     -34.5318      1.00000
      9     -34.5199      1.00000
     10     -34.4967      1.00000
     11     -34.3578      1.00000
     12     -34.3292      1.00000
     13     -34.2179      1.00000
     14     -34.0155      1.00000
     15     -33.9845      1.00000
     16     -33.9091      1.00000
     17     -33.8540      1.00000
     18     -33.7856      1.00000
     19     -33.7409      1.00000
     20     -33.7389      1.00000
     21     -33.6533      1.00000
     22     -33.6262      1.00000
     23     -33.6049      1.00000
     24     -33.4710      1.00000
     25     -25.1884      1.00000
     26     -24.6637      1.00000
     27     -24.6123      1.00000
     28     -24.4510      1.00000
     29     -24.2586      1.00000
     30     -24.1417      1.00000
     31     -24.0137      1.00000
     32     -23.8257      1.00000
     33     -23.7961      1.00000
     34     -23.6816      1.00000
     35     -23.1760      1.00000
     36     -22.6652      1.00000
     37     -22.5624      1.00000
     38     -22.1525      1.00000
     39     -21.3192      1.00000
     40     -21.1095      1.00000
     41     -15.8972      1.00000
     42     -15.8222      1.00000
     43     -15.7294      1.00000
     44     -15.5525      1.00000
     45     -15.5301      1.00000
     46     -15.0756      1.00000
     47     -15.0296      1.00000
     48     -14.8702      1.00000
     49      -8.8864      1.00000
     50      -8.3090      1.00000
     51      -8.0842      1.00000
     52      -7.8740      1.00000
     53      -7.7611      1.00000
     54      -7.3156      1.00000
     55      -7.2491      1.00000
     56      -7.1250      1.00000
     57      -6.7809      1.00000
     58      -6.7073      1.00000
     59      -6.6866      1.00000
     60      -6.6326      1.00000
     61      -6.5035      1.00000
     62      -6.3870      1.00000
     63      -6.2676      1.00000
     64      -6.1376      1.00000
     65      -6.0259      1.00000
     66      -5.8989      1.00000
     67      -5.6959      1.00000
     68      -5.6110      1.00000
     69      -5.5019      1.00000
     70      -5.4594      1.00000
     71      -5.3801      1.00000
     72      -5.3481      1.00000
     73      -5.2577      1.00000
     74      -5.2392      1.00000
     75      -5.1380      1.00000
     76      -5.0664      1.00000
     77      -5.0074      1.00000
     78      -4.9909      1.00000
     79      -4.8846      1.00000
     80      -4.8766      1.00000
     81      -4.7874      1.00000
     82      -4.7628      1.00000
     83      -4.6604      1.00000
     84      -4.6130      1.00000
     85      -4.5024      1.00000
     86      -4.2836      1.00000
     87      -4.2104      1.00000
     88      -4.0927      1.00000
     89      -4.0549      1.00000
     90      -3.9140      1.00000
     91      -3.8948      1.00000
     92      -3.8381      1.00000
     93      -3.7105      1.00000
     94      -3.6286      1.00000
     95      -3.5612      1.00000
     96      -2.9748      1.00000
     97      -2.9649      1.00000
     98      -2.6884      1.00000
     99      -2.6022      1.00000
    100      -2.3894      1.00000
    101      -2.1629      1.00000
    102      -1.9237      1.00000
    103      -1.6894      1.00000
    104      -1.6450      1.00000
    105      -1.3274      1.00000
    106      -1.2733      1.00000
    107      -1.2127      1.00000
    108      -1.1993      1.00000
    109      -0.9726      1.00000
    110      -0.9651      1.00000
    111      -0.7833      1.00000
    112      -0.6841      1.00000
    113      -0.5892      1.00000
    114      -0.5559      1.00000
    115      -0.5454      1.00000
    116      -0.3856      1.00000
    117      -0.2734      1.00000
    118      -0.1030      1.00000
    119       0.0008      1.00000
    120       0.1326      1.00000
    121       0.2577      0.59276
    122       0.5338      0.00000
    123       0.9988      0.00000
    124       1.0352      0.00000
    125       1.1296      0.00000
    126       1.2465      0.00000
    127       1.5099      0.00000
    128       2.3885      0.00000
    129       2.5596      0.00000
    130       2.6328      0.00000
    131       2.7425      0.00000
    132       2.8050      0.00000
    133       2.8389      0.00000
    134       2.8628      0.00000
    135       2.9850      0.00000
    136       3.2021      0.00000
    137       3.2606      0.00000
    138       3.4415      0.00000
    139       3.7744      0.00000
    140       3.8361      0.00000
    141       3.8865      0.00000
    142       3.8988      0.00000
    143       4.0130      0.00000
    144       4.2473      0.00000
    145       4.2740      0.00000
    146       4.3580      0.00000
    147       4.4968      0.00000
    148       4.5134      0.00000
    149       4.5222      0.00000
    150       4.8108      0.00000
    151       4.8312      0.00000
    152       4.8580      0.00000
    153       4.9038      0.00000
    154       5.0402      0.00000
    155       5.2855      0.00000
    156       5.6278      0.00000
    157       6.0541      0.00000
    158       6.1687      0.00000
    159       6.6983      0.00000
    160       7.4248      0.00000

 k-point     5 :       0.1250    0.3750    0.1250
  band No.  band energies     occupation 
      1     -37.0772      1.00000
      2     -37.0222      1.00000
      3     -37.0200      1.00000
      4     -36.9580      1.00000
      5     -36.9511      1.00000
      6     -36.9398      1.00000
      7     -34.6957      1.00000
      8     -34.5318      1.00000
      9     -34.5199      1.00000
     10     -34.4967      1.00000
     11     -34.3578      1.00000
     12     -34.3292      1.00000
     13     -34.2203      1.00000
     14     -34.0155      1.00000
     15     -33.9845      1.00000
     16     -33.9062      1.00000
     17     -33.8540      1.00000
     18     -33.7855      1.00000
     19     -33.7409      1.00000
     20     -33.7362      1.00000
     21     -33.6564      1.00000
     22     -33.6262      1.00000
     23     -33.6049      1.00000
     24     -33.4741      1.00000
     25     -25.1827      1.00000
     26     -24.6433      1.00000
     27     -24.5123      1.00000
     28     -24.3483      1.00000
     29     -24.2514      1.00000
     30     -24.1528      1.00000
     31     -24.1259      1.00000
     32     -23.9546      1.00000
     33     -23.7960      1.00000
     34     -23.6815      1.00000
     35     -23.1760      1.00000
     36     -22.6652      1.00000
     37     -22.5616      1.00000
     38     -22.1525      1.00000
     39     -21.3191      1.00000
     40     -21.1092      1.00000
     41     -15.8529      1.00000
     42     -15.7383      1.00000
     43     -15.6318      1.00000
     44     -15.5569      1.00000
     45     -15.4707      1.00000
     46     -15.1997      1.00000
     47     -15.0761      1.00000
     48     -15.0352      1.00000
     49      -8.8860      1.00000
     50      -7.9504      1.00000
     51      -7.8393      1.00000
     52      -7.8087      1.00000
     53      -7.6798      1.00000
     54      -7.3179      1.00000
     55      -7.2044      1.00000
     56      -7.1250      1.00000
     57      -7.0659      1.00000
     58      -6.8181      1.00000
     59      -6.7805      1.00000
     60      -6.6473      1.00000
     61      -6.6103      1.00000
     62      -6.4336      1.00000
     63      -6.2779      1.00000
     64      -6.1356      1.00000
     65      -6.0646      1.00000
     66      -5.8992      1.00000
     67      -5.8364      1.00000
     68      -5.6320      1.00000
     69      -5.6264      1.00000
     70      -5.4779      1.00000
     71      -5.4228      1.00000
     72      -5.3604      1.00000
     73      -5.3416      1.00000
     74      -5.2836      1.00000
     75      -5.1514      1.00000
     76      -5.0715      1.00000
     77      -5.0261      1.00000
     78      -4.9144      1.00000
     79      -4.8821      1.00000
     80      -4.8688      1.00000
     81      -4.7890      1.00000
     82      -4.7286      1.00000
     83      -4.6843      1.00000
     84      -4.5280      1.00000
     85      -4.4391      1.00000
     86      -4.2814      1.00000
     87      -4.2127      1.00000
     88      -4.0930      1.00000
     89      -4.0685      1.00000
     90      -3.8708      1.00000
     91      -3.8369      1.00000
     92      -3.7964      1.00000
     93      -3.5674      1.00000
     94      -3.2744      1.00000
     95      -3.1337      1.00000
     96      -2.9546      1.00000
     97      -2.9089      1.00000
     98      -2.6380      1.00000
     99      -2.6121      1.00000
    100      -2.3950      1.00000
    101      -2.2007      1.00000
    102      -2.0082      1.00000
    103      -1.9230      1.00000
    104      -1.6077      1.00000
    105      -1.5180      1.00000
    106      -1.4228      1.00000
    107      -1.3467      1.00000
    108      -1.2579      1.00000
    109      -1.1347      1.00000
    110      -1.0222      1.00000
    111      -0.9958      1.00000
    112      -0.9670      1.00000
    113      -0.7004      1.00000
    114      -0.6463      1.00000
    115      -0.5289      1.00000
    116      -0.4165      1.00000
    117      -0.3892      1.00000
    118      -0.2494      1.00000
    119       0.0199      1.00000
[...]
  0.000   0.000   0.000   0.000   0.000   0.000   0.000   0.000   0.000   0.003  -0.000  -0.000   0.000   0.000   0.000  -0.000
  0.000  -0.000  -0.000   0.000  -0.000  -0.000   0.000  -0.000  -0.001  -0.000   0.003   0.000  -0.000  -0.000  -0.000   0.001
 -0.000  -0.000  -0.000  -0.000  -0.000   0.000   0.000   0.000   0.000  -0.000   0.000  -0.002   0.000  -0.000   0.000   0.000
  0.000  -0.000  -0.000   0.000   0.000   0.000   0.000   0.077   0.000   0.000  -0.000   0.000   0.062   0.000   0.000  -0.000
 -0.000  -0.000   0.000  -0.000  -0.000   0.000   0.000   0.000   0.000   0.000  -0.000  -0.000   0.000  -0.004   0.000   0.001
  0.000   0.000  -0.000   0.000   0.000   0.000  -0.000   0.000   0.000   0.000  -0.000   0.000   0.000   0.000  -0.001   0.000
 -0.000   0.000  -0.000  -0.000  -0.000  -0.000   0.000  -0.000  -0.000  -0.000   0.001   0.000  -0.000   0.001   0.000  -0.005
  0.000   0.000   0.000   0.000   0.000   0.000   0.000   0.000   0.001   0.000  -0.002  -0.000   0.000  -0.002  -0.000   0.004
  0.000  -0.000   0.000   0.000   0.000   0.000   0.000   0.000   0.002   0.000  -0.006  -0.000   0.000  -0.003  -0.000   0.007


------------------------ aborting loop because EDIFF is reached ----------------------------------------


 


 total charge     
 
# of ion       s       p       d       tot
------------------------------------------
    1        0.318   6.503   1.751   8.572
    2        0.320   6.507   1.749   8.576
    3        0.297   6.459   1.756   8.512
    4        0.302   6.431   1.770   8.502
    5        0.295   6.470   1.790   8.555
    6        0.294   6.471   1.800   8.565
    7        0.307   6.442   1.716   8.465
    8        0.307   6.432   1.664   8.403
    9        1.569   3.443   0.000   5.012
   10        1.566   3.424   0.000   4.990
   11        1.567   3.421   0.000   4.988
   12        1.566   3.424   0.000   4.990
   13        1.567   3.421   0.000   4.988
   14        1.563   3.418   0.000   4.981
   15        1.563   3.416   0.000   4.979
   16        1.571   3.449   0.000   5.020
   17        1.732   4.376   0.000   6.109
   18        1.733   4.376   0.000   6.109
   19        1.730   4.383   0.000   6.113
   20        1.727   4.359   0.000   6.087
   21        1.732   4.376   0.000   6.109
   22        1.732   4.375   0.000   6.107
   23        1.729   4.383   0.000   6.112
   24        1.735   4.392   0.000   6.127
   25        1.735   4.388   0.000   6.122
   26        1.735   4.392   0.000   6.126
   27        1.735   4.388   0.000   6.123
   28        1.731   4.393   0.000   6.124
   29        1.731   4.393   0.000   6.124
   30        1.732   4.400   0.000   6.132
   31        1.731   4.400   0.000   6.132
   32        1.729   4.372   0.000   6.102
--------------------------------------------------
tot         42.679 149.280  13.996 205.955
 


 magnetization (x)
 
# of ion       s       p       d       tot
------------------------------------------
    1        0.001   0.001   0.104   0.106
    2        0.000   0.001   0.069   0.070
    3        0.000   0.000   0.005   0.005
    4        0.000   0.000   0.005   0.005
    5       -0.000  -0.000   0.000   0.000
    6       -0.000  -0.000   0.000   0.000
    7       -0.000  -0.000   0.000   0.000
    8       -0.000  -0.000   0.000   0.000
    9       -0.000  -0.001   0.000  -0.001
   10       -0.000  -0.000   0.000  -0.000
   11       -0.000  -0.000   0.000  -0.000
   12       -0.000  -0.000   0.000  -0.000
   13       -0.000  -0.000   0.000  -0.000
   14       -0.000  -0.008   0.000  -0.008
   15       -0.000  -0.008   0.000  -0.008
   16        0.000   0.000   0.000   0.000
   17       -0.000  -0.002   0.000  -0.002
   18       -0.000  -0.001   0.000  -0.001
   19       -0.000  -0.000   0.000  -0.000
   20       -0.000  -0.000   0.000  -0.000
   21       -0.000  -0.002   0.000  -0.002
   22       -0.000  -0.001   0.000  -0.001
   23       -0.000  -0.000   0.000  -0.000
   24       -0.000  -0.004   0.000  -0.004
   25       -0.000  -0.003   0.000  -0.003
   26       -0.000  -0.004   0.000  -0.004
   27       -0.000  -0.003   0.000  -0.003
   28       -0.000  -0.004   0.000  -0.004
   29       -0.000  -0.004   0.000  -0.004
   30        0.000  -0.000   0.000  -0.000
   31        0.000  -0.000   0.000  -0.000
   32       -0.000  -0.000   0.000  -0.000
--------------------------------------------------
tot          0.000  -0.044   0.184   0.140
 
    CHARGE:  cpu time    1.2518: real time    1.2500
    FORLOC:  cpu time    0.0090: real time    0.0096
    FORNL :  cpu time    7.0689: real time    7.0585
    STRESS:  cpu time   21.0608: real time   21.0249
    FORCOR:  cpu time    0.1320: real time    0.1329
    FORHAR:  cpu time    0.0210: real time    0.0214
    MIXING:  cpu time    0.0020: real time    0.0019
    OFIELD:  cpu time    0.0000: real time    0.0000

  FORCE on cell =-STRESS in cart. coord.  units (eV):
  Direction    XX          YY          ZZ          XY          YZ          ZX
  --------------------------------------------------------------------------------------
  Alpha Z   752.22629   752.22629   752.22629
  Ewald   -4343.48039 -4175.61638 -4162.21367     0.00073     0.00543    -0.47303
  Hartree  2697.24194  2798.48298  2824.45842     0.00018    -0.00264    -0.00984
  E(xc)   -1231.35777 -1231.61537 -1231.47901    -0.00000    -0.00005     0.00307
  Local   -1999.81453 -2313.58186 -2338.18004    -0.00106    -0.00469     0.57023
  n-local  -971.62401  -963.61118  -965.16176    -0.00007     0.00039    -0.14207
  augment   747.53747   764.15931   757.54632     0.00009     0.00101    -0.06196
  Kinetic  4349.20128  4369.57050  4362.80344     0.00013     0.00050     0.10711
  Fock        0.00000     0.00000     0.00000     0.00000     0.00000     0.00000
  -------------------------------------------------------------------------------------
  Total      -0.06972     0.01428    -0.00003     0.00000    -0.00003    -0.00650
  in kB      -0.23995     0.04916    -0.00009     0.00000    -0.00011    -0.02238
  external pressure =       -0.06 kB  Pullay stress =        0.00 kB


 VOLUME and BASIS-vectors are now :
 -----------------------------------------------------------------------------
  energy-cutoff  :      700.00
  volume of cell :      465.51
      direct lattice vectors                 reciprocal lattice vectors
     7.877156598 -0.000004771 -0.000360918     0.126949362 -0.000000017  0.000003353
     0.000001028  7.653850535 -0.000022200     0.000000079  0.130653192  0.000000381
    -0.000203899 -0.000022490  7.721045957     0.000005934  0.000000376  0.129516131

  length of vectors
     7.877156607  7.653850535  7.721045960     0.126949362  0.130653192  0.129516131


 FORCES acting on ions
    electron-ion (+dipol)            ewald-force                    non-local-force                 convergence-correction
 -----------------------------------------------------------------------------------------------
   0.937E+00 0.314E-01 0.975E+00   -.931E+00 -.358E-01 -.974E+00   -.182E-03 -.915E-04 -.560E-03   0.436E-04 -.337E-04 0.307E-03
   0.525E+01 -.252E-01 -.273E+00   -.522E+01 0.289E-01 0.282E+00   -.192E-01 -.276E-04 -.829E-02   0.496E-04 0.737E-05 -.296E-03
   0.168E+01 0.694E-02 0.707E+01   -.169E+01 -.439E-02 -.707E+01   0.518E-02 -.115E-02 0.708E-02   0.665E-04 0.213E-04 0.418E-03
   -.331E+01 -.373E-02 -.521E+01   0.246E+01 0.185E-02 0.523E+01   0.842E+00 0.935E-03 -.905E-02   0.310E-03 -.299E-05 -.478E-03
   -.802E+00 0.645E-01 0.235E+01   0.810E+00 -.669E-01 -.233E+01   -.628E-02 0.244E-02 -.169E-01   -.417E-04 -.447E-06 0.504E-03
   -.762E+01 -.123E-01 -.293E+01   0.752E+01 0.127E-01 0.290E+01   0.108E+00 -.280E-03 0.335E-01   -.791E-04 -.119E-04 -.496E-03
   -.449E+01 0.981E-01 0.254E+01   0.445E+01 -.938E-01 -.332E+01   0.309E-01 -.355E-02 0.787E+00   -.649E-04 0.445E-06 0.211E-02
   -.669E+01 -.448E-02 -.499E+01   0.771E+01 0.399E-02 0.599E+01   -.102E+01 0.328E-03 -.995E+00   -.360E-03 0.107E-04 -.185E-02
   0.584E+02 0.128E-02 0.360E+01   -.633E+02 -.170E-02 -.434E+01   0.495E+01 0.563E-03 0.738E+00   0.176E-02 0.715E-06 -.520E-03
   -.154E+01 -.557E+02 -.427E+01   0.159E+01 0.588E+02 0.512E+01   -.542E-01 -.307E+01 -.850E+00   -.329E-04 -.159E-02 0.580E-03
   0.134E+00 -.671E+02 0.255E+01   -.425E+00 0.706E+02 -.312E+01   0.291E+00 -.347E+01 0.571E+00   -.999E-04 -.102E-02 -.561E-03
   -.154E+01 0.553E+02 -.428E+01   0.160E+01 -.584E+02 0.514E+01   -.547E-01 0.303E+01 -.852E+00   -.322E-04 0.159E-02 0.580E-03
   0.131E+00 0.671E+02 0.255E+01   -.422E+00 -.706E+02 -.313E+01   0.291E+00 0.347E+01 0.571E+00   -.977E-04 0.101E-02 -.562E-03
   -.621E+01 -.230E-02 -.465E+02   0.723E+01 0.270E-02 0.489E+02   -.103E+01 -.494E-03 -.237E+01   0.274E-04 0.771E-05 -.600E-03
   -.676E+01 0.136E-04 0.427E+02   0.776E+01 0.334E-03 -.447E+02   -.101E+01 -.454E-03 0.192E+01   0.269E-04 0.778E-05 0.632E-03
   0.507E+01 0.444E-01 0.303E+02   -.584E+01 -.483E-01 -.327E+02   0.769E+00 0.386E-02 0.236E+01   -.112E-03 0.397E-05 -.369E-03
   -.991E+02 0.265E-01 0.102E+01   0.110E+03 -.320E-01 -.102E+01   -.107E+02 0.559E-02 0.188E-02   -.110E-02 -.225E-04 0.313E-03
   -.990E+02 -.152E-01 -.117E+01   0.110E+03 0.180E-01 0.120E+01   -.109E+02 -.298E-02 -.263E-01   -.103E-02 0.585E-05 -.309E-03
   -.322E+02 0.323E-01 -.523E+01   0.348E+02 -.355E-01 0.705E+01   -.255E+01 0.297E-02 -.182E+01   -.238E-02 0.206E-04 0.649E-03
   -.200E+02 0.282E-03 0.841E+00   0.196E+02 -.531E-03 -.162E+01   0.366E+00 0.355E-03 0.773E+00   -.154E-02 -.665E-05 -.596E-03
   0.993E+02 0.196E-01 0.742E+00   -.110E+03 -.247E-01 -.741E+00   0.108E+02 0.525E-02 -.286E-02   0.110E-02 -.223E-04 0.313E-03
   0.102E+03 -.147E-01 -.843E+00   -.113E+03 0.179E-01 0.872E+00   0.110E+02 -.333E-02 -.273E-01   0.104E-02 0.361E-05 -.308E-03
   0.333E+02 0.379E-01 -.773E+01   -.356E+02 -.414E-01 0.971E+01   0.236E+01 0.327E-02 -.198E+01   0.237E-02 0.219E-04 0.641E-03
   0.687E+00 -.832E+02 0.203E+01   -.687E+00 0.923E+02 -.212E+01   -.601E-03 -.908E+01 0.938E-01   0.421E-04 -.215E-03 0.281E-03
   -.126E+02 -.101E+03 -.133E+01   0.154E+02 0.112E+03 0.131E+01   -.278E+01 -.104E+02 0.235E-01   0.567E-05 -.463E-03 -.295E-03
   0.694E+00 0.832E+02 0.203E+01   -.696E+00 -.922E+02 -.212E+01   0.484E-03 0.907E+01 0.935E-01   0.423E-04 0.215E-03 0.281E-03
   -.126E+02 0.101E+03 -.134E+01   0.154E+02 -.112E+03 0.132E+01   -.278E+01 0.104E+02 0.225E-01   0.136E-05 0.469E-03 -.296E-03
   0.249E+01 0.141E-02 -.402E+01   -.266E+01 -.163E-02 0.418E+01   0.172E+00 0.239E-03 -.161E+00   0.457E-04 -.111E-04 -.224E-03
   0.236E+01 -.198E-02 0.391E+01   -.253E+01 0.195E-02 -.414E+01   0.175E+00 0.605E-04 0.230E+00   0.440E-04 -.110E-04 0.211E-03
   -.107E+01 0.221E-01 -.531E+01   0.924E+00 -.271E-01 0.585E+01   0.155E+00 0.494E-02 -.543E+00   -.422E-04 -.604E-05 -.289E-03
   -.981E+00 0.166E-01 0.527E+01   0.861E+00 -.208E-01 -.571E+01   0.128E+00 0.415E-02 0.433E+00   -.452E-04 -.574E-05 0.289E-03
   0.375E+01 0.349E-01 -.142E+02   -.473E+01 -.383E-01 0.141E+02   0.970E+00 0.324E-02 0.166E+00   -.129E-03 0.611E-05 0.306E-03
 -----------------------------------------------------------------------------------------------
   -.528E+00 0.128E-01 0.833E+00   -.160E-13 0.210E-13 0.391E-13   0.530E+00 -.129E-01 -.832E+00   -.213E-03 -.987E-05 0.362E-03
 
 
 POSITION                                       TOTAL-FORCE (eV/Angst)
 -----------------------------------------------------------------------------------
      0.00205      0.00009      0.00013         0.005182     -0.004457      0.000940
      0.01675      7.65375      3.86057         0.007561      0.003690      0.000972
      0.00116      3.82690      0.01007        -0.004989      0.001419      0.007291
      7.71977      3.82690      3.86650        -0.002967     -0.000945      0.007309
      3.94055      0.00025      0.00138         0.001793      0.000137     -0.002377
      3.94773      7.65378      3.85887         0.001883      0.000124     -0.000947
      3.93541      3.82730      7.60854        -0.006006      0.000792      0.001904
      3.98971      3.82684      3.92384         0.000873     -0.000149     -0.002199
      5.93575      3.82687      3.85101         0.002880      0.000145     -0.002817
      3.94281      1.84764      0.00479        -0.001919      0.007253     -0.000877
      3.94365      1.84123      3.84983        -0.000190      0.007307     -0.001424
      3.94284      5.80606      0.00477        -0.001946     -0.007268     -0.000977
      3.94366      5.81255      3.84983        -0.000204     -0.007474     -0.001426
      7.87675      3.82692      1.88261        -0.002196     -0.000091     -0.002727
      7.87441      3.82691      5.84617        -0.003763     -0.000096     -0.003785
      3.91988      3.82688      5.80174        -0.005072     -0.000044     -0.000629
      1.87270      7.65379      7.72078        -0.002221      0.000102     -0.002133
      1.88390     -0.00001      3.86181        -0.001560     -0.000131      0.001556
      1.95021      3.82693      0.02567        -0.007181     -0.000204      0.000048
      1.92726      3.82689      3.84567        -0.001724      0.000102     -0.001840
      6.00863      7.65383     -0.00018         0.004135      0.000147     -0.001886
      6.02315     -0.00000      3.86147         0.003564     -0.000154      0.001191
      5.92344      3.82690      0.03144        -0.003749     -0.000239      0.002686
      0.00134      1.84425      0.00118        -0.000931      0.005128      0.001247
      0.04157      1.84008      3.86281         0.003359      0.002151      0.000850
      0.00131      5.80956      0.00118        -0.000915     -0.001860      0.001208
      0.04158      5.81376      3.86283         0.003354     -0.005068      0.000796
      0.00304      7.65384      1.92916         0.004228      0.000006      0.000327
      0.00280     -0.00001      5.79271         0.003743      0.000019      0.001278
      3.93922      7.65378      1.92582         0.007152     -0.000080     -0.001590
      3.94013      7.65378      5.79396         0.007151     -0.000121     -0.001780
      3.90741      3.82687      1.91054        -0.009324     -0.000142     -0.000183
 -----------------------------------------------------------------------------------
    total drift:                                0.001742     -0.000087      0.001023


--------------------------------------------------------------------------------------------------------



  FREE ENERGIE OF THE ION-ELECTRON SYSTEM (eV)
  ---------------------------------------------------
  free  energy   TOTEN  =      -208.39557784 eV

  energy  without entropy=     -208.39370141  energy(sigma->0) =     -208.39463962
 


--------------------------------------------------------------------------------------------------------


    POTLOK:  cpu time    0.9988: real time    0.9967


--------------------------------------------------------------------------------------------------------


 stress matrix after NEB project (eV)
     -0.06972      0.00000     -0.00650
      0.00000      0.01428     -0.00003
     -0.00650     -0.00003     -0.00003
  FORCES: max atom, RMS     0.009326    0.005806
  FORCE total and by dimension    0.032844    0.009324
  Stress total and by dimension    0.071756    0.069716
 Quasi-Newton relaxation of ions (Broydens 2nd method)
  g(Force)  = 0.520E-04   g(Stress)= 0.776E-05

 Reset! Starting new Quasi-Newton update for ions 


--------------------------------------------------------------------------------------------------------


  
 reached required accuracy - stopping structural energy minimisation
 writing wavefunctions
     LOOP+:  cpu time  343.8237: real time  345.7698
    4ORBIT:  cpu time    0.0000: real time    0.0000
 


 total charge     
 
# of ion       s       p       d       tot
------------------------------------------
    1        0.318   6.503   1.751   8.572
    2        0.320   6.507   1.749   8.576
    3        0.297   6.459   1.756   8.512
    4        0.302   6.431   1.770   8.502
    5        0.295   6.470   1.790   8.555
    6        0.294   6.471   1.800   8.565
    7        0.307   6.442   1.716   8.465
    8        0.307   6.432   1.664   8.403
    9        1.569   3.443   0.000   5.012
   10        1.566   3.424   0.000   4.990
   11        1.567   3.421   0.000   4.988
   12        1.566   3.424   0.000   4.990
   13        1.567   3.421   0.000   4.988
   14        1.563   3.418   0.000   4.981
   15        1.563   3.416   0.000   4.979
   16        1.571   3.449   0.000   5.020
   17        1.732   4.376   0.000   6.109
   18        1.733   4.376   0.000   6.109
   19        1.730   4.383   0.000   6.113
   20        1.727   4.359   0.000   6.087
   21        1.732   4.376   0.000   6.109
   22        1.732   4.375   0.000   6.107
   23        1.729   4.383   0.000   6.112
   24        1.735   4.392   0.000   6.127
   25        1.735   4.388   0.000   6.122
   26        1.735   4.392   0.000   6.126
   27        1.735   4.388   0.000   6.123
   28        1.731   4.393   0.000   6.124
   29        1.731   4.393   0.000   6.124
   30        1.732   4.400   0.000   6.132
   31        1.731   4.400   0.000   6.132
   32        1.729   4.372   0.000   6.102
--------------------------------------------------
tot         42.679 149.280  13.996 205.955
 


 magnetization (x)
 
# of ion       s       p       d       tot
------------------------------------------
    1        0.001   0.001   0.104   0.106
    2        0.000   0.001   0.069   0.070
    3        0.000   0.000   0.005   0.005
    4        0.000   0.000   0.005   0.005
    5       -0.000  -0.000   0.000   0.000
    6       -0.000  -0.000   0.000   0.000
    7       -0.000  -0.000   0.000   0.000
    8       -0.000  -0.000   0.000   0.000
    9       -0.000  -0.001   0.000  -0.001
   10       -0.000  -0.000   0.000  -0.000
   11       -0.000  -0.000   0.000  -0.000
   12       -0.000  -0.000   0.000  -0.000
   13       -0.000  -0.000   0.000  -0.000
   14       -0.000  -0.008   0.000  -0.008
   15       -0.000  -0.008   0.000  -0.008
   16        0.000   0.000   0.000   0.000
   17       -0.000  -0.002   0.000  -0.002
   18       -0.000  -0.001   0.000  -0.001
   19       -0.000  -0.000   0.000  -0.000
   20       -0.000  -0.000   0.000  -0.000
   21       -0.000  -0.002   0.000  -0.002
   22       -0.000  -0.001   0.000  -0.001
   23       -0.000  -0.000   0.000  -0.000
   24       -0.000  -0.004   0.000  -0.004
   25       -0.000  -0.003   0.000  -0.003
   26       -0.000  -0.004   0.000  -0.004
   27       -0.000  -0.003   0.000  -0.003
   28       -0.000  -0.004   0.000  -0.004
   29       -0.000  -0.004   0.000  -0.004
   30        0.000  -0.000   0.000  -0.000
   31        0.000  -0.000   0.000  -0.000
   32       -0.000  -0.000   0.000  -0.000
--------------------------------------------------
tot          0.000  -0.044   0.184   0.140
 

 total amount of memory used by VASP MPI-rank0   107292. kBytes
=======================================================================

   base      :      30000. kBytes
   nonlr-proj:       8516. kBytes
   fftplans  :       8424. kBytes
   grid      :       8783. kBytes
   one-center:        124. kBytes
   wavefun   :      51445. kBytes
 
  
  
 General timing and accounting informations for this job:
 ========================================================
  
                  Total CPU time used (sec):      393.724
                            User time (sec):      378.884
                          System time (sec):       14.840
                         Elapsed time (sec):      404.421
  
                   Maximum memory used (kb):      223552.
                   Average memory used (kb):           0.
  
                          Minor page faults:       117008
                          Major page faults:            2
                 Voluntary context switches:        59565
