LTO                                     
           1
     7.877157   -0.000005   -0.000361
     0.000001    7.653851   -0.000022
    -0.000204   -0.000022    7.721046
   Ti   O    F 
   8   8  16
Direct configuration=     1
   0.00026068  0.00001149  0.00001651
   0.00213877  0.99998824  0.50000856
   0.00014748  0.49999724  0.00130601
   0.98003332  0.49999919  0.50082121
   0.50025046  0.00003254  0.00020188
   0.50117487  0.99999239  0.49981243
   0.49962324  0.50005212  0.98545403
   0.50650427  0.49999117  0.50822519
   0.75355220  0.49999525  0.49880408
   0.50053719  0.24140066  0.00064402
   0.50065688  0.24056498  0.49863936
   0.50054089  0.75858046  0.00064351
   0.50065789  0.75942961  0.49864012
   0.99995452  0.50000120  0.24387714
   0.99967122  0.50000050  0.75722177
   0.49764613  0.49999670  0.75144320
   0.23776410  0.99999573  0.99997931
   0.23917336  0.00000064  0.50017809
   0.24757749  0.50000027  0.00333743
   0.24467724  0.49999744  0.49808943
   0.76279166  0.99999837  0.00001463
   0.76464780  0.00000190  0.50015859
   0.75197709  0.49999738  0.00410922
   0.00017070  0.24095651  0.00015370
   0.00529042  0.24041355  0.50029669
   0.00016633  0.75903806  0.00015481
   0.00529187  0.75958754  0.50030087
   0.00039237  0.99999927  0.24986053
   0.00037519  0.00000031  0.75024982
   0.50008813  0.99999129  0.24945066
   0.50021657  0.99999372  0.75043724
   0.49604967  0.49999432  0.24746997
