 vasp.5.4.4.18Apr17-6-g9f103f2a35 (build Apr 30 2017 20:10:35) complex          
  
 executed on             LinuxIFC date 2017.08.09  13:36:53
 running on   64 total cores
 distrk:  each k-point on   64 cores,    1 groups
 distr:  one band on NCORES_PER_BAND=   8 cores,    8 groups


--------------------------------------------------------------------------------------------------------


 INCAR:
 POTCAR:   PAW_PBE Ti_pv 07Sep2000                
 POTCAR:   PAW_PBE O 08Apr2002                    
 POTCAR:    PAW_PBE F 08Apr2002                   
 POTCAR:   PAW_PBE Ti_pv 07Sep2000                
   VRHFIN =Ti: d3 s1                                                            
   LEXCH  = PE                                                                  
   EATOM  =  1042.3781 eV,   76.6126 Ry                                         
                                                                                
   TITEL  = PAW_PBE Ti_pv 07Sep2000                                             
   LULTRA =        F    use ultrasoft PP ?                                      
   IUNSCR =        1    unscreen: 0-lin 1-nonlin 2-no                           
   RPACOR =    2.200    partial core radius                                     
   POMASS =   47.880; ZVAL   =   10.000    mass and valenz                      
   RCORE  =    2.500    outmost cutoff radius                                   
   RWIGS  =    2.500; RWIGS  =    1.323    wigner-seitz radius (au A)           
   ENMAX  =  222.338; ENMIN  =  166.753 eV                                      
   RCLOC  =    1.701    cutoff for local pot                                    
   LCOR   =        T    correct aug charges                                     
   LPAW   =        T    paw PP                                                  
   EAUG   =  482.848                                                            
   DEXC   =    -.008                                                            
   RMAX   =    3.092    core radius for proj-oper                               
   RAUG   =    1.300    factor for augmentation sphere                          
   RDEP   =    2.538    radius for radial grids                                 
   QCUT   =   -4.042; QGAM   =    8.085    optimization parameters              
                                                                                
   Description                                                                  
     l     E      TYP  RCUT    TYP  RCUT                                        
     1   .000     23  2.300                                                     
     1  -.100     23  2.300                                                     
     2   .000     23  2.500                                                     
     2   .000     23  2.500                                                     
     0   .000     23  2.500                                                     
     0  1.500     23  2.500                                                     
     3   .000      7   .000                                                     
  local pseudopotential read in
  partial core-charges read in
  atomic valenz-charges read in
  non local Contribution for L=           1  read in
    real space projection operators read in
  non local Contribution for L=           1  read in
    real space projection operators read in
  non local Contribution for L=           2  read in
    real space projection operators read in
  non local Contribution for L=           2  read in
    real space projection operators read in
  non local Contribution for L=           0  read in
    real space projection operators read in
  non local Contribution for L=           0  read in
    real space projection operators read in
    PAW grid and wavefunctions read in
 
   number of l-projection  operators is LMAX  =           6
   number of lm-projection operators is LMMAX =          18
 
 POTCAR:   PAW_PBE O 08Apr2002                    
   VRHFIN =O: s2p4                                                              
   LEXCH  = PE                                                                  
   EATOM  =   432.3788 eV,   31.7789 Ry                                         
                                                                                
   TITEL  = PAW_PBE O 08Apr2002                                                 
   LULTRA =        F    use ultrasoft PP ?                                      
   IUNSCR =        0    unscreen: 0-lin 1-nonlin 2-no                           
   RPACOR =     .000    partial core radius                                     
   POMASS =   16.000; ZVAL   =    6.000    mass and valenz                      
   RCORE  =    1.520    outmost cutoff radius                                   
   RWIGS  =    1.550; RWIGS  =     .820    wigner-seitz radius (au A)           
   ENMAX  =  400.000; ENMIN  =  300.000 eV                                      
   ICORE  =        2    local potential                                         
   LCOR   =        T    correct aug charges                                     
   LPAW   =        T    paw PP                                                  
   EAUG   =  605.392                                                            
   DEXC   =     .000                                                            
   RMAX   =    2.264    core radius for proj-oper                               
   RAUG   =    1.300    factor for augmentation sphere                          
   RDEP   =    1.550    radius for radial grids                                 
   QCUT   =   -5.520; QGAM   =   11.041    optimization parameters              
                                                                                
   Description                                                                  
     l     E      TYP  RCUT    TYP  RCUT                                        
     0   .000     23  1.200                                                     
     0  -.700     23  1.200                                                     
     1   .000     23  1.520                                                     
     1   .600     23  1.520                                                     
     2   .000      7  1.500                                                     
  local pseudopotential read in
  atomic valenz-charges read in
  non local Contribution for L=           0  read in
    real space projection operators read in
  non local Contribution for L=           0  read in
    real space projection operators read in
  non local Contribution for L=           1  read in
    real space projection operators read in
  non local Contribution for L=           1  read in
    real space projection operators read in
    PAW grid and wavefunctions read in
 
   number of l-projection  operators is LMAX  =           4
   number of lm-projection operators is LMMAX =           8
 
 POTCAR:    PAW_PBE F 08Apr2002                   
   VRHFIN =F: s2p5                                                              
   LEXCH  = PE                                                                  
   EATOM  =   659.6475 eV,   48.4827 Ry                                         
                                                                                
   TITEL  = PAW_PBE F 08Apr2002                                                 
   LULTRA =        F    use ultrasoft PP ?                                      
   IUNSCR =        1    unscreen: 0-lin 1-nonlin 2-no                           
   RPACOR =    1.200    partial core radius                                     
   POMASS =   18.998; ZVAL   =    7.000    mass and valenz                      
   RCORE  =    1.520    outmost cutoff radius                                   
   RWIGS  =    1.500; RWIGS  =    0.794    wigner-seitz radius (au A)           
   ENMAX  =  400.000; ENMIN  =  300.000 eV                                      
   ICORE  =        2    local potential                                         
   LCOR   =        T    correct aug charges                                     
   LPAW   =        T    paw PP                                                  
   EAUG   =  613.614                                                            
   RMAX   =    1.555    core radius for proj-oper                               
   RAUG   =    1.300    factor for augmentation sphere                          
   RDEP   =    1.539    radius for radial grids                                 
   RDEPT  =    1.299    core radius for aug-charge                              
                                                                                
   Atomic configuration                                                         
    4 entries                                                                   
     n  l   j            E        occ.                                          
     1  0  0.50      -663.3661   2.0000                                         
     2  0  0.50       -29.8995   2.0000                                         
     2  1  0.50       -11.1114   5.0000                                         
     3  2  1.50       -10.8847   0.0000                                         
   Description                                                                  
     l       E           TYP  RCUT    TYP  RCUT                                 
     0    -29.8995018     23  1.200                                             
     0     -9.5240782     23  1.200                                             
     1    -11.1113914     23  1.520                                             
     1      1.3605826     23  1.520                                             
     2    -10.8846608      7  1.500                                             
  local pseudopotential read in
  partial core-charges read in
  partial kinetic energy density read in
  atomic valenz-charges read in
  non local Contribution for L=           0  read in
    real space projection operators read in
  non local Contribution for L=           0  read in
    real space projection operators read in
  non local Contribution for L=           1  read in
    real space projection operators read in
  non local Contribution for L=           1  read in
    real space projection operators read in
    PAW grid and wavefunctions read in
 
   number of l-projection  operators is LMAX  =           4
   number of lm-projection operators is LMMAX =           8
 
 Optimization of the real space projectors (new method)

 maximal supplied QI-value         = 15.12
 optimisation between [QCUT,QGAM] = [ 13.45, 27.06] = [ 50.69,205.06] Ry 
 Optimized for a Real-space Cutoff    1.49 Angstroem

   l    n(q)    QCUT    max X(q) W(low)/X(q) W(high)/X(q)  e(spline) 
   1     12    13.455     4.841    0.13E-05    0.83E-06    0.56E-07
   1     12    13.455     5.701    0.32E-04    0.25E-04    0.17E-06
   2     11    13.455     4.569    0.64E-05    0.34E-05    0.50E-07
   2     11    13.455    32.276    0.49E-04    0.38E-04    0.46E-06
   0     12    13.455    30.046    0.17E-04    0.41E-05    0.51E-07
   0     12    13.455    45.433    0.12E-04    0.27E-04    0.38E-06
 Optimization of the real space projectors (new method)

 maximal supplied QI-value         = 24.76
 optimisation between [QCUT,QGAM] = [ 13.37, 26.98] = [ 50.04,203.89] Ry 
 Optimized for a Real-space Cutoff    1.17 Angstroem

   l    n(q)    QCUT    max X(q) W(low)/X(q) W(high)/X(q)  e(spline) 
   0      9    13.368     4.192    0.20E-04    0.58E-05    0.56E-07
   0      9    13.368     8.473    0.60E-04    0.52E-04    0.21E-06
   1      9    13.368     2.474    0.22E-04    0.17E-04    0.28E-07
   1      9    13.368     3.912    0.94E-04    0.97E-04    0.20E-06
 Optimization of the real space projectors (new method)

 maximal supplied QI-value         = 24.76
 optimisation between [QCUT,QGAM] = [ 13.37, 26.98] = [ 50.04,203.89] Ry 
 Optimized for a Real-space Cutoff    1.17 Angstroem

   l    n(q)    QCUT    max X(q) W(low)/X(q) W(high)/X(q)  e(spline) 
   0      9    13.368    14.049    0.39E-04    0.34E-04    0.16E-06
   0      9    13.368     8.945    0.54E-04    0.47E-04    0.20E-06
   1      9    13.368     7.086    0.99E-04    0.10E-03    0.23E-06
   1      9    13.368     6.747    0.86E-04    0.89E-04    0.21E-06

 ----------------------------------------------------------------------------- 
|                                                                             |
|  ADVICE TO THIS USER RUNNING 'VASP/VAMP'   (HEAR YOUR MASTER'S VOICE ...):  |
|                                                                             |
|      You enforced a specific xc-type in the INCAR file,                     |
|      a different type was found on the POTCAR file                          |
|          I HOPE YOU KNOW, WHAT YOU ARE  DOING                               |
|                                                                             |
 ----------------------------------------------------------------------------- 

 PAW_PBE Ti_pv 07Sep2000                :
 energy of atom  1       EATOM=-1042.3781
 kinetic energy error for atom=    0.0006 (will be added to EATOM!!)
 PAW_PBE O 08Apr2002                    :
 energy of atom  2       EATOM= -432.3788
 kinetic energy error for atom=    0.0091 (will be added to EATOM!!)
  PAW_PBE F 08Apr2002                   :
 energy of atom  3       EATOM= -659.6475
 kinetic energy error for atom=    0.0140 (will be added to EATOM!!)
 
 
 POSCAR: TiOF2 2x2x2 config 0272                 
  positions in direct lattice
  velocities in cartesian coordinates
 exchange correlation table for  LEXCH =       14
   RHO(1)=    0.500       N(1)  =     2000
   RHO(2)=  100.500       N(2)  =     4000

 VTST: version 3.1, (03/28/14)

 CHAIN: initializing optimizer
 
 OPT: Using VASP QUASI-newton optimizer
 CHAIN: Read ICHAIN            0
 
 POSCAR: TiOF2 2x2x2 config 0272                 
  positions in direct lattice
  velocities in cartesian coordinates
 


--------------------------------------------------------------------------------------------------------


 ion  position               nearest neighbor table
   1  0.000  0.989  0.989-   9 1.83  13 1.83  21 1.97  17 1.97  29 2.01  25 2.01
   2  1.000  0.988  0.511-  10 1.83  13 1.83  18 1.97  22 1.97  29 2.01  26 2.01
   3  1.000  0.511  0.988-  14 1.83   9 1.83  23 1.97  19 1.97  25 2.01  30 2.01
   4  0.000  0.512  0.512-  10 1.83  14 1.83  20 1.97  24 1.97  30 2.01  26 2.01
   5  0.500  0.988  0.988-  12 1.82  15 1.82  21 1.98  17 1.98  27 2.01  31 2.01
   6  0.500  0.013  0.512-  11 1.82  15 1.82  18 1.97  22 1.97  31 2.01  28 2.01
   7  0.500  0.512  0.013-  16 1.82  12 1.82  23 1.97  19 1.97  27 2.01  32 2.01
   8  0.500  0.487  0.487-  11 1.82  16 1.82  20 1.97  24 1.97  28 2.01  32 2.01
   9  0.000  0.750  0.007-   1 1.83   3 1.83
  10  0.000  0.750  0.493-   2 1.83   4 1.83
  11  0.500  0.250  0.500-   6 1.82   8 1.82
  12  0.500  0.750  1.000-   5 1.82   7 1.82
  13  0.000  0.007  0.750-   1 1.83   2 1.83
  14  1.000  0.493  0.750-   3 1.83   4 1.83
  15  0.500  1.000  0.750-   5 1.82   6 1.82
  16  0.500  0.500  0.250-   7 1.82   8 1.82
  17  0.250  0.007  0.007-   1 1.97   5 1.98
  18  0.250  0.999  0.493-   2 1.97   6 1.97
  19  0.250  0.493  0.999-   3 1.97   7 1.97
  20  0.250  0.501  0.501-   4 1.97   8 1.97
  21  0.750  0.007  0.007-   1 1.97   5 1.98
  22  0.750  0.999  0.493-   2 1.97   6 1.97
  23  0.750  0.493  0.999-   3 1.97   7 1.97
  24  0.750  0.501  0.501-   4 1.97   8 1.97
  25  1.000  0.250  0.009-   3 2.01   1 2.01
  26  0.000  0.250  0.491-   4 2.01   2 2.01
  27  0.500  0.250  1.000-   7 2.01   5 2.01
  28  0.500  0.750  0.500-   8 2.01   6 2.01
  29  1.000  0.009  0.250-   2 2.01   1 2.01
  30  0.000  0.491  0.250-   4 2.01   3 2.01
  31  0.500  1.000  0.250-   6 2.01   5 2.01
  32  0.500  0.500  0.750-   8 2.01   7 2.01
 

IMPORTANT INFORMATION: All symmetrisations will be switched off!
NOSYMM: (Re-)initialisation of all symmetry stuff for point group C_1.

 
 
 KPOINTS: Title                                   

Automatic generation of k-mesh.
Space group operators:
 irot       det(A)        alpha          n_x          n_y          n_z        tau_x        tau_y        tau_z
    1     1.000000     0.000000     1.000000     0.000000     0.000000     0.000000     0.000000     0.000000
 
 Subroutine IBZKPT returns following result:
 ===========================================
 
 Found     32 irreducible k-points:
 
 Following reciprocal coordinates:
            Coordinates               Weight
  0.125000  0.125000  0.125000      2.000000
  0.375000  0.125000  0.125000      2.000000
 -0.375000  0.125000  0.125000      2.000000
 -0.125000  0.125000  0.125000      2.000000
  0.125000  0.375000  0.125000      2.000000
  0.375000  0.375000  0.125000      2.000000
 -0.375000  0.375000  0.125000      2.000000
 -0.125000  0.375000  0.125000      2.000000
  0.125000 -0.375000  0.125000      2.000000
  0.375000 -0.375000  0.125000      2.000000
 -0.375000 -0.375000  0.125000      2.000000
 -0.125000 -0.375000  0.125000      2.000000
  0.125000 -0.125000  0.125000      2.000000
  0.375000 -0.125000  0.125000      2.000000
 -0.375000 -0.125000  0.125000      2.000000
 -0.125000 -0.125000  0.125000      2.000000
  0.125000  0.125000  0.375000      2.000000
  0.375000  0.125000  0.375000      2.000000
 -0.375000  0.125000  0.375000      2.000000
 -0.125000  0.125000  0.375000      2.000000
  0.125000  0.375000  0.375000      2.000000
  0.375000  0.375000  0.375000      2.000000
 -0.375000  0.375000  0.375000      2.000000
 -0.125000  0.375000  0.375000      2.000000
  0.125000 -0.375000  0.375000      2.000000
  0.375000 -0.375000  0.375000      2.000000
 -0.375000 -0.375000  0.375000      2.000000
 -0.125000 -0.375000  0.375000      2.000000
  0.125000 -0.125000  0.375000      2.000000
  0.375000 -0.125000  0.375000      2.000000
 -0.375000 -0.125000  0.375000      2.000000
 -0.125000 -0.125000  0.375000      2.000000
 
 Following cartesian coordinates:
            Coordinates               Weight
  0.015901  0.016323  0.016323      2.000000
  0.047703  0.016323  0.016323      2.000000
 -0.047703  0.016323  0.016323      2.000000
 -0.015901  0.016323  0.016323      2.000000
  0.015901  0.048977  0.016315      2.000000
  0.047703  0.048977  0.016315      2.000000
 -0.047703  0.048977  0.016315      2.000000
 -0.015901  0.048977  0.016315      2.000000
  0.015901 -0.048984  0.016338      2.000000
  0.047703 -0.048984  0.016338      2.000000
 -0.047703 -0.048984  0.016338      2.000000
 -0.015901 -0.048984  0.016338      2.000000
  0.015901 -0.016331  0.016331      2.000000
  0.047703 -0.016331  0.016331      2.000000
 -0.047703 -0.016331  0.016331      2.000000
 -0.015901 -0.016331  0.016331      2.000000
  0.015901  0.016315  0.048977      2.000000
  0.047703  0.016315  0.048977      2.000000
 -0.047703  0.016315  0.048977      2.000000
 -0.015901  0.016315  0.048977      2.000000
  0.015901  0.048969  0.048969      2.000000
  0.047703  0.048969  0.048969      2.000000
 -0.047703  0.048969  0.048969      2.000000
 -0.015901  0.048969  0.048969      2.000000
  0.015901 -0.048992  0.048992      2.000000
  0.047703 -0.048992  0.048992      2.000000
 -0.047703 -0.048992  0.048992      2.000000
 -0.015901 -0.048992  0.048992      2.000000
  0.015901 -0.016338  0.048984      2.000000
  0.047703 -0.016338  0.048984      2.000000
 -0.047703 -0.016338  0.048984      2.000000
 -0.015901 -0.016338  0.048984      2.000000
 


--------------------------------------------------------------------------------------------------------




 Dimension of arrays:
   k-points           NKPTS =     32   k-points in BZ     NKDIM =     32   number of bands    NBANDS=    160
   number of dos      NEDOS =   3001   number of ions     NIONS =     32
   non local maximal  LDIM  =      6   non local SUM 2l+1 LMDIM =     18
   total plane-waves  NPLWV = 343000
   max r-space proj   IRMAX =  10320   max aug-charges    IRDMAX= 231373
   dimension x,y,z NGX =    70 NGY =   70 NGZ =   70
   dimension x,y,z NGXF=   140 NGYF=  140 NGZF=  140
   support grid    NGXF=   280 NGYF=  280 NGZF=  280
   ions per type =               8   8  16
   NGX,Y,Z   is equivalent  to a cutoff of  14.80, 15.20, 15.20 a.u.
   NGXF,Y,Z  is equivalent  to a cutoff of  29.61, 30.40, 30.40 a.u.

 SYSTEM =  LTO                                     
 POSCAR =  TiOF2 2x2x2 config 0272                 

 Startparameter for this run:
   NWRITE =      2    write-flag & timer
   PREC   = accura    normal or accurate (medium, high low for compatibility)
   ISTART =      1    job   : 0-new  1-cont  2-samecut
   ICHARG =      0    charge: 1-file 2-atom 10-const
   ISPIN  =      2    spin polarized calculation?
   LNONCOLLINEAR =      F non collinear calculations
   LSORBIT =      F    spin-orbit coupling
   INIWAV =      1    electr: 0-lowe 1-rand  2-diag
   LASPH  =      T    aspherical Exc in radial PAW
   METAGGA=      F    non-selfconsistent MetaGGA calc.

 Electronic Relaxation 1
   ENCUT  =  700.0 eV  51.45 Ry    7.17 a.u.  16.96 16.52 16.52*2*pi/ulx,y,z
   ENINI  =  700.0     initial cutoff
   ENAUG  =  613.6 eV  augmentation charge cutoff
   NELM   =     60;   NELMIN=  2; NELMDL=  0     # of ELM steps 
   EDIFF  = 0.1E-05   stopping-criterion for ELM
   LREAL  =      T    real-space projection
   NLSPLINE    = F    spline interpolate recip. space projectors
   LCOMPAT=      F    compatible to vasp.4.4
   GGA_COMPAT  = T    GGA compatible to vasp.4.4-vasp.4.6
   LMAXPAW     = -100 max onsite density
   LMAXMIX     =    4 max onsite mixed and CHGCAR
   VOSKOWN=      0    Vosko Wilk Nusair interpolation
   ROPT   =   -0.00010  -0.00010  -0.00010
 Ionic relaxation
   EDIFFG = -.1E-01   stopping-criterion for IOM
   NSW    =    100    number of steps for IOM
   NBLOCK =      1;   KBLOCK =    100    inner block; outer block 
   IBRION =      1    ionic relax: 0-MD 1-quasi-New 2-CG
   NFREE  =      0    steps in history (QN), initial steepest desc. (CG)
   ISIF   =      3    stress and relaxation
   IWAVPR =     11    prediction:  0-non 1-charg 2-wave 3-comb
   ISYM   =      0    0-nonsym 1-usesym 2-fastsym
   LCORR  =      T    Harris-Foulkes like correction to forces

   POTIM  = 0.5000    time-step for ionic-motion
   TEIN   =    0.0    initial temperature
   TEBEG  =    0.0;   TEEND  =   0.0 temperature during run
   SMASS  =  -3.00    Nose mass-parameter (am)
   estimated Nose-frequenzy (Omega)   =  0.10E-29 period in steps =****** mass=  -0.141E-26a.u.
   SCALEE = 1.0000    scale energy and forces
   NPACO  =    256;   APACO  = 16.0  distance and # of slots for P.C.
   PSTRESS=    0.0 pullay stress

  Mass of Ions in am
   POMASS =  47.88 16.00 19.00
  Ionic Valenz
   ZVAL   =  10.00  6.00  7.00
  Atomic Wigner-Seitz radii
   RWIGS  =  -1.00 -1.00 -1.00
  virtual crystal weights 
   VCA    =   1.00  1.00  1.00
   NELECT =     240.0000    total number of electrons
   NUPDOWN=      -1.0000    fix difference up-down

 DOS related values:
   EMIN   =  10.00;   EMAX   =-10.00  energy-range for DOS
   EFERMI =   0.00
   ISMEAR =     0;   SIGMA  =   0.01  broadening in eV -4-tet -1-fermi 0-gaus

 Electronic relaxation 2 (details)
   IALGO  =     38    algorithm
   LDIAG  =      T    sub-space diagonalisation (order eigenvalues)
   LSUBROT=      F    optimize rotation matrix (better conditioning)
   TURBO    =      0    0=normal 1=particle mesh
   IRESTART =      0    0=no restart 2=restart with 2 vectors
   NREBOOT  =      0    no. of reboots
   NMIN     =      0    reboot dimension
   EREF     =   0.00    reference energy to select bands
   IMIX   =      4    mixing-type and parameters
     AMIX     =   0.40;   BMIX     =  1.00
     AMIX_MAG =   1.60;   BMIX_MAG =  1.00
     AMIN     =   0.10
     WC   =   100.;   INIMIX=   1;  MIXPRE=   1;  MAXMIX= -45

 Intra band minimization:
   WEIMIN = 0.0010     energy-eigenvalue tresh-hold
   EBREAK =  0.16E-08  absolut break condition
   DEPER  =   0.30     relativ break condition  

   TIME   =   0.40     timestep for ELM

  volume/ion in A,a.u.               =      14.40        97.17
  Fermi-wavevector in a.u.,A,eV,Ry     =   1.317181  2.489111 23.605643  1.734966
  Thomas-Fermi vector in A             =   2.447240
 
 Write flags
   LWAVE        =      T    write WAVECAR
   LDOWNSAMPLE  =      F    k-point downsampling of WAVECAR
   LCHARG       =      T    write CHGCAR
   LVTOT        =      F    write LOCPOT, total local potential
   LVHAR        =      F    write LOCPOT, Hartree potential only
   LELF         =      F    write electronic localiz. function (ELF)
   LORBIT       =     11    0 simple, 1 ext, 2 COOP (PROOUT), +10 PAW based schemes


 Dipole corrections
   LMONO  =      F    monopole corrections only (constant potential shift)
   LDIPOL =      F    correct potential (dipole corrections)
   IDIPOL =      0    1-x, 2-y, 3-z, 4-all directions 
   EPSILON=  1.0000000 bulk dielectric constant

 LDA+U is selected, type is set to LDAUTYPE =  2
   angular momentum for each species LDAUL =     2   -1   -1
   U (eV)           for each species LDAUU =   4.2  0.0  0.0
   J (eV)           for each species LDAUJ =   0.0  0.0  0.0
 Exchange correlation treatment:
   GGA     =    PS    GGA type
   LEXCH   =    14    internal setting for exchange type
   VOSKOWN=      0    Vosko Wilk Nusair interpolation
   LHFCALC =     F    Hartree Fock is set to
   LHFONE  =     F    Hartree Fock one center treatment
   AEXX    =    0.0000 exact exchange contribution

 Linear response parameters
   LEPSILON=     F    determine dielectric tensor
   LRPA    =     F    only Hartree local field effects (RPA)
   LNABLA  =     F    use nabla operator in PAW spheres
   LVEL    =     F    velocity operator in full k-point grid
   LINTERFAST=   F  fast interpolation
   KINTER  =     0    interpolate to denser k-point grid
   CSHIFT  =0.1000    complex shift for real part using Kramers Kronig
   OMEGAMAX=  -1.0    maximum frequency
   DEG_THRESHOLD= 0.2000000E-02 threshold for treating states as degnerate
   RTIME   =   -0.100 relaxation time in fs
  (WPLASMAI=    0.000 imaginary part of plasma frequency in eV, 0.658/RTIME)
   DFIELD  = 0.0000000 0.0000000 0.0000000 field for delta impulse in time
 
 Orbital magnetization related:
   ORBITALMAG=     F  switch on orbital magnetization
   LCHIMAG   =     F  perturbation theory with respect to B field
   DQ        =  0.001000  dq finite difference perturbation B field
   LLRAUG    =     F  two centre corrections for induced B field



--------------------------------------------------------------------------------------------------------


 quasi-Newton-method for relaxation of ions
 charge density and potential will be updated during run
 spin polarized calculation
 Variant of blocked Davidson
 Davidson routine will perform the subspace rotation
 perform sub-space diagonalisation
    after iterative eigenvector-optimisation
 modified Broyden-mixing scheme, WC =      100.0
 initial mixing is a Kerker type mixing with AMIX =  0.4000 and BMIX =      1.0000
 Hartree-type preconditioning will be used
 using additional bands           40
 real space projection scheme for non local part
 use partial core corrections
 calculate Harris-corrections to forces 
   (improved forces if not selfconsistent)
 use gradient corrections 
 use of overlap-Matrix (Vanderbilt PP)
 Gauss-broadening in eV      SIGMA  =   0.01


--------------------------------------------------------------------------------------------------------


  energy-cutoff  :      700.00
  volume of cell :      460.79
      direct lattice vectors                 reciprocal lattice vectors
     7.861098307 -0.000000004  0.000000009     0.127208688  0.000000000 -0.000000000
    -0.000000003  7.656108415  0.001812946     0.000000000  0.130614668 -0.000030926
     0.000000010  0.001812761  7.656108603    -0.000000000 -0.000030929  0.130614664

  length of vectors
     7.861098307  7.656108630  7.656108817     0.127208688  0.130614671  0.130614668


 
 old parameters found on file WAVECAR:
  energy-cutoff  :      700.00
  volume of cell :      438.28
      direct lattice vectors                 reciprocal lattice vectors
     7.596000000  0.000000000  0.000000000     0.131648236  0.000000000  0.000000000
     0.000000000  7.596000000  0.000000000     0.000000000  0.131648236  0.000000000
     0.000000000  0.000000000  7.596000000     0.000000000  0.000000000  0.131648236

  length of vectors

 
 k-points in units of 2pi/SCALE and weight: Title                                   
   0.01590109  0.01632297  0.01632297       0.031
   0.04770326  0.01632297  0.01632297       0.031
  -0.04770326  0.01632297  0.01632297       0.031
  -0.01590109  0.01632297  0.01632297       0.031
   0.01590109  0.04897663  0.01631524       0.031
   0.04770326  0.04897663  0.01631524       0.031
  -0.04770326  0.04897663  0.01631524       0.031
  -0.01590109  0.04897663  0.01631524       0.031
   0.01590109 -0.04898437  0.01633843       0.031
   0.04770326 -0.04898437  0.01633843       0.031
  -0.04770326 -0.04898437  0.01633843       0.031
  -0.01590109 -0.04898437  0.01633843       0.031
   0.01590109 -0.01633070  0.01633070       0.031
   0.04770326 -0.01633070  0.01633070       0.031
  -0.04770326 -0.01633070  0.01633070       0.031
  -0.01590109 -0.01633070  0.01633070       0.031
   0.01590109  0.01631524  0.04897663       0.031
   0.04770326  0.01631524  0.04897663       0.031
  -0.04770326  0.01631523  0.04897663       0.031
  -0.01590109  0.01631524  0.04897663       0.031
   0.01590109  0.04896890  0.04896890       0.031
   0.04770326  0.04896890  0.04896890       0.031
  -0.04770326  0.04896890  0.04896890       0.031
  -0.01590109  0.04896890  0.04896890       0.031
   0.01590109 -0.04899210  0.04899210       0.031
   0.04770326 -0.04899210  0.04899210       0.031
  -0.04770326 -0.04899210  0.04899210       0.031
  -0.01590109 -0.04899210  0.04899210       0.031
   0.01590109 -0.01633843  0.04898436       0.031
   0.04770326 -0.01633843  0.04898436       0.031
  -0.04770326 -0.01633843  0.04898436       0.031
  -0.01590109 -0.01633843  0.04898436       0.031
 
 k-points in reciprocal lattice and weights: Title                                   
   0.12500000  0.12500000  0.12500000       0.031
   0.37500000  0.12500000  0.12500000       0.031
  -0.37500000  0.12500000  0.12500000       0.031
  -0.12500000  0.12500000  0.12500000       0.031
   0.12500000  0.37500000  0.12500000       0.031
   0.37500000  0.37500000  0.12500000       0.031
  -0.37500000  0.37500000  0.12500000       0.031
  -0.12500000  0.37500000  0.12500000       0.031
   0.12500000 -0.37500000  0.12500000       0.031
   0.37500000 -0.37500000  0.12500000       0.031
  -0.37500000 -0.37500000  0.12500000       0.031
  -0.12500000 -0.37500000  0.12500000       0.031
   0.12500000 -0.12500000  0.12500000       0.031
   0.37500000 -0.12500000  0.12500000       0.031
  -0.37500000 -0.12500000  0.12500000       0.031
  -0.12500000 -0.12500000  0.12500000       0.031
   0.12500000  0.12500000  0.37500000       0.031
   0.37500000  0.12500000  0.37500000       0.031
  -0.37500000  0.12500000  0.37500000       0.031
  -0.12500000  0.12500000  0.37500000       0.031
   0.12500000  0.37500000  0.37500000       0.031
   0.37500000  0.37500000  0.37500000       0.031
  -0.37500000  0.37500000  0.37500000       0.031
  -0.12500000  0.37500000  0.37500000       0.031
   0.12500000 -0.37500000  0.37500000       0.031
   0.37500000 -0.37500000  0.37500000       0.031
  -0.37500000 -0.37500000  0.37500000       0.031
  -0.12500000 -0.37500000  0.37500000       0.031
   0.12500000 -0.12500000  0.37500000       0.031
   0.37500000 -0.12500000  0.37500000       0.031
  -0.37500000 -0.12500000  0.37500000       0.031
  -0.12500000 -0.12500000  0.37500000       0.031
 
 position of ions in fractional coordinates (direct lattice) 
   0.00000000  0.98859475  0.98859476
   1.00000000  0.98799094  0.51132221
   1.00000000  0.51132221  0.98799094
   0.00000000  0.51193893  0.51193892
   0.50000000  0.98783528  0.98783529
   0.50000000  0.01271357  0.51206036
   0.50000000  0.51206037  0.01271357
   0.50000000  0.48741407  0.48741408
   0.00000000  0.75000458  0.00656715
   0.00000000  0.75002105  0.49339740
   0.49999999  0.25002506  0.50035952
   0.50000000  0.74998342  0.99962250
   0.00000000  0.00656716  0.75000459
   1.00000000  0.49339739  0.75002105
   0.50000000  0.99962249  0.74998342
   0.50000000  0.50035951  0.25002507
   0.25000921  0.00651481  0.00651482
   0.25002883  0.99936983  0.49341664
   0.25002883  0.49341668  0.99936981
   0.25004236  0.50059717  0.50059720
   0.74999080  0.00651479  0.00651482
   0.74997117  0.99936983  0.49341664
   0.74997117  0.49341669  0.99936981
   0.74995764  0.50059717  0.50059720
   0.99999998  0.25006695  0.00901884
   0.00000001  0.25008499  0.49117586
   0.50000002  0.25005190  0.99961251
   0.49999999  0.74992977  0.50041140
   1.00000000  0.00901885  0.25006694
   0.00000000  0.49117586  0.25008500
   0.50000000  0.99961251  0.25005190
   0.50000000  0.50041141  0.74992978
 
 position of ions in cartesian coordinates  (Angst):
   0.00000003  7.57058064  7.57058113
   7.86109829  7.56509267  3.91652958
   7.86109831  3.91652927  7.56509292
   0.00000000  3.92038797  3.92038808
   3.93054919  7.56476471  7.56476513
   3.93054913  0.09826470  3.92041279
   3.93054915  3.92041276  0.09826480
   3.93054915  3.73257853  3.73257878
   0.00000002  5.74212831  0.05163852
   0.00000002  5.74313690  3.77886386
   3.93054910  1.91512600  3.83126014
   3.93054916  5.74376646  7.65457813
   0.00000002  0.05163847  5.74212847
   7.86109831  3.77886355  5.74313710
   3.93054915  7.65457767  5.74376676
   3.93054915  3.83125992  1.91512619
   1.96534696  0.04988986  0.04988998
   1.96550119  7.65217818  3.77946320
   1.96550123  3.77946319  7.65217836
   1.96560754  3.83353367  3.83353410
   5.89575140  0.04988974  0.04988997
   5.89559708  7.65217819  3.77946322
   5.89559710  3.77946331  7.65217837
   5.89549077  3.83353365  3.83353410
   7.86109816  1.91455605  0.06950261
   0.00000006  1.91556818  3.76094908
   3.93054934  1.91623653  7.65359528
   3.93054908  5.74245077  3.83256357
   7.86109830  0.06950258  1.91455605
   0.00000001  3.76094895  1.91556837
   3.93054916  7.65359506  1.91623676
   3.93054916  3.83256344  5.74245104
 


--------------------------------------------------------------------------------------------------------


 k-point  1 :   0.1250 0.1250 0.1250  plane waves:   19401
 k-point  2 :   0.3750 0.1250 0.1250  plane waves:   19405
 k-point  3 :  -0.3750 0.1250 0.1250  plane waves:   19405
 k-point  4 :  -0.1250 0.1250 0.1250  plane waves:   19401
 k-point  5 :   0.1250 0.3750 0.1250  plane waves:   19368
 k-point  6 :   0.3750 0.3750 0.1250  plane waves:   19380
 k-point  7 :  -0.3750 0.3750 0.1250  plane waves:   19380
 k-point  8 :  -0.1250 0.3750 0.1250  plane waves:   19368
 k-point  9 :   0.1250-0.3750 0.1250  plane waves:   19371
 k-point 10 :   0.3750-0.3750 0.1250  plane waves:   19378
 k-point 11 :  -0.3750-0.3750 0.1250  plane waves:   19378
 k-point 12 :  -0.1250-0.3750 0.1250  plane waves:   19371
 k-point 13 :   0.1250-0.1250 0.1250  plane waves:   19401
 k-point 14 :   0.3750-0.1250 0.1250  plane waves:   19405
 k-point 15 :  -0.3750-0.1250 0.1250  plane waves:   19405
 k-point 16 :  -0.1250-0.1250 0.1250  plane waves:   19401
 k-point 17 :   0.1250 0.1250 0.3750  plane waves:   19368
 k-point 18 :   0.3750 0.1250 0.3750  plane waves:   19380
 k-point 19 :  -0.3750 0.1250 0.3750  plane waves:   19380
 k-point 20 :  -0.1250 0.1250 0.3750  plane waves:   19368
 k-point 21 :   0.1250 0.3750 0.3750  plane waves:   19369
 k-point 22 :   0.3750 0.3750 0.3750  plane waves:   19375
 k-point 23 :  -0.3750 0.3750 0.3750  plane waves:   19375
 k-point 24 :  -0.1250 0.3750 0.3750  plane waves:   19369
 k-point 25 :   0.1250-0.3750 0.3750  plane waves:   19367
 k-point 26 :   0.3750-0.3750 0.3750  plane waves:   19380
 k-point 27 :  -0.3750-0.3750 0.3750  plane waves:   19380
 k-point 28 :  -0.1250-0.3750 0.3750  plane waves:   19367
 k-point 29 :   0.1250-0.1250 0.3750  plane waves:   19371
 k-point 30 :   0.3750-0.1250 0.3750  plane waves:   19378
 k-point 31 :  -0.3750-0.1250 0.3750  plane waves:   19378
 k-point 32 :  -0.1250-0.1250 0.3750  plane waves:   19371

 maximum and minimum number of plane-waves per node :      2452     2392

 maximum number of plane-waves:     19405
 maximum index in each direction: 
   IXMAX=   17   IYMAX=   16   IZMAX=   16
   IXMIN=  -17   IYMIN=  -16   IZMIN=  -16


 real space projection operators:
  total allocation   :      18575.94 KBytes
  max/ min on nodes  :       2482.59       1929.25


 parallel 3D FFT for wavefunctions:
    minimum data exchange during FFTs selected (reduces bandwidth)
 parallel 3D FFT for charge:
    minimum data exchange during FFTs selected (reduces bandwidth)


 total amount of memory used by VASP MPI-rank0   107211. kBytes
=======================================================================

   base      :      30000. kBytes
   nonlr-proj:       8600. kBytes
   fftplans  :       8423. kBytes
   grid      :       8783. kBytes
   one-center:        124. kBytes
   wavefun   :      51281. kBytes
 
     INWAV:  cpu time   29.4345: real time   33.1925
 Broyden mixing: mesh for mixing (old mesh)
   NGX = 33   NGY = 33   NGZ = 33
  (NGX  =140   NGY  =140   NGZ  =140)
  gives a total of  35937 points

 charge density for first step will be calculated from the start-wavefunctions


--------------------------------------------------------------------------------------------------------


 Maximum index for non-local projection operator         1381
 Maximum index for augmentation-charges         7184 (set IRDMAX)


--------------------------------------------------------------------------------------------------------


 initial charge from wavefunction
 First call to EWALD:  gamma=   0.229
 Maximum number of real-space cells 3x 3x 3
 Maximum number of reciprocal cells 3x 3x 3

    FEWALD:  cpu time    0.0030: real time    0.0033


--------------------------------------- Iteration      1(   1)  ---------------------------------------


    POTLOK:  cpu time    0.1450: real time    0.1806
    SETDIJ:  cpu time    0.8349: real time    0.8418
     EDDAV:  cpu time   28.2327: real time   28.2964
       DOS:  cpu time    0.0040: real time    0.0035
    CHARGE:  cpu time    1.1628: real time    1.1617
    MIXING:  cpu time    0.0020: real time    0.0020
    --------------------------------------------
      LOOP:  cpu time   30.3814: real time   30.4860

 eigenvalue-minimisations  : 20480
 total energy-change (2. order) :-0.2135969E+03  (-0.6555777E-01)
 number of electron     240.0000004 magnetization       0.0000000
 augmentation part       61.9541760 magnetization      -0.0000000

 Broyden mixing:
  rms(total) = 0.69009E-02    rms(broyden)= 0.64438E-02
  rms(prec ) = 0.67943E-02
  weight for this iteration     100.00

 Free energy of the ion-electron system (eV)
  ---------------------------------------------------
  alpha Z        PSCENC =       759.93201422
  Ewald energy   TEWEN  =    -12819.83764607
  -Hartree energ DENC   =     -8223.80589714
  -exchange      EXHF   =         0.00000000
  -V(xc)+E(xc)   XCENC  =      1119.91187632
  PAW double counting   =     18022.72585476   -18146.41980149
  entropy T*S    EENTRO =        -0.00000000
  eigenvalues    EBANDS =     -3228.45646975
  atomic energy  EATOM  =     22302.35321627
  Solvation  Ediel_sol  =         0.00000000
  ---------------------------------------------------
  free energy    TOTEN  =      -213.59685289 eV

  energy without entropy =     -213.59685289  energy(sigma->0) =     -213.59685289


--------------------------------------------------------------------------------------------------------




--------------------------------------- Iteration      1(   2)  ---------------------------------------


    POTLOK:  cpu time    0.1460: real time    0.1561
    SETDIJ:  cpu time    0.8429: real time    0.8420
     EDDAV:  cpu time   28.0507: real time   28.0435
       DOS:  cpu time    0.0030: real time    0.0037
    CHARGE:  cpu time    1.1598: real time    1.1570
    MIXING:  cpu time    0.0020: real time    0.0021
    --------------------------------------------
      LOOP:  cpu time   30.2044: real time   30.2044

 eigenvalue-minimisations  : 20288
 total energy-change (2. order) :-0.8317356E-04  (-0.2660479E-05)
 number of electron     240.0000004 magnetization      -0.0000000
 augmentation part       61.9550272 magnetization      -0.0000000

 Broyden mixing:
  rms(total) = 0.38480E-02    rms(broyden)= 0.38166E-02
  rms(prec ) = 0.40129E-02
  weight for this iteration     100.00

 eigenvalues of (default mixing * dielectric matrix)
  average eigenvalue GAMMA=   2.2953
  2.2953

 Free energy of the ion-electron system (eV)
  ---------------------------------------------------
  alpha Z        PSCENC =       759.93201422
  Ewald energy   TEWEN  =    -12819.83764607
  -Hartree energ DENC   =     -8223.73504787
  -exchange      EXHF   =         0.00000000
  -V(xc)+E(xc)   XCENC  =      1119.90777703
  PAW double counting   =     18023.37611250   -18147.05594790
  entropy T*S    EENTRO =        -0.00000000
  eigenvalues    EBANDS =     -3228.53741423
  atomic energy  EATOM  =     22302.35321627
  Solvation  Ediel_sol  =         0.00000000
  ---------------------------------------------------
  free energy    TOTEN  =      -213.59693606 eV

  energy without entropy =     -213.59693606  energy(sigma->0) =     -213.59693606


--------------------------------------------------------------------------------------------------------




--------------------------------------- Iteration      1(   3)  ---------------------------------------


    POTLOK:  cpu time    0.1640: real time    0.1742
    SETDIJ:  cpu time    0.8449: real time    0.8447
     EDDAV:  cpu time   27.6088: real time   27.6171
       DOS:  cpu time    0.0030: real time    0.0036
    CHARGE:  cpu time    1.1578: real time    1.1562
    MIXING:  cpu time    0.0030: real time    0.0020
    --------------------------------------------
      LOOP:  cpu time   29.7815: real time   29.7978

 eigenvalue-minimisations  : 19840
 total energy-change (2. order) :-0.9138678E-04  (-0.1708146E-05)
 number of electron     240.0000004 magnetization       0.0000000
 augmentation part       61.9554530 magnetization      -0.0000000

 Broyden mixing:
  rms(total) = 0.57457E-03    rms(broyden)= 0.56546E-03
  rms(prec ) = 0.67595E-03
  weight for this iteration     100.00

 eigenvalues of (default mixing * dielectric matrix)
  average eigenvalue GAMMA=   1.7238
  0.9701  2.4775

 Free energy of the ion-electron system (eV)
  ---------------------------------------------------
  alpha Z        PSCENC =       759.93201422
  Ewald energy   TEWEN  =    -12819.83764607
  -Hartree energ DENC   =     -8223.76647332
  -exchange      EXHF   =         0.00000000
  -V(xc)+E(xc)   XCENC  =      1119.91027197
  PAW double counting   =     18024.30033335   -18147.96702878
  entropy T*S    EENTRO =        -0.00000000
  eigenvalues    EBANDS =     -3228.52171508
  atomic energy  EATOM  =     22302.35321627
  Solvation  Ediel_sol  =         0.00000000
  ---------------------------------------------------
  free energy    TOTEN  =      -213.59702745 eV

  energy without entropy =     -213.59702745  energy(sigma->0) =     -213.59702745


--------------------------------------------------------------------------------------------------------




--------------------------------------- Iteration      1(   4)  ---------------------------------------


    POTLOK:  cpu time    0.2240: real time    0.2502
    SETDIJ:  cpu time    0.8459: real time    0.8440
     EDDAV:  cpu time   19.5050: real time   19.4930
       DOS:  cpu time    0.0030: real time    0.0035
    CHARGE:  cpu time    1.1928: real time    1.1896
    MIXING:  cpu time    0.0020: real time    0.0020
    --------------------------------------------
      LOOP:  cpu time   21.7727: real time   21.7823

 eigenvalue-minimisations  : 11584
 total energy-change (2. order) :-0.1788314E-05  (-0.9053974E-07)
 number of electron     240.0000004 magnetization       0.0000000
 augmentation part       61.9552280 magnetization       0.0000000

 Broyden mixing:
  rms(total) = 0.18936E-03    rms(broyden)= 0.18782E-03
  rms(prec ) = 0.26711E-03
  weight for this iteration     100.00

 eigenvalues of (default mixing * dielectric matrix)
  average eigenvalue GAMMA=   1.4323
  2.4992  1.1277  0.6700

 Free energy of the ion-electron system (eV)
  ---------------------------------------------------
  alpha Z        PSCENC =       759.93201422
  Ewald energy   TEWEN  =    -12819.83764607
  -Hartree energ DENC   =     -8223.78662404
  -exchange      EXHF   =         0.00000000
  -V(xc)+E(xc)   XCENC  =      1119.91125619
  PAW double counting   =     18024.36099126   -18148.02608754
  entropy T*S    EENTRO =        -0.00000000
  eigenvalues    EBANDS =     -3228.50414952
  atomic energy  EATOM  =     22302.35321627
  Solvation  Ediel_sol  =         0.00000000
  ---------------------------------------------------
  free energy    TOTEN  =      -213.59702924 eV

  energy without entropy =     -213.59702924  energy(sigma->0) =     -213.59702924


--------------------------------------------------------------------------------------------------------




--------------------------------------- Iteration      1(   5)  ---------------------------------------


    POTLOK:  cpu time    0.3190: real time    0.3315
    SETDIJ:  cpu time    0.8599: real time    0.8577
     EDDAV:  cpu time   18.7282: real time   18.7080
       DOS:  cpu time    0.0030: real time    0.0034
    --------------------------------------------
      LOOP:  cpu time   19.9100: real time   19.9006

 eigenvalue-minimisations  : 10944
 total energy-change (2. order) :-0.6224946E-07  (-0.3299587E-07)
 number of electron     240.0000004 magnetization       0.0000000
 augmentation part       61.9552280 magnetization       0.0000000

 Free energy of the ion-electron system (eV)
  ---------------------------------------------------
  alpha Z        PSCENC =       759.93201422
  Ewald energy   TEWEN  =    -12819.83764607
  -Hartree energ DENC   =     -8223.79279191
  -exchange      EXHF   =         0.00000000
  -V(xc)+E(xc)   XCENC  =      1119.91165866
  PAW double counting   =     18024.33411049   -18147.99931940
  entropy T*S    EENTRO =        -0.00000000
  eigenvalues    EBANDS =     -3228.49827155
  atomic energy  EATOM  =     22302.35321627
  Solvation  Ediel_sol  =         0.00000000
  ---------------------------------------------------
  free energy    TOTEN  =      -213.59702930 eV

  energy without entropy =     -213.59702930  energy(sigma->0) =     -213.59702930


--------------------------------------------------------------------------------------------------------




 average (electrostatic) potential at core
  the test charge radii are     1.0397  0.7215  0.7167
  (the norm of the test charge is              1.0000)
       1 -58.9432       2 -58.9342       3 -58.9342       4 -58.9248       5 -58.8869
       6 -58.8777       7 -58.8777       8 -58.8688       9 -74.1206      10 -74.1250
      11 -74.1295      12 -74.1228      13 -74.1206      14 -74.1250      15 -74.1228
      16 -74.1295      17 -79.2727      18 -79.2908      19 -79.2908      20 -79.3093
      21 -79.2727      22 -79.2908      23 -79.2908      24 -79.3093      25 -78.6392
      26 -78.6544      27 -78.6811      28 -78.6923      29 -78.6392      30 -78.6544
      31 -78.6811      32 -78.6923
 
 
 
 E-fermi :  -0.5327     XC(G=0):  -8.9892     alpha+bet : -7.6685


 spin component 1

 k-point     1 :       0.1250    0.1250    0.1250
  band No.  band energies     occupation 
      1     -34.9690      1.00000
      2     -34.9639      1.00000
      3     -34.9639      1.00000
      4     -34.9588      1.00000
      5     -34.8702      1.00000
      6     -34.8644      1.00000
      7     -34.8643      1.00000
      8     -34.8587      1.00000
      9     -34.8274      1.00000
     10     -34.8123      1.00000
     11     -34.8119      1.00000
     12     -34.8002      1.00000
     13     -34.7831      1.00000
     14     -34.7745      1.00000
     15     -34.7738      1.00000
     16     -34.7562      1.00000
     17     -34.7370      1.00000
     18     -34.7248      1.00000
     19     -34.7241      1.00000
     20     -34.7089      1.00000
     21     -34.6999      1.00000
     22     -34.6788      1.00000
     23     -34.6781      1.00000
     24     -34.6659      1.00000
     25     -23.1901      1.00000
     26     -23.1484      1.00000
     27     -23.1449      1.00000
     28     -23.1048      1.00000
     29     -22.7459      1.00000
     30     -22.7274      1.00000
     31     -22.7262      1.00000
     32     -22.7079      1.00000
     33     -22.4756      1.00000
     34     -22.4288      1.00000
     35     -22.3554      1.00000
     36     -22.3544      1.00000
     37     -22.3098      1.00000
     38     -22.3098      1.00000
     39     -22.2523      1.00000
     40     -22.1857      1.00000
     41     -16.7565      1.00000
     42     -16.7519      1.00000
     43     -16.6142      1.00000
     44     -16.6139      1.00000
     45     -16.5989      1.00000
     46     -16.5981      1.00000
     47     -16.4841      1.00000
     48     -16.4585      1.00000
     49      -6.7776      1.00000
     50      -6.7441      1.00000
     51      -6.7304      1.00000
     52      -6.6862      1.00000
     53      -6.0794      1.00000
     54      -6.0026      1.00000
     55      -5.9565      1.00000
     56      -5.9511      1.00000
     57      -5.9110      1.00000
     58      -5.8930      1.00000
     59      -5.8651      1.00000
     60      -5.7067      1.00000
     61      -5.5948      1.00000
     62      -5.4402      1.00000
     63      -5.4344      1.00000
     64      -5.3021      1.00000
     65      -5.2958      1.00000
     66      -5.2488      1.00000
     67      -5.2429      1.00000
     68      -5.1995      1.00000
     69      -4.9561      1.00000
     70      -4.8384      1.00000
     71      -4.4650      1.00000
     72      -4.4369      1.00000
     73      -4.4100      1.00000
     74      -4.3989      1.00000
     75      -4.3966      1.00000
     76      -4.3863      1.00000
     77      -4.3790      1.00000
     78      -4.3409      1.00000
     79      -4.2762      1.00000
     80      -4.2756      1.00000
     81      -4.2477      1.00000
     82      -4.2271      1.00000
     83      -3.9161      1.00000
     84      -3.8556      1.00000
     85      -3.7998      1.00000
     86      -3.7734      1.00000
     87      -3.7304      1.00000
     88      -3.6121      1.00000
     89      -3.5130      1.00000
     90      -3.4879      1.00000
     91      -3.4631      1.00000
     92      -3.3396      1.00000
     93      -3.3183      1.00000
     94      -3.3135      1.00000
     95      -3.2476      1.00000
     96      -3.1143      1.00000
     97      -3.1123      1.00000
     98      -3.0816      1.00000
     99      -3.0648      1.00000
    100      -3.0583      1.00000
    101      -3.0139      1.00000
    102      -2.9322      1.00000
    103      -2.8856      1.00000
    104      -2.7011      1.00000
    105      -2.6199      1.00000
    106      -2.4242      1.00000
    107      -2.2934      1.00000
    108      -2.2204      1.00000
    109      -2.2182      1.00000
    110      -2.1930      1.00000
    111      -2.1900      1.00000
    112      -2.0622      1.00000
    113      -2.0382      1.00000
    114      -1.9541      1.00000
    115      -1.8625      1.00000
    116      -1.7203      1.00000
    117      -1.6867      1.00000
    118      -1.5887      1.00000
    119      -0.8632      1.00000
    120      -0.5833      1.00000
    121       1.9430      0.00000
    122       1.9533      0.00000
    123       1.9592      0.00000
    124       1.9722      0.00000
    125       2.0280      0.00000
    126       2.1106      0.00000
    127       2.6457      0.00000
    128       2.6747      0.00000
    129       2.6973      0.00000
    130       2.7198      0.00000
    131       3.0139      0.00000
    132       3.1191      0.00000
    133       3.1237      0.00000
    134       3.3023      0.00000
    135       3.3613      0.00000
    136       3.3940      0.00000
    137       3.4021      0.00000
    138       3.4709      0.00000
    139       3.4770      0.00000
    140       3.4964      0.00000
    141       3.5292      0.00000
    142       3.5487      0.00000
    143       3.6949      0.00000
    144       3.7103      0.00000
    145       3.8057      0.00000
    146       3.8372      0.00000
    147       3.8748      0.00000
    148       3.8870      0.00000
    149       4.0912      0.00000
    150       4.1940      0.00000
    151       4.2215      0.00000
    152       4.2912      0.00000
    153       4.6771      0.00000
    154       5.2683      0.00000
    155       5.2850      0.00000
    156       5.9126      0.00000
    157       6.0413      0.00000
    158       6.2382      0.00000
    159       6.2618      0.00000
    160       6.7774      0.00000

 k-point     2 :       0.3750    0.1250    0.1250
  band No.  band energies     occupation 
      1     -34.9489      1.00000
      2     -34.9436      1.00000
      3     -34.9436      1.00000
      4     -34.9382      1.00000
      5     -34.8911      1.00000
      6     -34.8855      1.00000
      7     -34.8854      1.00000
      8     -34.8800      1.00000
      9     -34.8273      1.00000
     10     -34.8122      1.00000
     11     -34.8118      1.00000
     12     -34.8002      1.00000
     13     -34.7831      1.00000
     14     -34.7745      1.00000
     15     -34.7738      1.00000
     16     -34.7562      1.00000
     17     -34.7370      1.00000
     18     -34.7248      1.00000
     19     -34.7241      1.00000
     20     -34.7088      1.00000
     21     -34.6999      1.00000
     22     -34.6788      1.00000
     23     -34.6781      1.00000
     24     -34.6659      1.00000
     25     -23.0693      1.00000
     26     -23.0310      1.00000
     27     -23.0276      1.00000
     28     -22.9916      1.00000
     29     -22.8883      1.00000
     30     -22.8581      1.00000
     31     -22.8554      1.00000
     32     -22.8277      1.00000
     33     -22.4499      1.00000
     34     -22.4341      1.00000
     35     -22.3493      1.00000
     36     -22.3486      1.00000
     37     -22.3085      1.00000
     38     -22.3082      1.00000
     39     -22.2523      1.00000
     40     -22.1857      1.00000
     41     -16.7557      1.00000
     42     -16.7517      1.00000
     43     -16.6136      1.00000
     44     -16.6136      1.00000
     45     -16.5988      1.00000
     46     -16.5986      1.00000
     47     -16.4838      1.00000
     48     -16.4593      1.00000
     49      -6.4106      1.00000
     50      -6.3936      1.00000
     51      -6.3790      1.00000
     52      -6.3688      1.00000
     53      -6.1050      1.00000
     54      -5.9939      1.00000
     55      -5.9831      1.00000
     56      -5.9665      1.00000
     57      -5.9125      1.00000
     58      -5.9073      1.00000
     59      -5.8981      1.00000
     60      -5.8737      1.00000
     61      -5.7756      1.00000
     62      -5.7748      1.00000
     63      -5.7096      1.00000
     64      -5.6837      1.00000
     65      -5.1240      1.00000
     66      -5.1216      1.00000
     67      -5.0554      1.00000
     68      -5.0392      1.00000
     69      -4.9511      1.00000
     70      -4.8523      1.00000
     71      -4.7628      1.00000
     72      -4.7608      1.00000
     73      -4.6808      1.00000
     74      -4.6418      1.00000
     75      -4.4315      1.00000
     76      -4.4296      1.00000
     77      -4.4004      1.00000
     78      -4.3460      1.00000
     79      -4.3453      1.00000
     80      -4.3115      1.00000
     81      -4.2884      1.00000
     82      -4.2659      1.00000
     83      -3.8746      1.00000
     84      -3.8605      1.00000
     85      -3.7916      1.00000
     86      -3.7881      1.00000
     87      -3.5215      1.00000
     88      -3.5162      1.00000
     89      -3.4030      1.00000
     90      -3.3831      1.00000
     91      -3.3180      1.00000
     92      -3.3002      1.00000
     93      -3.2782      1.00000
     94      -3.2432      1.00000
     95      -3.2428      1.00000
     96      -3.2161      1.00000
     97      -3.1727      1.00000
     98      -3.1274      1.00000
     99      -3.1159      1.00000
    100      -3.0908      1.00000
    101      -3.0679      1.00000
    102      -2.9525      1.00000
    103      -2.8962      1.00000
    104      -2.7040      1.00000
    105      -2.6240      1.00000
    106      -2.2945      1.00000
    107      -2.2448      1.00000
    108      -2.2050      1.00000
    109      -2.1887      1.00000
    110      -2.1226      1.00000
    111      -2.0412      1.00000
    112      -2.0409      1.00000
    113      -1.9819      1.00000
    114      -1.9535      1.00000
    115      -1.9497      1.00000
    116      -1.8639      1.00000
    117      -1.8044      1.00000
    118      -1.7368      1.00000
    119      -0.8626      1.00000
    120      -0.5837      1.00000
    121       1.9570      0.00000
    122       2.1084      0.00000
    123       2.1543      0.00000
    124       2.1590      0.00000
    125       2.1786      0.00000
    126       2.2015      0.00000
    127       2.4363      0.00000
    128       2.4584      0.00000
    129       2.4854      0.00000
    130       2.5048      0.00000
    131       3.2413      0.00000
    132       3.2686      0.00000
    133       3.3510      0.00000
    134       3.3772      0.00000
    135       3.4024      0.00000
    136       3.4136      0.00000
    137       3.4657      0.00000
    138       3.4946      0.00000
    139       3.5539      0.00000
    140       3.5693      0.00000
    141       3.5881      0.00000
    142       3.6748      0.00000
    143       3.7141      0.00000
    144       3.7266      0.00000
    145       3.7778      0.00000
    146       3.7906      0.00000
    147       3.8630      0.00000
    148       4.0518      0.00000
    149       4.0729      0.00000
    150       4.1170      0.00000
    151       4.2433      0.00000
    152       4.3506      0.00000
    153       4.5822      0.00000
    154       5.3659      0.00000
    155       5.4813      0.00000
    156       5.4972      0.00000
    157       5.8972      0.00000
    158       5.9049      0.00000
    159       6.4750      0.00000
    160       6.7775      0.00000

 k-point     3 :      -0.3750    0.1250    0.1250
  band No.  band energies     occupation 
      1     -34.9489      1.00000
      2     -34.9436      1.00000
      3     -34.9436      1.00000
      4     -34.9382      1.00000
      5     -34.8911      1.00000
      6     -34.8855      1.00000
      7     -34.8854      1.00000
      8     -34.8800      1.00000
      9     -34.8273      1.00000
     10     -34.8122      1.00000
     11     -34.8118      1.00000
     12     -34.8002      1.00000
     13     -34.7831      1.00000
     14     -34.7745      1.00000
     15     -34.7738      1.00000
     16     -34.7562      1.00000
     17     -34.7370      1.00000
     18     -34.7248      1.00000
     19     -34.7241      1.00000
     20     -34.7088      1.00000
     21     -34.6999      1.00000
     22     -34.6788      1.00000
     23     -34.6781      1.00000
     24     -34.6659      1.00000
     25     -23.0693      1.00000
     26     -23.0310      1.00000
     27     -23.0276      1.00000
     28     -22.9916      1.00000
     29     -22.8883      1.00000
     30     -22.8581      1.00000
     31     -22.8554      1.00000
     32     -22.8277      1.00000
     33     -22.4499      1.00000
     34     -22.4341      1.00000
     35     -22.3493      1.00000
     36     -22.3486      1.00000
     37     -22.3085      1.00000
     38     -22.3082      1.00000
     39     -22.2523      1.00000
     40     -22.1857      1.00000
     41     -16.7557      1.00000
     42     -16.7517      1.00000
     43     -16.6136      1.00000
     44     -16.6136      1.00000
     45     -16.5988      1.00000
     46     -16.5986      1.00000
     47     -16.4838      1.00000
     48     -16.4593      1.00000
     49      -6.4106      1.00000
     50      -6.3936      1.00000
     51      -6.3790      1.00000
     52      -6.3688      1.00000
     53      -6.1050      1.00000
     54      -5.9939      1.00000
     55      -5.9831      1.00000
     56      -5.9665      1.00000
     57      -5.9125      1.00000
     58      -5.9073      1.00000
     59      -5.8981      1.00000
     60      -5.8737      1.00000
     61      -5.7756      1.00000
     62      -5.7748      1.00000
     63      -5.7096      1.00000
     64      -5.6837      1.00000
     65      -5.1240      1.00000
     66      -5.1216      1.00000
     67      -5.0554      1.00000
     68      -5.0392      1.00000
     69      -4.9511      1.00000
     70      -4.8523      1.00000
     71      -4.7628      1.00000
     72      -4.7608      1.00000
     73      -4.6808      1.00000
     74      -4.6418      1.00000
     75      -4.4315      1.00000
     76      -4.4296      1.00000
     77      -4.4004      1.00000
     78      -4.3460      1.00000
     79      -4.3453      1.00000
     80      -4.3115      1.00000
     81      -4.2884      1.00000
     82      -4.2659      1.00000
     83      -3.8746      1.00000
     84      -3.8605      1.00000
     85      -3.7916      1.00000
     86      -3.7881      1.00000
     87      -3.5215      1.00000
     88      -3.5162      1.00000
     89      -3.4030      1.00000
     90      -3.3831      1.00000
     91      -3.3180      1.00000
     92      -3.3002      1.00000
     93      -3.2782      1.00000
     94      -3.2432      1.00000
     95      -3.2428      1.00000
     96      -3.2161      1.00000
     97      -3.1727      1.00000
     98      -3.1274      1.00000
     99      -3.1159      1.00000
    100      -3.0908      1.00000
    101      -3.0679      1.00000
    102      -2.9525      1.00000
    103      -2.8962      1.00000
    104      -2.7040      1.00000
    105      -2.6240      1.00000
    106      -2.2945      1.00000
    107      -2.2448      1.00000
    108      -2.2050      1.00000
    109      -2.1887      1.00000
    110      -2.1226      1.00000
    111      -2.0412      1.00000
    112      -2.0409      1.00000
    113      -1.9819      1.00000
    114      -1.9535      1.00000
    115      -1.9497      1.00000
    116      -1.8639      1.00000
    117      -1.8044      1.00000
    118      -1.7368      1.00000
    119      -0.8626      1.00000
    120      -0.5837      1.00000
    121       1.9570      0.00000
    122       2.1084      0.00000
    123       2.1543      0.00000
    124       2.1590      0.00000
    125       2.1786      0.00000
    126       2.2015      0.00000
    127       2.4363      0.00000
    128       2.4584      0.00000
    129       2.4854      0.00000
    130       2.5048      0.00000
    131       3.2413      0.00000
    132       3.2686      0.00000
    133       3.3510      0.00000
    134       3.3772      0.00000
    135       3.4024      0.00000
    136       3.4136      0.00000
    137       3.4657      0.00000
    138       3.4946      0.00000
    139       3.5539      0.00000
    140       3.5693      0.00000
    141       3.5881      0.00000
    142       3.6748      0.00000
    143       3.7141      0.00000
    144       3.7266      0.00000
    145       3.7778      0.00000
    146       3.7906      0.00000
    147       3.8630      0.00000
    148       4.0518      0.00000
    149       4.0729      0.00000
    150       4.1170      0.00000
    151       4.2433      0.00000
    152       4.3506      0.00000
    153       4.5822      0.00000
    154       5.3659      0.00000
    155       5.4813      0.00000
    156       5.4972      0.00000
    157       5.8972      0.00000
    158       5.9049      0.00000
    159       6.4750      0.00000
    160       6.7775      0.00000

 k-point     4 :      -0.1250    0.1250    0.1250
  band No.  band energies     occupation 
      1     -34.9690      1.00000
      2     -34.9639      1.00000
      3     -34.9639      1.00000
      4     -34.9588      1.00000
      5     -34.8702      1.00000
      6     -34.8644      1.00000
      7     -34.8643      1.00000
      8     -34.8587      1.00000
      9     -34.8274      1.00000
     10     -34.8123      1.00000
     11     -34.8119      1.00000
     12     -34.8002      1.00000
     13     -34.7831      1.00000
     14     -34.7745      1.00000
     15     -34.7738      1.00000
     16     -34.7562      1.00000
     17     -34.7370      1.00000
     18     -34.7248      1.00000
     19     -34.7241      1.00000
     20     -34.7089      1.00000
     21     -34.6999      1.00000
     22     -34.6788      1.00000
     23     -34.6781      1.00000
     24     -34.6659      1.00000
     25     -23.1901      1.00000
     26     -23.1484      1.00000
     27     -23.1449      1.00000
     28     -23.1048      1.00000
     29     -22.7459      1.00000
     30     -22.7274      1.00000
     31     -22.7262      1.00000
     32     -22.7079      1.00000
     33     -22.4756      1.00000
     34     -22.4288      1.00000
     35     -22.3554      1.00000
     36     -22.3544      1.00000
     37     -22.3098      1.00000
     38     -22.3098      1.00000
     39     -22.2523      1.00000
     40     -22.1857      1.00000
     41     -16.7565      1.00000
     42     -16.7519      1.00000
     43     -16.6142      1.00000
     44     -16.6139      1.00000
     45     -16.5989      1.00000
     46     -16.5981      1.00000
     47     -16.4841      1.00000
     48     -16.4585      1.00000
     49      -6.7776      1.00000
     50      -6.7441      1.00000
     51      -6.7304      1.00000
     52      -6.6862      1.00000
     53      -6.0794      1.00000
     54      -6.0026      1.00000
     55      -5.9565      1.00000
     56      -5.9511      1.00000
     57      -5.9110      1.00000
     58      -5.8930      1.00000
     59      -5.8651      1.00000
     60      -5.7067      1.00000
     61      -5.5948      1.00000
     62      -5.4402      1.00000
     63      -5.4344      1.00000
     64      -5.3021      1.00000
     65      -5.2958      1.00000
     66      -5.2488      1.00000
     67      -5.2429      1.00000
     68      -5.1995      1.00000
     69      -4.9561      1.00000
     70      -4.8384      1.00000
     71      -4.4650      1.00000
     72      -4.4369      1.00000
     73      -4.4100      1.00000
     74      -4.3989      1.00000
     75      -4.3966      1.00000
     76      -4.3863      1.00000
     77      -4.3790      1.00000
     78      -4.3409      1.00000
     79      -4.2762      1.00000
     80      -4.2756      1.00000
     81      -4.2477      1.00000
     82      -4.2271      1.00000
     83      -3.9161      1.00000
     84      -3.8556      1.00000
     85      -3.7998      1.00000
     86      -3.7734      1.00000
     87      -3.7304      1.00000
     88      -3.6121      1.00000
     89      -3.5130      1.00000
     90      -3.4879      1.00000
     91      -3.4631      1.00000
     92      -3.3396      1.00000
     93      -3.3183      1.00000
     94      -3.3135      1.00000
     95      -3.2476      1.00000
     96      -3.1143      1.00000
     97      -3.1123      1.00000
     98      -3.0816      1.00000
     99      -3.0648      1.00000
    100      -3.0583      1.00000
    101      -3.0139      1.00000
    102      -2.9322      1.00000
    103      -2.8856      1.00000
    104      -2.7011      1.00000
    105      -2.6199      1.00000
    106      -2.4242      1.00000
    107      -2.2934      1.00000
    108      -2.2204      1.00000
    109      -2.2182      1.00000
    110      -2.1930      1.00000
    111      -2.1900      1.00000
    112      -2.0622      1.00000
    113      -2.0382      1.00000
    114      -1.9541      1.00000
    115      -1.8625      1.00000
    116      -1.7203      1.00000
    117      -1.6867      1.00000
    118      -1.5887      1.00000
    119      -0.8632      1.00000
    120      -0.5833      1.00000
    121       1.9430      0.00000
    122       1.9533      0.00000
    123       1.9592      0.00000
    124       1.9722      0.00000
    125       2.0280      0.00000
    126       2.1106      0.00000
    127       2.6457      0.00000
    128       2.6747      0.00000
    129       2.6973      0.00000
    130       2.7198      0.00000
    131       3.0139      0.00000
    132       3.1191      0.00000
    133       3.1237      0.00000
    134       3.3023      0.00000
    135       3.3613      0.00000
    136       3.3940      0.00000
    137       3.4021      0.00000
    138       3.4709      0.00000
    139       3.4770      0.00000
    140       3.4964      0.00000
    141       3.5292      0.00000
    142       3.5487      0.00000
    143       3.6949      0.00000
    144       3.7103      0.00000
    145       3.8057      0.00000
    146       3.8372      0.00000
    147       3.8748      0.00000
    148       3.8870      0.00000
    149       4.0912      0.00000
    150       4.1940      0.00000
    151       4.2215      0.00000
    152       4.2912      0.00000
    153       4.6771      0.00000
    154       5.2683      0.00000
    155       5.2850      0.00000
    156       5.9126      0.00000
    157       6.0413      0.00000
    158       6.2382      0.00000
    159       6.2618      0.00000
    160       6.7774      0.00000

 k-point     5 :       0.1250    0.3750    0.1250
  band No.  band energies     occupation 
      1     -34.9687      1.00000
      2     -34.9642      1.00000
      3     -34.9634      1.00000
      4     -34.9592      1.00000
      5     -34.8700      1.00000
      6     -34.8647      1.00000
      7     -34.8639      1.00000
      8     -34.8591      1.00000
      9     -34.8197      1.00000
     10     -34.8130      1.00000
     11     -34.7909      1.00000
     12     -34.7853      1.00000
     13     -34.7777      1.00000
     14     -34.7725      1.00000
     15     -34.7535      1.00000
     16     -34.7530      1.00000
     17     -34.7454      1.00000
     18     -34.7419      1.00000
     19     -34.7244      1.00000
     20     -34.7153      1.00000
     21     -34.7141      1.00000
     22     -34.7008      1.00000
     23     -34.6790      1.00000
     24     -34.6723      1.00000
     25     -23.1811      1.00000
     26     -23.1563      1.00000
     27     -23.1394      1.00000
     28     -23.1092      1.00000
     29     -22.7435      1.00000
     30     -22.7292      1.00000
     31     -22.7248      1.00000
     32     -22.7095      1.00000
     33     -22.4606      1.00000
     34     -22.4258      1.00000
     35     -22.3856      1.00000
     36     -22.3173      1.00000
     37     -22.3126      1.00000
     38     -22.3022      1.00000
     39     -22.2587      1.00000
     40     -22.1829      1.00000
     41     -16.7706      1.00000
     42     -16.7641      1.00000
     43     -16.6832      1.00000
     44     -16.6221      1.00000
     45     -16.6099      1.00000
     46     -16.5623      1.00000
     47     -16.4842      1.00000
     48     -16.4737      1.00000
     49      -6.7674      1.00000
     50      -6.7375      1.00000
     51      -6.7240      1.00000
     52      -6.6803      1.00000
     53      -6.0006      1.00000
     54      -5.9544      1.00000
     55      -5.9377      1.00000
     56      -5.8834      1.00000
     57      -5.7053      1.00000
     58      -5.6122      1.00000
     59      -5.5825      1.00000
     60      -5.5570      1.00000
     61      -5.4743      1.00000
     62      -5.4551      1.00000
     63      -5.3802      1.00000
     64      -5.2956      1.00000
     65      -5.2831      1.00000
     66      -5.2344      1.00000
     67      -5.1247      1.00000
     68      -5.0558      1.00000
     69      -4.7906      1.00000
     70      -4.7655      1.00000
     71      -4.7030      1.00000
     72      -4.6887      1.00000
     73      -4.4652      1.00000
     74      -4.4385      1.00000
     75      -4.4054      1.00000
     76      -4.3924      1.00000
     77      -4.3673      1.00000
     78      -4.3251      1.00000
     79      -4.2925      1.00000
     80      -4.2384      1.00000
     81      -4.2058      1.00000
     82      -4.1443      1.00000
     83      -4.1058      1.00000
     84      -4.0788      1.00000
     85      -3.9574      1.00000
     86      -3.8316      1.00000
     87      -3.7850      1.00000
     88      -3.6841      1.00000
     89      -3.6471      1.00000
     90      -3.5708      1.00000
     91      -3.5510      1.00000
     92      -3.4904      1.00000
     93      -3.4612      1.00000
     94      -3.4421      1.00000
     95      -3.3619      1.00000
     96      -3.2650      1.00000
     97      -3.2281      1.00000
     98      -3.1871      1.00000
     99      -3.0844      1.00000
    100      -3.0506      1.00000
    101      -3.0076      1.00000
    102      -2.9952      1.00000
    103      -2.8485      1.00000
    104      -2.8074      1.00000
    105      -2.6790      1.00000
    106      -2.6251      1.00000
    107      -2.3593      1.00000
    108      -2.3012      1.00000
    109      -2.2574      1.00000
    110      -2.1227      1.00000
    111      -2.0658      1.00000
    112      -2.0375      1.00000
    113      -1.8788      1.00000
    114      -1.8234      1.00000
    115      -1.8106      1.00000
    116      -1.7122      1.00000
    117      -1.6318      1.00000
    118      -1.5842      1.00000
    119      -0.8944      1.00000
    120      -0.8291      1.00000
    121       1.9543      0.00000
    122       1.9900      0.00000
    123       2.2380      0.00000
    124       2.2626      0.00000
    125       2.3108      0.00000
    126       2.3165      0.00000
    127       2.6606      0.00000
    128       2.6704      0.00000
    129       2.7129      0.00000
    130       2.8200      0.00000
    131       3.0299      0.00000
    132       3.0442      0.00000
    133       3.1094      0.00000
    134       3.1433      0.00000
    135       3.2789      0.00000
    136       3.2919      0.00000
    137       3.3194      0.00000
    138       3.4500      0.00000
    139       3.4924      0.00000
    140       3.5320      0.00000
    141       3.5681      0.00000
    142       3.6209      0.00000
    143       3.7189      0.00000
    144       3.7525      0.00000
    145       3.8028      0.00000
    146       3.8438      0.00000
    147       3.8688      0.00000
    148       3.9438      0.00000
    149       4.0841      0.00000
    150       4.1517      0.00000
    151       4.2416      0.00000
    152       4.7642      0.00000
    153       4.9021      0.00000
    154       5.2233      0.00000
    155       5.6649      0.00000
    156       5.7330      0.00000
    157       5.9299      0.00000
    158       6.3050      0.00000
    159       6.4155      0.00000
    160       6.5416      0.00000

 k-point     6 :       0.3750    0.3750    0.1250
  band No.  band energies     occupation 
      1     -34.9486      1.00000
      2     -34.9439      1.00000
      3     -34.9432      1.00000
      4     -34.9385      1.00000
      5     -34.8908      1.00000
      6     -34.8859      1.00000
      7     -34.8849      1.00000
      8     -34.8804      1.00000
      9     -34.8196      1.00000
     10     -34.8129      1.00000
     11     -34.7909      1.00000
     12     -34.7853      1.00000
     13     -34.7777      1.00000
     14     -34.7725      1.00000
     15     -34.7535      1.00000
     16     -34.7530      1.00000
     17     -34.7453      1.00000
     18     -34.7420      1.00000
     19     -34.7244      1.00000
     20     -34.7153      1.00000
     21     -34.7141      1.00000
     22     -34.7008      1.00000
     23     -34.6790      1.00000
     24     -34.6723      1.00000
     25     -23.0611      1.00000
     26     -23.0384      1.00000
     27     -23.0227      1.00000
     28     -22.9955      1.00000
     29     -22.8816      1.00000
     30     -22.8633      1.00000
     31     -22.8518      1.00000
     32     -22.8306      1.00000
     33     -22.4397      1.00000
     34     -22.4257      1.00000
     35     -22.3802      1.00000
     36     -22.3126      1.00000
     37     -22.3105      1.00000
     38     -22.3017      1.00000
     39     -22.2584      1.00000
     40     -22.1829      1.00000
     41     -16.7693      1.00000
     42     -16.7645      1.00000
     43     -16.6829      1.00000
     44     -16.6220      1.00000
     45     -16.6097      1.00000
     46     -16.5623      1.00000
     47     -16.4823      1.00000
     48     -16.4761      1.00000
     49      -6.3955      1.00000
     50      -6.3824      1.00000
     51      -6.3726      1.00000
     52      -6.3592      1.00000
     53      -6.0217      1.00000
     54      -5.9845      1.00000
     55      -5.9322      1.00000
     56      -5.8984      1.00000
     57      -5.8933      1.00000
     58      -5.8550      1.00000
     59      -5.7637      1.00000
     60      -5.7159      1.00000
     61      -5.6659      1.00000
     62      -5.5993      1.00000
     63      -5.5969      1.00000
     64      -5.4768      1.00000
     65      -5.1107      1.00000
     66      -5.0660      1.00000
     67      -4.9292      1.00000
     68      -4.8708      1.00000
     69      -4.8158      1.00000
     70      -4.7548      1.00000
     71      -4.7223      1.00000
     72      -4.6500      1.00000
     73      -4.6171      1.00000
     74      -4.5671      1.00000
     75      -4.5336      1.00000
     76      -4.5148      1.00000
     77      -4.4413      1.00000
     78      -4.4190      1.00000
     79      -4.3986      1.00000
     80      -4.3469      1.00000
     81      -4.3165      1.00000
     82      -4.2891      1.00000
     83      -4.1640      1.00000
     84      -4.1405      1.00000
     85      -3.9400      1.00000
     86      -3.8838      1.00000
     87      -3.8389      1.00000
     88      -3.7456      1.00000
     89      -3.6379      1.00000
     90      -3.5715      1.00000
     91      -3.4385      1.00000
     92      -3.3755      1.00000
     93      -3.3453      1.00000
     94      -3.3114      1.00000
     95      -3.2678      1.00000
     96      -3.2308      1.00000
     97      -3.2064      1.00000
     98      -3.1995      1.00000
     99      -3.1438      1.00000
    100      -3.1065      1.00000
    101      -3.0563      1.00000
    102      -2.9967      1.00000
    103      -2.8466      1.00000
    104      -2.8192      1.00000
    105      -2.6812      1.00000
    106      -2.6273      1.00000
    107      -2.3055      1.00000
    108      -2.1755      1.00000
    109      -2.1289      1.00000
    110      -2.0445      1.00000
    111      -2.0257      1.00000
    112      -1.9844      1.00000
    113      -1.9289      1.00000
    114      -1.8900      1.00000
    115      -1.8195      1.00000
    116      -1.8047      1.00000
    117      -1.7716      1.00000
    118      -1.5817      1.00000
    119      -0.8936      1.00000
    120      -0.8290      1.00000
    121       2.1604      0.00000
    122       2.1792      0.00000
    123       2.2628      0.00000
    124       2.3148      0.00000
[...]
 -0.000  -0.000  -0.000   0.000   0.000   0.000  -0.000   0.000  -0.000   0.000   0.000  -0.000   0.000   0.000   0.000  -0.000
  0.000  -0.000   0.000   0.000   0.000   0.000   0.000   0.000   0.000   0.000   0.000   0.000  -0.000  -0.000  -0.000  -0.000
  0.000   0.000  -0.000   0.000  -0.000   0.000  -0.000   0.000   0.000  -0.000   0.000   0.000  -0.000  -0.000   0.000  -0.000
  0.000  -0.000   0.000  -0.000   0.000   0.000   0.000  -0.000   0.000   0.000  -0.000  -0.000   0.000  -0.000   0.000   0.000
 -0.000   0.000   0.000  -0.000  -0.000  -0.000   0.000  -0.000  -0.000   0.000  -0.000  -0.000  -0.000   0.000  -0.000   0.000
  0.000   0.000   0.000  -0.000  -0.000  -0.000   0.000  -0.000   0.000   0.000  -0.000   0.000   0.000  -0.000  -0.000   0.000
 -0.000  -0.000  -0.000  -0.000   0.000  -0.000  -0.000   0.000  -0.000  -0.000  -0.000  -0.000   0.000   0.000   0.000   0.000
  0.000   0.000   0.000  -0.000  -0.000   0.000   0.000  -0.000  -0.000   0.000   0.000  -0.000   0.000   0.000   0.000  -0.000
  0.000   0.000   0.000  -0.000   0.000  -0.000   0.000  -0.000  -0.000   0.000   0.000   0.000   0.000   0.000  -0.000  -0.000


------------------------ aborting loop because EDIFF is reached ----------------------------------------


 


 total charge     
 
# of ion       s       p       d       tot
------------------------------------------
    1        0.316   6.461   1.748   8.525
    2        0.317   6.462   1.752   8.531
    3        0.317   6.462   1.752   8.531
    4        0.318   6.463   1.757   8.538
    5        0.318   6.465   1.763   8.547
    6        0.319   6.466   1.767   8.553
    7        0.319   6.466   1.767   8.553
    8        0.320   6.468   1.771   8.559
    9        1.569   3.470   0.000   5.039
   10        1.570   3.473   0.000   5.043
   11        1.571   3.477   0.000   5.048
   12        1.570   3.475   0.000   5.045
   13        1.569   3.470   0.000   5.039
   14        1.570   3.473   0.000   5.043
   15        1.570   3.475   0.000   5.045
   16        1.571   3.477   0.000   5.048
   17        1.729   4.382   0.000   6.111
   18        1.729   4.383   0.000   6.112
   19        1.729   4.383   0.000   6.112
   20        1.729   4.384   0.000   6.113
   21        1.729   4.382   0.000   6.111
   22        1.729   4.383   0.000   6.112
   23        1.729   4.383   0.000   6.112
   24        1.729   4.384   0.000   6.113
   25        1.730   4.379   0.000   6.109
   26        1.729   4.378   0.000   6.107
   27        1.729   4.379   0.000   6.108
   28        1.729   4.378   0.000   6.107
   29        1.730   4.379   0.000   6.109
   30        1.729   4.378   0.000   6.107
   31        1.729   4.379   0.000   6.108
   32        1.729   4.378   0.000   6.107
--------------------------------------------------
tot         42.770 149.596  14.080 206.446
 


 magnetization (x)
 
# of ion       s       p       d       tot
------------------------------------------
    1       -0.000   0.000   0.000   0.000
    2        0.000   0.000  -0.000  -0.000
    3        0.000   0.000   0.000   0.000
    4       -0.000  -0.000   0.000  -0.000
    5        0.000  -0.000  -0.000  -0.000
    6        0.000   0.000  -0.000   0.000
    7        0.000   0.000   0.000   0.000
    8       -0.000  -0.000   0.000   0.000
    9        0.000  -0.000   0.000  -0.000
   10       -0.000   0.000   0.000   0.000
   11       -0.000   0.000   0.000  -0.000
   12        0.000   0.000   0.000   0.000
   13       -0.000   0.000   0.000   0.000
   14       -0.000  -0.000   0.000  -0.000
   15       -0.000   0.000   0.000   0.000
   16       -0.000   0.000   0.000  -0.000
   17        0.000  -0.000   0.000   0.000
   18       -0.000  -0.000   0.000  -0.000
   19        0.000  -0.000   0.000  -0.000
   20       -0.000   0.000   0.000  -0.000
   21       -0.000  -0.000   0.000  -0.000
   22       -0.000  -0.000   0.000  -0.000
   23        0.000  -0.000   0.000  -0.000
   24       -0.000  -0.000   0.000  -0.000
   25       -0.000  -0.000   0.000  -0.000
   26        0.000   0.000   0.000   0.000
   27        0.000  -0.000   0.000  -0.000
   28       -0.000  -0.000   0.000  -0.000
   29        0.000   0.000   0.000   0.000
   30       -0.000   0.000   0.000  -0.000
   31        0.000  -0.000   0.000   0.000
   32       -0.000   0.000   0.000  -0.000
--------------------------------------------------
tot         -0.000   0.000   0.000   0.000
 
    CHARGE:  cpu time    1.2078: real time    1.2065
    FORLOC:  cpu time    0.0100: real time    0.0095
    FORNL :  cpu time    6.9729: real time    6.9620
    STRESS:  cpu time   20.9678: real time   20.9316
    FORCOR:  cpu time    0.1400: real time    0.1404
    FORHAR:  cpu time    0.1370: real time    0.1357
    MIXING:  cpu time    0.0020: real time    0.0026
    OFIELD:  cpu time    0.0000: real time    0.0000

  FORCE on cell =-STRESS in cart. coord.  units (eV):
  Direction    XX          YY          ZZ          XY          YZ          ZX
  --------------------------------------------------------------------------------------
  Alpha Z   759.93201   759.93201   759.93201
  Ewald   -4337.84584 -4241.02385 -4241.02443    -0.00000   -16.83880     0.00002
  Hartree  2710.51630  2756.64603  2756.64572    -0.00000    -5.53644     0.00001
  E(xc)   -1232.11271 -1232.61257 -1232.61257    -0.00000     0.04526    -0.00000
  Local   -2014.81277 -2216.47835 -2216.47748     0.00000    23.58380    -0.00003
  n-local  -974.94753  -963.28403  -963.28402     0.00000    -0.92716     0.00000
  augment   744.25008   763.65299   763.65299    -0.00000    -0.88277     0.00000
  Kinetic  4345.16787  4373.24099  4373.24101     0.00000     0.57721    -0.00000
  Fock        0.00000     0.00000     0.00000     0.00000     0.00000     0.00000
  -------------------------------------------------------------------------------------
  Total       0.14742     0.07324     0.07323     0.00000     0.02109    -0.00000
  in kB       0.51258     0.25467     0.25463     0.00000     0.07335    -0.00000
  external pressure =        0.34 kB  Pullay stress =        0.00 kB


 VOLUME and BASIS-vectors are now :
 -----------------------------------------------------------------------------
  energy-cutoff  :      700.00
  volume of cell :      460.79
      direct lattice vectors                 reciprocal lattice vectors
     7.861098307 -0.000000004  0.000000009     0.127208688  0.000000000 -0.000000000
    -0.000000003  7.656108415  0.001812946     0.000000000  0.130614668 -0.000030926
     0.000000010  0.001812761  7.656108603    -0.000000000 -0.000030929  0.130614664

  length of vectors
     7.861098307  7.656108630  7.656108817     0.127208688  0.130614671  0.130614668


 FORCES acting on ions
    electron-ion (+dipol)            ewald-force                    non-local-force                 convergence-correction
 -----------------------------------------------------------------------------------------------
   -.303E-04 0.307E+02 0.307E+02   0.299E-04 -.315E+02 -.315E+02   0.440E-06 0.782E+00 0.782E+00   -.154E-08 0.298E-03 0.298E-03
   0.206E-04 0.164E+02 -.314E+02   -.203E-04 -.173E+02 0.322E+02   -.315E-06 0.877E+00 -.788E+00   0.560E-08 -.551E-04 -.179E-03
   -.218E-04 -.314E+02 0.164E+02   0.215E-04 0.322E+02 -.173E+02   0.300E-06 -.788E+00 0.877E+00   -.243E-08 -.179E-03 -.551E-04
   0.154E-04 -.169E+02 -.169E+02   -.152E-04 0.178E+02 0.178E+02   -.250E-06 -.883E+00 -.883E+00   0.489E-08 -.380E-04 -.380E-04
   0.167E-04 0.143E+02 0.143E+02   -.166E-04 -.152E+02 -.152E+02   -.998E-07 0.953E+00 0.953E+00   0.430E-08 0.358E-03 0.358E-03
   -.115E-04 0.466E+01 -.150E+02   0.113E-04 -.364E+01 0.159E+02   0.144E-06 -.103E+01 -.960E+00   0.551E-08 0.207E-03 -.272E-03
   0.244E-04 -.150E+02 0.466E+01   -.240E-04 0.159E+02 -.364E+01   -.340E-06 -.960E+00 -.103E+01   0.324E-08 -.272E-03 0.207E-03
   -.166E-04 -.430E+01 -.430E+01   0.163E-04 0.328E+01 0.328E+01   0.284E-06 0.103E+01 0.103E+01   0.680E-09 -.170E-03 -.170E-03
   -.134E-04 0.405E+00 -.148E+02   0.135E-04 -.444E+00 0.180E+02   -.119E-06 0.364E-01 -.315E+01   0.155E-08 -.117E-03 0.161E-03
   0.222E-05 0.395E+00 0.151E+02   -.150E-05 -.429E+00 -.183E+02   -.722E-06 0.314E-01 0.319E+01   0.156E-08 0.116E-03 -.168E-03
   0.424E-05 -.155E+00 -.553E+01   -.524E-05 0.193E+00 0.561E+01   0.996E-06 -.378E-01 -.823E-01   0.119E-08 -.492E-04 -.904E-04
   0.134E-04 0.215E+00 0.452E+01   -.138E-04 -.252E+00 -.460E+01   0.406E-06 0.333E-01 0.779E-01   0.370E-09 -.554E-04 0.102E-03
   -.266E-05 -.148E+02 0.405E+00   0.265E-05 0.180E+02 -.444E+00   0.210E-07 -.315E+01 0.364E-01   0.127E-08 0.161E-03 -.117E-03
   -.622E-06 0.151E+02 0.395E+00   0.522E-06 -.183E+02 -.429E+00   0.100E-06 0.319E+01 0.314E-01   0.257E-08 -.168E-03 0.116E-03
   0.427E-05 0.452E+01 0.215E+00   -.455E-05 -.460E+01 -.252E+00   0.291E-06 0.779E-01 0.333E-01   0.642E-09 0.102E-03 -.555E-04
   0.250E-05 -.553E+01 -.155E+00   -.258E-05 0.561E+01 0.193E+00   0.679E-07 -.823E-01 -.378E-01   0.126E-08 -.904E-04 -.492E-04
   -.397E+00 -.582E+01 -.582E+01   0.431E+00 0.909E+01 0.909E+01   -.337E-01 -.326E+01 -.326E+01   0.157E-04 0.256E-03 0.256E-03
   -.159E+00 0.638E+01 0.595E+01   0.199E+00 -.651E+01 -.924E+01   -.388E-01 0.130E+00 0.328E+01   -.400E-04 0.845E-04 -.239E-03
   -.159E+00 0.595E+01 0.638E+01   0.199E+00 -.924E+01 -.651E+01   -.388E-01 0.328E+01 0.130E+00   -.400E-04 -.239E-03 0.845E-04
   0.998E-01 -.621E+01 -.621E+01   -.558E-01 0.633E+01 0.633E+01   -.439E-01 -.113E+00 -.113E+00   -.625E-05 -.878E-04 -.878E-04
   0.397E+00 -.582E+01 -.582E+01   -.431E+00 0.909E+01 0.909E+01   0.337E-01 -.326E+01 -.326E+01   -.157E-04 0.256E-03 0.256E-03
   0.159E+00 0.638E+01 0.595E+01   -.199E+00 -.651E+01 -.924E+01   0.388E-01 0.130E+00 0.328E+01   0.400E-04 0.845E-04 -.239E-03
   0.159E+00 0.595E+01 0.638E+01   -.199E+00 -.924E+01 -.651E+01   0.388E-01 0.328E+01 0.130E+00   0.400E-04 -.239E-03 0.845E-04
   -.998E-01 -.621E+01 -.621E+01   0.558E-01 0.633E+01 0.633E+01   0.439E-01 -.113E+00 -.113E+00   0.625E-05 -.878E-04 -.878E-04
   0.135E-04 0.215E+00 -.115E+01   -.175E-04 -.285E+00 0.428E+01   0.396E-05 0.709E-01 -.313E+01   0.306E-08 0.398E-04 0.207E-03
   -.288E-05 0.242E+00 0.297E+00   0.457E-05 -.304E+00 -.335E+01   -.167E-05 0.630E-01 0.305E+01   -.174E-08 -.626E-04 -.201E-03
   -.131E-04 0.433E+00 0.626E+01   0.170E-04 -.486E+00 -.633E+01   -.378E-05 0.542E-01 0.768E-01   0.222E-08 0.133E-04 0.146E-03
   -.480E-06 -.551E+00 -.509E+01   -.984E-06 0.620E+00 0.516E+01   0.143E-05 -.698E-01 -.655E-01   -.472E-09 0.496E-04 -.136E-03
   0.196E-06 -.115E+01 0.215E+00   -.534E-06 0.428E+01 -.285E+00   0.349E-06 -.313E+01 0.709E-01   0.213E-08 0.207E-03 0.398E-04
   -.343E-05 0.297E+00 0.242E+00   0.362E-05 -.335E+01 -.304E+00   -.185E-06 0.305E+01 0.630E-01   0.154E-09 -.201E-03 -.626E-04
   0.594E-06 0.626E+01 0.433E+00   -.608E-06 -.633E+01 -.486E+00   0.274E-07 0.768E-01 0.542E-01   0.143E-08 0.146E-03 0.133E-04
   0.700E-06 -.509E+01 -.551E+00   -.541E-06 0.516E+01 0.620E+00   -.160E-06 -.655E-01 -.698E-01   0.104E-08 -.136E-03 0.496E-04
 -----------------------------------------------------------------------------------------------
   -.334E-06 -.208E+00 -.208E+00   0.175E-12 -.195E-12 0.179E-12   0.492E-06 0.207E+00 0.207E+00   0.330E-07 0.129E-03 0.129E-03
 
 
 POSITION                                       TOTAL-FORCE (eV/Angst)
 -----------------------------------------------------------------------------------
      0.00000      7.57058      7.57058         0.000000      0.002119      0.002117
      7.86110      7.56509      3.91653        -0.000000      0.000148     -0.000276
      7.86110      3.91653      7.56509        -0.000000     -0.000277      0.000147
      0.00000      3.92039      3.92039        -0.000000      0.001005      0.001006
      3.93055      7.56476      7.56477         0.000000      0.000105      0.000103
      3.93055      0.09826      3.92041        -0.000000     -0.003323      0.001736
      3.93055      3.92041      0.09826         0.000000      0.001735     -0.003322
      3.93055      3.73258      3.73258        -0.000000      0.003617      0.003617
      0.00000      5.74213      0.05164         0.000000     -0.003055     -0.001565
      0.00000      5.74314      3.77886        -0.000000     -0.001937      0.001599
      3.93055      1.91513      3.83126        -0.000000      0.000205      0.000292
      3.93055      5.74377      7.65458        -0.000000     -0.003790     -0.000031
      0.00000      0.05164      5.74213         0.000000     -0.001565     -0.003055
      7.86110      3.77886      5.74314        -0.000000      0.001599     -0.001936
      3.93055      7.65458      5.74377         0.000000     -0.000031     -0.003789
      3.93055      3.83126      1.91513        -0.000000      0.000292      0.000205
      1.96535      0.04989      0.04989        -0.000018      0.004962      0.004963
      1.96550      7.65218      3.77946         0.000261     -0.001557     -0.006535
      1.96550      3.77946      7.65218         0.000261     -0.006534     -0.001557
      1.96561      3.83353      3.83353         0.000058      0.002230      0.002230
      5.89575      0.04989      0.04989         0.000018      0.004962      0.004963
      5.89560      7.65218      3.77946        -0.000261     -0.001557     -0.006535
      5.89560      3.77946      7.65218        -0.000261     -0.006534     -0.001557
      5.89549      3.83353      3.83353        -0.000058      0.002230      0.002230
      7.86110      1.91456      0.06950        -0.000000      0.000905      0.001312
      0.00000      1.91557      3.76095         0.000000      0.000927      0.000608
      3.93055      1.91624      7.65360         0.000000      0.001064     -0.001304
      3.93055      5.74245      3.83256        -0.000000     -0.000063      0.001500
      7.86110      0.06950      1.91456         0.000000      0.001313      0.000905
      0.00000      3.76095      1.91557        -0.000000      0.000608      0.000926
      3.93055      7.65360      1.91624         0.000000     -0.001304      0.001063
      3.93055      3.83256      5.74245        -0.000000      0.001500     -0.000063
 -----------------------------------------------------------------------------------
    total drift:                                0.000000     -0.000856     -0.000856


--------------------------------------------------------------------------------------------------------



  FREE ENERGIE OF THE ION-ELECTRON SYSTEM (eV)
  ---------------------------------------------------
  free  energy   TOTEN  =      -213.59702930 eV

  energy  without entropy=     -213.59702930  energy(sigma->0) =     -213.59702930
 


--------------------------------------------------------------------------------------------------------


    POTLOK:  cpu time    1.0218: real time    1.0198


--------------------------------------------------------------------------------------------------------


 stress matrix after NEB project (eV)
      0.14742     -0.00000     -0.00000
      0.00000      0.07324      0.02110
      0.00000      0.02109      0.07323
  FORCES: max atom, RMS     0.007018    0.003740
  FORCE total and by dimension    0.021155    0.006535
  Stress total and by dimension    0.182618    0.147418
 Quasi-Newton relaxation of ions (Broydens 2nd method)
  g(Force)  = 0.216E-04   g(Stress)= 0.503E-04

 Reset! Starting new Quasi-Newton update for ions 


--------------------------------------------------------------------------------------------------------


  
 reached required accuracy - stopping structural energy minimisation
 writing wavefunctions
     LOOP+:  cpu time  194.2775: real time  195.6159
    4ORBIT:  cpu time    0.0000: real time    0.0000
 


 total charge     
 
# of ion       s       p       d       tot
------------------------------------------
    1        0.316   6.461   1.748   8.525
    2        0.317   6.462   1.752   8.531
    3        0.317   6.462   1.752   8.531
    4        0.318   6.463   1.757   8.538
    5        0.318   6.465   1.763   8.547
    6        0.319   6.466   1.767   8.553
    7        0.319   6.466   1.767   8.553
    8        0.320   6.468   1.771   8.559
    9        1.569   3.470   0.000   5.039
   10        1.570   3.473   0.000   5.043
   11        1.571   3.477   0.000   5.048
   12        1.570   3.475   0.000   5.045
   13        1.569   3.470   0.000   5.039
   14        1.570   3.473   0.000   5.043
   15        1.570   3.475   0.000   5.045
   16        1.571   3.477   0.000   5.048
   17        1.729   4.382   0.000   6.111
   18        1.729   4.383   0.000   6.112
   19        1.729   4.383   0.000   6.112
   20        1.729   4.384   0.000   6.113
   21        1.729   4.382   0.000   6.111
   22        1.729   4.383   0.000   6.112
   23        1.729   4.383   0.000   6.112
   24        1.729   4.384   0.000   6.113
   25        1.730   4.379   0.000   6.109
   26        1.729   4.378   0.000   6.107
   27        1.729   4.379   0.000   6.108
   28        1.729   4.378   0.000   6.107
   29        1.730   4.379   0.000   6.109
   30        1.729   4.378   0.000   6.107
   31        1.729   4.379   0.000   6.108
   32        1.729   4.378   0.000   6.107
--------------------------------------------------
tot         42.770 149.596  14.080 206.446
 


 magnetization (x)
 
# of ion       s       p       d       tot
------------------------------------------
    1       -0.000   0.000   0.000   0.000
    2        0.000   0.000  -0.000  -0.000
    3        0.000   0.000   0.000   0.000
    4       -0.000  -0.000   0.000  -0.000
    5        0.000  -0.000  -0.000  -0.000
    6        0.000   0.000  -0.000   0.000
    7        0.000   0.000   0.000   0.000
    8       -0.000  -0.000   0.000   0.000
    9        0.000  -0.000   0.000  -0.000
   10       -0.000   0.000   0.000   0.000
   11       -0.000   0.000   0.000  -0.000
   12        0.000   0.000   0.000   0.000
   13       -0.000   0.000   0.000   0.000
   14       -0.000  -0.000   0.000  -0.000
   15       -0.000   0.000   0.000   0.000
   16       -0.000   0.000   0.000  -0.000
   17        0.000  -0.000   0.000   0.000
   18       -0.000  -0.000   0.000  -0.000
   19        0.000  -0.000   0.000  -0.000
   20       -0.000   0.000   0.000  -0.000
   21       -0.000  -0.000   0.000  -0.000
   22       -0.000  -0.000   0.000  -0.000
   23        0.000  -0.000   0.000  -0.000
   24       -0.000  -0.000   0.000  -0.000
   25       -0.000  -0.000   0.000  -0.000
   26        0.000   0.000   0.000   0.000
   27        0.000  -0.000   0.000  -0.000
   28       -0.000  -0.000   0.000  -0.000
   29        0.000   0.000   0.000   0.000
   30       -0.000   0.000   0.000  -0.000
   31        0.000  -0.000   0.000   0.000
   32       -0.000   0.000   0.000  -0.000
--------------------------------------------------
tot         -0.000   0.000   0.000   0.000
 

 total amount of memory used by VASP MPI-rank0   107211. kBytes
=======================================================================

   base      :      30000. kBytes
   nonlr-proj:       8600. kBytes
   fftplans  :       8423. kBytes
   grid      :       8783. kBytes
   one-center:        124. kBytes
   wavefun   :      51281. kBytes
 
  
  
 General timing and accounting informations for this job:
 ========================================================
  
                  Total CPU time used (sec):      243.613
                            User time (sec):      217.152
                          System time (sec):       26.461
                         Elapsed time (sec):      250.164
  
                   Maximum memory used (kb):      225308.
                   Average memory used (kb):           0.
  
                          Minor page faults:       101609
                          Major page faults:            2
                 Voluntary context switches:        67934
