 vasp.6.3.0 20Jan22 (build Jan 25 2022 13:20:17) complex                        
  
 executed on             LinuxIFC date 2024.06.05  15:58:42
 running on   80 total cores
 distrk:  each k-point on   80 cores,    1 groups
 distr:  one band on NCORE=   8 cores,   10 groups


--------------------------------------------------------------------------------------------------------


 INCAR:
   SYSTEM = LTO
   ISTART = 1
   ENCUT = 700.0
   IALGO = 38
   EDIFF = 1E-6
   PREC = Accurate
   ISPIN = 2
   LMAXMIX = 4
   ADDGRID = .TRUE.
   LASPH = .TRUE.
   LREAL = Auto
   ROPT = 1E-4 1E-4 1E-4
   GGA = PS
   LDAU = .TRUE.
   LDAUTYPE = 2
   LDAUL = 2   -1    -1
   LDAUU = 4.2  0.0  0.0
   LDAUJ = 0.0  0.0  0.0
   NSW = 100
   EDIFFG = -0.01
   IBRION = 1
   ISIF = 3
   ISMEAR = 0
   SIGMA = 0.01
   ISYM = 0
   LORBIT = 11
   NEDOS = 3001
   NWRITE = 2
   NCORE = 8

 POTCAR:   PAW_PBE Ti_pv 07Sep2000                
 POTCAR:   PAW_PBE O 08Apr2002                    
 POTCAR:    PAW_PBE F 08Apr2002                   
 -----------------------------------------------------------------------------
|                                                                             |
|           W    W    AA    RRRRR   N    N  II  N    N   GGGG   !!!           |
|           W    W   A  A   R    R  NN   N  II  NN   N  G    G  !!!           |
|           W    W  A    A  R    R  N N  N  II  N N  N  G       !!!           |
|           W WW W  AAAAAA  RRRRR   N  N N  II  N  N N  G  GGG   !            |
|           WW  WW  A    A  R   R   N   NN  II  N   NN  G    G                |
|           W    W  A    A  R    R  N    N  II  N    N   GGGG   !!!           |
|                                                                             |
|     You use a magnetic or noncollinear calculation, but did not specify     |
|     the initial magnetic moment with the MAGMOM tag. Note that a            |
|     default of 1 will be used for all atoms. This ferromagnetic setup       |
|     may break the symmetry of the crystal, in particular it may rule        |
|     out finding an antiferromagnetic solution. Thence, we recommend         |
|     setting the initial magnetic moment manually or verifying carefully     |
|     that this magnetic setup is desired.                                    |
|                                                                             |
 -----------------------------------------------------------------------------

 POTCAR:   PAW_PBE Ti_pv 07Sep2000                
   VRHFIN =Ti: d3 s1                                                                                
   LEXCH  = PE                                                                                      
   EATOM  =  1042.3781 eV,   76.6126 Ry                                                             
                                                                                                    
   TITEL  = PAW_PBE Ti_pv 07Sep2000                                                                 
   LULTRA =        F    use ultrasoft PP ?                                                          
   IUNSCR =        1    unscreen: 0-lin 1-nonlin 2-no                                               
   RPACOR =    2.200    partial core radius                                                         
   POMASS =   47.880; ZVAL   =   10.000    mass and valenz                                          
   RCORE  =    2.500    outmost cutoff radius                                                       
   RWIGS  =    2.500; RWIGS  =    1.323    wigner-seitz radius (au A)                               
   ENMAX  =  222.338; ENMIN  =  166.753 eV                                                          
   RCLOC  =    1.701    cutoff for local pot                                                        
   LCOR   =        T    correct aug charges                                                         
   LPAW   =        T    paw PP                                                                      
   EAUG   =  482.848                                                                                
   DEXC   =    -.008                                                                                
   RMAX   =    3.092    core radius for proj-oper                                                   
   RAUG   =    1.300    factor for augmentation sphere                                              
   RDEP   =    2.538    radius for radial grids                                                     
   QCUT   =   -4.042; QGAM   =    8.085    optimization parameters                                  
                                                                                                    
   Description                                                                                      
     l     E      TYP  RCUT    TYP  RCUT                                                            
     1   .000     23  2.300                                                                         
     1  -.100     23  2.300                                                                         
     2   .000     23  2.500                                                                         
     2   .000     23  2.500                                                                         
     0   .000     23  2.500                                                                         
     0  1.500     23  2.500                                                                         
     3   .000      7   .000                                                                         
  local pseudopotential read in
  partial core-charges read in
  atomic valenz-charges read in
  non local Contribution for L=           1  read in
    real space projection operators read in
  non local Contribution for L=           1  read in
    real space projection operators read in
  non local Contribution for L=           2  read in
    real space projection operators read in
  non local Contribution for L=           2  read in
    real space projection operators read in
  non local Contribution for L=           0  read in
    real space projection operators read in
  non local Contribution for L=           0  read in
    real space projection operators read in
    PAW grid and wavefunctions read in
 
   number of l-projection  operators is LMAX  =           6
   number of lm-projection operators is LMMAX =          18
 
 POTCAR:   PAW_PBE O 08Apr2002                    
   VRHFIN =O: s2p4                                                                                  
   LEXCH  = PE                                                                                      
   EATOM  =   432.3788 eV,   31.7789 Ry                                                             
                                                                                                    
   TITEL  = PAW_PBE O 08Apr2002                                                                     
   LULTRA =        F    use ultrasoft PP ?                                                          
   IUNSCR =        0    unscreen: 0-lin 1-nonlin 2-no                                               
   RPACOR =     .000    partial core radius                                                         
   POMASS =   16.000; ZVAL   =    6.000    mass and valenz                                          
   RCORE  =    1.520    outmost cutoff radius                                                       
   RWIGS  =    1.550; RWIGS  =     .820    wigner-seitz radius (au A)                               
   ENMAX  =  400.000; ENMIN  =  300.000 eV                                                          
   ICORE  =        2    local potential                                                             
   LCOR   =        T    correct aug charges                                                         
   LPAW   =        T    paw PP                                                                      
   EAUG   =  605.392                                                                                
   DEXC   =     .000                                                                                
   RMAX   =    2.264    core radius for proj-oper                                                   
   RAUG   =    1.300    factor for augmentation sphere                                              
   RDEP   =    1.550    radius for radial grids                                                     
   QCUT   =   -5.520; QGAM   =   11.041    optimization parameters                                  
                                                                                                    
   Description                                                                                      
     l     E      TYP  RCUT    TYP  RCUT                                                            
     0   .000     23  1.200                                                                         
     0  -.700     23  1.200                                                                         
     1   .000     23  1.520                                                                         
     1   .600     23  1.520                                                                         
     2   .000      7  1.500                                                                         
  local pseudopotential read in
  atomic valenz-charges read in
  non local Contribution for L=           0  read in
    real space projection operators read in
  non local Contribution for L=           0  read in
    real space projection operators read in
  non local Contribution for L=           1  read in
    real space projection operators read in
  non local Contribution for L=           1  read in
    real space projection operators read in
    PAW grid and wavefunctions read in
 
   number of l-projection  operators is LMAX  =           4
   number of lm-projection operators is LMMAX =           8
 
 POTCAR:    PAW_PBE F 08Apr2002                   
   VRHFIN =F: s2p5                                                                                  
   LEXCH  = PE                                                                                      
   EATOM  =   659.6475 eV,   48.4827 Ry                                                             
                                                                                                    
   TITEL  = PAW_PBE F 08Apr2002                                                                     
   LULTRA =        F    use ultrasoft PP ?                                                          
   IUNSCR =        1    unscreen: 0-lin 1-nonlin 2-no                                               
   RPACOR =    1.200    partial core radius                                                         
   POMASS =   18.998; ZVAL   =    7.000    mass and valenz                                          
   RCORE  =    1.520    outmost cutoff radius                                                       
   RWIGS  =    1.500; RWIGS  =    0.794    wigner-seitz radius (au A)                               
   ENMAX  =  400.000; ENMIN  =  300.000 eV                                                          
   ICORE  =        2    local potential                                                             
   LCOR   =        T    correct aug charges                                                         
   LPAW   =        T    paw PP                                                                      
   EAUG   =  613.614                                                                                
   RMAX   =    1.555    core radius for proj-oper                                                   
   RAUG   =    1.300    factor for augmentation sphere                                              
   RDEP   =    1.539    radius for radial grids                                                     
   RDEPT  =    1.299    core radius for aug-charge                                                  
                                                                                                    
   Atomic configuration                                                                             
    4 entries                                                                                       
     n  l   j            E        occ.                                                              
     1  0  0.50      -663.3661   2.0000                                                             
     2  0  0.50       -29.8995   2.0000                                                             
     2  1  0.50       -11.1114   5.0000                                                             
     3  2  1.50       -10.8847   0.0000                                                             
   Description                                                                                      
     l       E           TYP  RCUT    TYP  RCUT                                                     
     0    -29.8995018     23  1.200                                                                 
     0     -9.5240782     23  1.200                                                                 
     1    -11.1113914     23  1.520                                                                 
     1      1.3605826     23  1.520                                                                 
     2    -10.8846608      7  1.500                                                                 
  local pseudopotential read in
  partial core-charges read in
  partial kinetic energy density read in
  atomic valenz-charges read in
  non local Contribution for L=           0  read in
    real space projection operators read in
  non local Contribution for L=           0  read in
    real space projection operators read in
  non local Contribution for L=           1  read in
    real space projection operators read in
  non local Contribution for L=           1  read in
    real space projection operators read in
    PAW grid and wavefunctions read in
 
   number of l-projection  operators is LMAX  =           4
   number of lm-projection operators is LMMAX =           8
 
 Optimization of the real space projectors (new method)

 maximal supplied QI-value         = 15.12
 optimisation between [QCUT,QGAM] = [ 13.45, 27.06] = [ 50.69,205.06] Ry 
 Optimized for a Real-space Cutoff    1.49 Angstroem

   l    n(q)    QCUT    max X(q) W(low)/X(q) W(high)/X(q)  e(spline) 
   1     12    13.455     4.841    0.13E-05    0.83E-06    0.56E-07
   1     12    13.455     5.701    0.32E-04    0.25E-04    0.17E-06
   2     11    13.455     4.569    0.64E-05    0.34E-05    0.50E-07
   2     11    13.455    32.276    0.49E-04    0.38E-04    0.46E-06
   0     12    13.455    30.046    0.17E-04    0.41E-05    0.51E-07
   0     12    13.455    45.433    0.12E-04    0.27E-04    0.38E-06
 Optimization of the real space projectors (new method)

 maximal supplied QI-value         = 24.76
 optimisation between [QCUT,QGAM] = [ 13.37, 26.98] = [ 50.04,203.89] Ry 
 Optimized for a Real-space Cutoff    1.17 Angstroem

   l    n(q)    QCUT    max X(q) W(low)/X(q) W(high)/X(q)  e(spline) 
   0      9    13.368     4.192    0.20E-04    0.58E-05    0.56E-07
   0      9    13.368     8.473    0.60E-04    0.52E-04    0.21E-06
   1      9    13.368     2.474    0.22E-04    0.17E-04    0.28E-07
   1      9    13.368     3.912    0.94E-04    0.97E-04    0.20E-06
 Optimization of the real space projectors (new method)

 maximal supplied QI-value         = 24.76
 optimisation between [QCUT,QGAM] = [ 13.37, 26.98] = [ 50.04,203.89] Ry 
 Optimized for a Real-space Cutoff    1.17 Angstroem

   l    n(q)    QCUT    max X(q) W(low)/X(q) W(high)/X(q)  e(spline) 
   0      9    13.368    14.049    0.39E-04    0.34E-04    0.16E-06
   0      9    13.368     8.945    0.54E-04    0.47E-04    0.20E-06
   1      9    13.368     7.086    0.99E-04    0.10E-03    0.23E-06
   1      9    13.368     6.747    0.86E-04    0.89E-04    0.21E-06
 -----------------------------------------------------------------------------
|                                                                             |
|               ----> ADVICE to this user running VASP <----                  |
|                                                                             |
|     You enforced a specific xc type in the INCAR file but a different       |
|     type was found in the POTCAR file.                                      |
|     I HOPE YOU KNOW WHAT YOU ARE DOING!                                     |
|                                                                             |
 -----------------------------------------------------------------------------

 PAW_PBE Ti_pv 07Sep2000                :
 energy of atom  1       EATOM=-1042.3781
 kinetic energy error for atom=    0.0006 (will be added to EATOM!!)
 PAW_PBE O 08Apr2002                    :
 energy of atom  2       EATOM= -432.3788
 kinetic energy error for atom=    0.0091 (will be added to EATOM!!)
  PAW_PBE F 08Apr2002                   :
 energy of atom  3       EATOM= -659.6475
 kinetic energy error for atom=    0.0140 (will be added to EATOM!!)
 
 
 POSCAR: Ti27 O27 F54
  positions in direct lattice
  velocities in cartesian coordinates
 exchange correlation table for  LEXCH =       14
   RHO(1)=    0.500       N(1)  =     2000
   RHO(2)=  100.500       N(2)  =     4000
 


--------------------------------------------------------------------------------------------------------


 ion  position               nearest neighbor table
   1  0.991  0.011  0.000-  28 1.80  43 1.84  92 1.95  91 1.95  73 2.05  58 2.08
   2  1.000  0.010  0.344-  46 1.82  29 1.83  85 1.95  74 1.95  91 2.06  59 2.08
   3  0.009  0.006  0.658-  37 1.82  46 1.84  30 1.90  92 2.05  60 2.06  86 2.06
   4  0.990  0.325  0.009-  44 1.84  47 1.85  28 1.86  75 2.04  55 2.05  94 2.07
   5  0.000  0.325  0.322-  47 1.80  29 1.84  87 1.95  76 1.95  56 2.07  93 2.09
   6  0.999  0.321  0.667-  30 1.76  94 1.93  93 1.93  77 1.93  88 1.94  57 2.11
   7  0.011  0.666  0.009-  38 1.81  48 1.84  58 1.93  55 1.94  89 2.07  96 2.07
   8  0.989  0.666  0.323-  48 1.81  45 1.82  59 1.93  56 1.93  95 2.07  78 2.10
   9  0.013  0.667  0.667-  39 1.77  57 1.91  60 1.92  96 1.92  95 1.92  90 2.11
  10  0.334  0.999  0.988-  49 1.76  79 1.93  61 1.94  73 1.94  64 1.94  97 2.07
  11  0.345  0.011  0.332-  40 1.80  31 1.81  97 1.95  98 1.95  74 2.07  65 2.12
  12  0.323  0.010  0.672-  32 1.82  37 1.84  49 1.91  98 2.02  80 2.06  66 2.09
  13  0.333  0.344  0.988-  50 1.81  33 1.83  75 1.94  81 1.95  99 2.07  61 2.08
  14  0.344  0.322  0.334-  41 1.80  31 1.82  99 1.95 100 1.95  76 2.06  62 2.13
  15  0.342  0.323  0.673-  32 1.84  50 1.86  42 1.86 100 2.04  77 2.07  63 2.09
  16  0.325  0.657  0.992-  33 1.82  38 1.85  51 1.87  82 2.03  64 2.06 101 2.09
  17  0.334  0.667  0.335-  62 1.88  65 1.88 102 1.89 101 1.89  78 1.90  83 1.90
  18  0.327  0.667  0.680-  51 1.77  39 1.87  63 1.92  66 1.92  84 2.06 102 2.12
  19  0.677  0.991  0.999-  43 1.80  36 1.85 103 1.94 104 1.95  67 2.04  79 2.07
  20  0.660  0.011  0.342-  34 1.82  40 1.87  52 1.87 103 2.05  85 2.05  71 2.09
  21  0.668  0.011  0.655-  52 1.80  35 1.82  86 1.95  80 1.95 104 2.06  72 2.12
  22  0.677  0.334  0.011-  53 1.81  44 1.82  67 1.97  68 1.97  81 2.06 106 2.07
  23  0.659  0.324  0.325-  34 1.83  53 1.85  41 1.87  87 2.05 105 2.06  69 2.09
  24  0.655  0.323  0.666-  42 1.80  35 1.81 105 1.94 106 1.94  88 2.08  70 2.12
  25  0.667  0.676  0.010-  36 1.81  54 1.82  82 1.94  89 1.94  68 2.03 108 2.11
  26  0.678  0.666  0.322-  54 1.81  45 1.81  71 1.92  69 1.92  83 2.10 107 2.11
  27  0.668  0.667  0.666-  70 1.88  72 1.88 108 1.89  90 1.89 107 1.89  84 1.91
  28  0.007  0.165  1.000-   1 1.80   4 1.86
  29  0.999  0.167  0.332-   2 1.83   5 1.84
  30  0.999  0.169  0.669-   6 1.76   3 1.90
  31  0.326  0.166  0.338-  11 1.81  14 1.82
  32  0.331  0.166  0.659-  12 1.82  15 1.84
  33  0.335  0.501  0.005-  16 1.82  13 1.83
  34  0.675  0.167  0.336-  20 1.82  23 1.83
  35  0.669  0.167  0.665-  24 1.81  21 1.82
  36  0.667  0.831  0.998-  25 1.81  19 1.85
  37  0.166  0.991  0.666-   3 1.82  12 1.84
  38  0.166  0.672  0.998-   7 1.81  16 1.85
  39  0.166  0.671  0.668-   9 1.77  18 1.87
  40  0.499  0.999  0.332-  11 1.80  20 1.87
  41  0.498  0.335  0.338-  14 1.80  23 1.87
  42  0.501  0.338  0.659-  24 1.80  15 1.86
  43  0.833  0.004  0.998-  19 1.80   1 1.84
  44  0.832  0.332  0.993-  22 1.82   4 1.84
  45  0.833  0.667  0.341-  26 1.81   8 1.82
  46  0.992  0.997  0.500-   2 1.82   3 1.84
  47  0.997  0.342  0.168-   5 1.80   4 1.85
  48  0.998  0.662  0.167-   8 1.81   7 1.84
  49  0.337  0.998  0.836-  10 1.76  12 1.91
  50  0.332  0.333  0.833-  13 1.81  15 1.86
  51  0.340  0.670  0.832-  18 1.77  16 1.87
  52  0.675  0.992  0.502-  21 1.80  20 1.87
  53  0.669  0.340  0.167-  22 1.81  23 1.85
  54  0.669  0.660  0.167-  26 1.81  25 1.82
  55  0.002  0.501  0.991-   7 1.94   4 2.05
  56  0.007  0.502  0.345-   8 1.93   5 2.07
  57  0.996  0.503  0.665-   9 1.91   6 2.11
  58  0.993  0.832  0.998-   7 1.93   1 2.08
  59  0.006  0.831  0.333-   8 1.93   2 2.08
  60  0.989  0.830  0.670-   9 1.92   3 2.06
  61  0.328  0.165  0.006-  10 1.94  13 2.08
  62  0.331  0.505  0.329-  17 1.88  14 2.13
  63  0.333  0.503  0.661-  18 1.92  15 2.09
  64  0.342  0.833  0.008-  10 1.94  16 2.06
  65  0.331  0.829  0.334-  17 1.88  11 2.12
  66  0.344  0.831  0.659-  18 1.92  12 2.09
  67  0.660  0.166  0.998-  22 1.97  19 2.04
  68  0.661  0.502  0.991-  22 1.97  25 2.03
  69  0.662  0.503  0.345-  26 1.92  23 2.09
  70  0.672  0.504  0.665-  27 1.88  24 2.12
  71  0.663  0.831  0.331-  26 1.92  20 2.09
  72  0.666  0.829  0.675-  27 1.88  21 2.12
  73  0.167  0.988  0.000-  10 1.94   1 2.05
  74  0.167  0.992  0.335-   2 1.95  11 2.07
  75  0.166  0.336  0.001-  13 1.94   4 2.04
  76  0.167  0.342  0.335-   5 1.95  14 2.06
  77  0.165  0.343  0.663-   6 1.93  15 2.07
  78  0.170  0.667  0.337-  17 1.90   8 2.10
  79  0.500  0.004  0.008-  10 1.93  19 2.07
  80  0.500  0.994  0.663-  21 1.95  12 2.06
  81  0.500  0.328  0.001-  13 1.95  22 2.06
  82  0.500  0.667  0.002-  25 1.94  16 2.03
  83  0.498  0.667  0.337-  17 1.90  26 2.10
  84  0.503  0.662  0.661-  27 1.91  18 2.06
  85  0.834  0.988  0.322-   2 1.95  20 2.05
  86  0.833  0.993  0.681-  21 1.95   3 2.06
  87  0.834  0.346  0.340-   5 1.95  23 2.05
  88  0.834  0.342  0.673-   6 1.94  24 2.08
  89  0.833  0.660  0.992-  25 1.94   7 2.07
  90  0.831  0.667  0.662-  27 1.89   9 2.11
  91  0.005  0.992  0.167-   1 1.95   2 2.06
  92  0.003  0.994  0.834-   1 1.95   3 2.05
  93  0.998  0.338  0.502-   6 1.93   5 2.09
  94  0.007  0.341  0.832-   6 1.93   4 2.07
  95  0.003  0.671  0.501-   9 1.92   8 2.07
  96  0.992  0.666  0.831-   9 1.92   7 2.07
  97  0.328  0.997  0.166-  11 1.95  10 2.07
  98  0.333  0.989  0.499-  11 1.95  12 2.02
  99  0.331  0.332  0.167-  14 1.95  13 2.07
 100  0.324  0.345  0.499-  14 1.95  15 2.04
 101  0.336  0.671  0.171-  17 1.89  16 2.09
 102  0.336  0.665  0.498-  17 1.89  18 2.12
 103  0.667  0.999  0.166-  19 1.94  20 2.05
 104  0.657  0.999  0.833-  19 1.95  21 2.06
 105  0.677  0.342  0.501-  24 1.94  23 2.06
 106  0.661  0.338  0.833-  24 1.94  22 2.07
 107  0.662  0.674  0.503-  27 1.89  26 2.11
 108  0.664  0.662  0.829-  27 1.89  25 2.11
 

IMPORTANT INFORMATION: All symmetrisations will be switched off!
NOSYMM: (Re-)initialisation of all symmetry stuff for point group C_1.


----------------------------------------------------------------------------------------

                                     Primitive cell                                     

  volume of cell :    1557.1013

  direct lattice vectors                    reciprocal lattice vectors
    11.581912225  0.003231010 -0.003399699     0.086341542 -0.000023877  0.000024076
     0.003206330 11.598237707  0.003708813    -0.000024061  0.086220011 -0.000027431
    -0.003231313  0.003687024 11.591635092     0.000025331 -0.000027594  0.086269122

  length of vectors
    11.581913174 11.598238743 11.591636128     0.086341549  0.086220018  0.086269130

  position of ions in fractional coordinates (direct lattice)
     0.991348104  0.011317247  0.000273677
     0.999883976  0.009962103  0.343789341
     0.009290623  0.005697462  0.657598750
     0.990223370  0.324896871  0.008742667
     0.000212573  0.325053731  0.321749698
     0.999199909  0.320655022  0.666909679
     0.011037102  0.666486468  0.009130199
     0.989139648  0.666313734  0.322793356
     0.013358059  0.666627422  0.666678317
     0.334020380  0.998937757  0.987696957
     0.344522720  0.011317244  0.332364523
     0.323160593  0.009699028  0.671672766
     0.332907556  0.343611050  0.988250307
     0.343966881  0.321931298  0.333766729
     0.341591497  0.323316941  0.673325430
     0.325248242  0.656551970  0.991927282
     0.333585089  0.666956966  0.334553111
     0.326577353  0.667451289  0.680226286
     0.677437932  0.990851599  0.999344083
     0.659568659  0.010965352  0.342393221
     0.667623743  0.010653936  0.655328566
     0.676738180  0.333947216  0.010842123
     0.659018576  0.324229911  0.325474757
     0.654762592  0.322618420  0.666071735
     0.667486136  0.676043988  0.010484040
     0.678310026  0.666487127  0.322347956
     0.667645409  0.666556133  0.666186728
     0.007039475  0.165351090  0.999682169
     0.999497326  0.167007636  0.331895824
     0.998618420  0.168971762  0.669243582
     0.325847979  0.166347638  0.338016040
     0.330793080  0.166015916  0.659290007
     0.335358716  0.500725302  0.004561670
     0.674568865  0.167424224  0.336280858
     0.669338651  0.166948726  0.665005523
     0.667443290  0.831441633  0.997633158
     0.165732594  0.990868228  0.665539294
     0.166479233  0.671594450  0.998229490
     0.165780282  0.671014083  0.668475133
     0.499223464  0.999370381  0.332171392
     0.498453872  0.334642744  0.338331879
     0.500565430  0.338201919  0.659225274
     0.832572187  0.003727021  0.998423641
     0.832389938  0.332118272  0.992579739
     0.833394854  0.666752912  0.341057732
     0.992077834  0.997127198  0.499838838
     0.997452534  0.341565617  0.167522723
     0.998068836  0.661687120  0.167061909
     0.336743252  0.997632734  0.835712564
     0.332062161  0.333390508  0.832751383
     0.340234037  0.669643257  0.831873679
     0.674586414  0.991696799  0.501689810
     0.669056563  0.339844772  0.166641283
     0.669051626  0.660497868  0.166937666
     0.001996903  0.500675331  0.990872193
     0.006548563  0.502178143  0.344547503
     0.995818093  0.502871774  0.664568487
     0.993164561  0.831925505  0.997599093
     0.006178674  0.831258110  0.332810024
     0.989051984  0.829935715  0.669799572
     0.327577167  0.165117799  0.006349898
     0.331498657  0.504712354  0.328896881
     0.332563698  0.503115511  0.661196640
     0.341756180  0.832703911  0.007584822
     0.331087571  0.829330294  0.333626945
     0.343676686  0.830790797  0.659141170
     0.660031490  0.165552311  0.997515417
     0.660815730  0.502084722  0.990595552
     0.661629604  0.503294900  0.345103291
     0.671536421  0.504365372  0.664534439
     0.662549643  0.831067497  0.330557480
     0.665756172  0.828630477  0.675206005
     0.167219156  0.988416867  0.000326560
     0.167277614  0.991924185  0.334753418
     0.166041790  0.336304031  0.001302382
     0.167077881  0.341974433  0.334676238
     0.164506748  0.343380486  0.662877761
     0.169765365  0.666701240  0.337254129
     0.499647685  0.003726583  0.007744172
     0.500258419  0.994172281  0.663022461
     0.499626953  0.327777505  0.000965710
     0.500148812  0.667448152  0.002341320
     0.497606130  0.667214155  0.337308257
     0.503183981  0.662086432  0.660845678
     0.834152402  0.988495349  0.321637070
     0.833052463  0.993070741  0.680889330
     0.834450410  0.346221852  0.339665067
     0.833546849  0.341718291  0.672955810
     0.833469130  0.660333194  0.991716500
     0.830973005  0.666717097  0.662445241
     0.005116982  0.991597108  0.166874154
     0.003354566  0.993531897  0.833671210
     0.998242221  0.337563582  0.501521830
     0.007480389  0.340510730  0.831684469
     0.002679295  0.670693395  0.501167696
     0.992205938  0.666128163  0.831172697
     0.327840910  0.996674391  0.165946349
     0.333353320  0.989063706  0.498849130
     0.331086265  0.332020513  0.166679126
     0.323816843  0.344802282  0.499194740
     0.335989959  0.671055070  0.171251021
     0.335721004  0.665348528  0.497885255
     0.666557695  0.998910504  0.166256350
     0.657148180  0.998947394  0.832762290
     0.677101846  0.341518478  0.501289192
     0.660929742  0.337753972  0.832636127
     0.662118525  0.673559897  0.503105991
     0.663717898  0.662279898  0.829225309

  ion indices of the primitive-cell ions
   primitive index   ion index
                 1           1
                 2           2
                 3           3
                 4           4
                 5           5
                 6           6
                 7           7
                 8           8
                 9           9
                10          10
                11          11
                12          12
                13          13
                14          14
                15          15
                16          16
                17          17
                18          18
                19          19
                20          20
                21          21
                22          22
                23          23
                24          24
                25          25
                26          26
                27          27
                28          28
                29          29
                30          30
                31          31
                32          32
                33          33
                34          34
                35          35
                36          36
                37          37
                38          38
                39          39
                40          40
                41          41
                42          42
                43          43
                44          44
                45          45
                46          46
                47          47
                48          48
                49          49
                50          50
                51          51
                52          52
                53          53
                54          54
                55          55
                56          56
                57          57
                58          58
                59          59
                60          60
                61          61
                62          62
                63          63
                64          64
                65          65
                66          66
                67          67
                68          68
                69          69
                70          70
                71          71
                72          72
                73          73
                74          74
                75          75
                76          76
                77          77
                78          78
                79          79
                80          80
                81          81
                82          82
                83          83
                84          84
                85          85
                86          86
                87          87
                88          88
                89          89
                90          90
                91          91
                92          92
                93          93
                94          94
                95          95
                96          96
                97          97
                98          98
                99          99
               100         100
               101         101
               102         102
               103         103
               104         104
               105         105
               106         106
               107         107
               108         108

----------------------------------------------------------------------------------------

 
 
 KPOINTS: Title                                   

Automatic generation of k-mesh.
 Grid dimensions read from file:
 generate k-points for:    3    3    3

 Generating k-lattice:

  Cartesian coordinates                     Fractional coordinates (reciprocal lattice)
     0.028780514 -0.000007959  0.000008025     0.333333333 -0.000000000  0.000000000
    -0.000008020  0.028740004 -0.000009144    -0.000000000  0.333333333 -0.000000000
     0.000008444 -0.000009198  0.028756374     0.000000000 -0.000000000  0.333333333

  Length of vectors
     0.028780516  0.028740006  0.028756377

  Shift w.r.t. Gamma in fractional coordinates (k-lattice)
     0.000000000  0.000000000  0.000000000

 
 Subroutine IBZKPT returns following result:
 ===========================================
 
 Found     14 irreducible k-points:
 
 Following reciprocal coordinates:
            Coordinates               Weight
  0.000000  0.000000  0.000000      1.000000
  0.333333  0.000000  0.000000      2.000000
 -0.000000  0.333333 -0.000000      2.000000
  0.333333  0.333333 -0.000000      2.000000
 -0.333333  0.333333 -0.000000      2.000000
  0.000000 -0.000000  0.333333      2.000000
  0.333333  0.000000  0.333333      2.000000
 -0.333333 -0.000000  0.333333      2.000000
  0.000000  0.333333  0.333333      2.000000
  0.333333  0.333333  0.333333      2.000000
 -0.333333  0.333333  0.333333      2.000000
  0.000000 -0.333333  0.333333      2.000000
  0.333333 -0.333333  0.333333      2.000000
 -0.333333 -0.333333  0.333333      2.000000
 
 Following cartesian coordinates:
            Coordinates               Weight
  0.000000  0.000000  0.000000      1.000000
  0.028781 -0.000008  0.000008      2.000000
 -0.000008  0.028740 -0.000009      2.000000
  0.028772  0.028732 -0.000001      2.000000
 -0.028789  0.028748 -0.000017      2.000000
  0.000008 -0.000009  0.028756      2.000000
  0.028789 -0.000017  0.028764      2.000000
 -0.028772 -0.000001  0.028748      2.000000
  0.000000  0.028731  0.028747      2.000000
  0.028781  0.028723  0.028755      2.000000
 -0.028780  0.028739  0.028739      2.000000
  0.000016 -0.028749  0.028766      2.000000
  0.028797 -0.028757  0.028774      2.000000
 -0.028764 -0.028741  0.028757      2.000000
 


--------------------------------------------------------------------------------------------------------




 Dimension of arrays:
   k-points           NKPTS =     14   k-points in BZ     NKDIM =     14   number of bands    NBANDS=    540
   number of dos      NEDOS =   3001   number of ions     NIONS =    108
   non local maximal  LDIM  =      6   non local SUM 2l+1 LMDIM =     18
   total plane-waves  NPLWV = ******
   max r-space proj   IRMAX =   8911   max aug-charges    IRDMAX= 199646
   dimension x,y,z NGX =   100 NGY =  100 NGZ =  100
   dimension x,y,z NGXF=   200 NGYF=  200 NGZF=  200
   support grid    NGXF=   400 NGYF=  400 NGZF=  400
   ions per type =              27  27  54
   NGX,Y,Z   is equivalent  to a cutoff of  14.35, 14.33, 14.34 a.u.
   NGXF,Y,Z  is equivalent  to a cutoff of  28.71, 28.67, 28.68 a.u.

 SYSTEM =  LTO                                     
 POSCAR =  Ti27 O27 F54                            

 Startparameter for this run:
   NWRITE =      2    write-flag & timer
   PREC   = accura    normal or accurate (medium, high low for compatibility)
   ISTART =      1    job   : 0-new  1-cont  2-samecut
   ICHARG =      0    charge: 1-file 2-atom 10-const
   ISPIN  =      2    spin polarized calculation?
   LNONCOLLINEAR =      F non collinear calculations
   LSORBIT =      F    spin-orbit coupling
   INIWAV =      1    electr: 0-lowe 1-rand  2-diag
   LASPH  =      T    aspherical Exc in radial PAW
 Electronic Relaxation 1
   ENCUT  =  700.0 eV  51.45 Ry    7.17 a.u.  24.99 25.02 25.01*2*pi/ulx,y,z
   ENINI  =  700.0     initial cutoff
   ENAUG  =  613.6 eV  augmentation charge cutoff
   NELM   =     60;   NELMIN=  2; NELMDL=  0     # of ELM steps 
   EDIFF  = 0.1E-05   stopping-criterion for ELM
   LREAL  =      T    real-space projection
   NLSPLINE    = F    spline interpolate recip. space projectors
   LCOMPAT=      F    compatible to vasp.4.4
   GGA_COMPAT  = T    GGA compatible to vasp.4.4-vasp.4.6
   LMAXPAW     = -100 max onsite density
   LMAXMIX     =    4 max onsite mixed and CHGCAR
   VOSKOWN=      0    Vosko Wilk Nusair interpolation
   ROPT   =   -0.00010  -0.00010  -0.00010
 Ionic relaxation
   EDIFFG = -.1E-01   stopping-criterion for IOM
   NSW    =    100    number of steps for IOM
   NBLOCK =      1;   KBLOCK =    100    inner block; outer block 
   IBRION =      1    ionic relax: 0-MD 1-quasi-New 2-CG
   NFREE  =      0    steps in history (QN), initial steepest desc. (CG)
   ISIF   =      3    stress and relaxation
   IWAVPR =     11    prediction:  0-non 1-charg 2-wave 3-comb
   ISYM   =      0    0-nonsym 1-usesym 2-fastsym
   LCORR  =      T    Harris-Foulkes like correction to forces

   POTIM  = 0.5000    time-step for ionic-motion
   TEIN   =    0.0    initial temperature
   TEBEG  =    0.0;   TEEND  =   0.0 temperature during run
   SMASS  =  -3.00    Nose mass-parameter (am)
   estimated Nose-frequenzy (Omega)   =  0.10E-29 period in steps = 0.13E+47 mass=  -0.307E-26a.u.
   SCALEE = 1.0000    scale energy and forces
   NPACO  =    256;   APACO  = 10.0  distance and # of slots for P.C.
   PSTRESS=    0.0 pullay stress

  Mass of Ions in am
   POMASS =  47.88 16.00 19.00
  Ionic Valenz
   ZVAL   =  10.00  6.00  7.00
  Atomic Wigner-Seitz radii
   RWIGS  =  -1.00 -1.00 -1.00
  virtual crystal weights 
   VCA    =   1.00  1.00  1.00
   NELECT =     810.0000    total number of electrons
   NUPDOWN=      -1.0000    fix difference up-down

 DOS related values:
   EMIN   =  10.00;   EMAX   =-10.00  energy-range for DOS
   EFERMI =   0.00
   ISMEAR =     0;   SIGMA  =   0.01  broadening in eV -4-tet -1-fermi 0-gaus

 Electronic relaxation 2 (details)
   IALGO  =     38    algorithm
   LDIAG  =      T    sub-space diagonalisation (order eigenvalues)
   LSUBROT=      F    optimize rotation matrix (better conditioning)
   TURBO    =      0    0=normal 1=particle mesh
   IRESTART =      0    0=no restart 2=restart with 2 vectors
   NREBOOT  =      0    no. of reboots
   NMIN     =      0    reboot dimension
   EREF     =   0.00    reference energy to select bands
   IMIX   =      4    mixing-type and parameters
     AMIX     =   0.40;   BMIX     =  1.00
     AMIX_MAG =   1.60;   BMIX_MAG =  1.00
     AMIN     =   0.10
     WC   =   100.;   INIMIX=   1;  MIXPRE=   1;  MAXMIX= -45

 Intra band minimization:
   WEIMIN = 0.0010     energy-eigenvalue tresh-hold
   EBREAK =  0.46E-09  absolut break condition
   DEPER  =   0.30     relativ break condition  

   TIME   =   0.40     timestep for ELM

  volume/ion in A,a.u.               =      14.42        97.29
  Fermi-wavevector in a.u.,A,eV,Ry     =   1.316631  2.488073 23.585948  1.733518
  Thomas-Fermi vector in A             =   2.446730
 
 Write flags
   LWAVE        =      T    write WAVECAR
   LDOWNSAMPLE  =      F    k-point downsampling of WAVECAR
   LCHARG       =      T    write CHGCAR
   LVTOT        =      F    write LOCPOT, total local potential
   LVHAR        =      F    write LOCPOT, Hartree potential only
   LELF         =      F    write electronic localiz. function (ELF)
   LORBIT       =     11    0 simple, 1 ext, 2 COOP (PROOUT), +10 PAW based schemes


 Dipole corrections
   LMONO  =      F    monopole corrections only (constant potential shift)
   LDIPOL =      F    correct potential (dipole corrections)
   IDIPOL =      0    1-x, 2-y, 3-z, 4-all directions 
   EPSILON=  1.0000000 bulk dielectric constant

 LDA+U is selected, type is set to LDAUTYPE =  2
   angular momentum for each species LDAUL =     2   -1   -1
   U (eV)           for each species LDAUU =   4.2  0.0  0.0
   J (eV)           for each species LDAUJ =   0.0  0.0  0.0
 Exchange correlation treatment:
   GGA     =    PS    GGA type
   LEXCH   =    14    internal setting for exchange type
   LIBXC   =     F    Libxc                    
   VOSKOWN =     0    Vosko Wilk Nusair interpolation
   LHFCALC =     F    Hartree Fock is set to
   LHFONE  =     F    Hartree Fock one center treatment
   AEXX    =    0.0000 exact exchange contribution

 Linear response parameters
   LEPSILON=     F    determine dielectric tensor
   LRPA    =     F    only Hartree local field effects (RPA)
   LNABLA  =     F    use nabla operator in PAW spheres
   LVEL    =     F    velocity operator in full k-point grid
   CSHIFT  =0.1000    complex shift for real part using Kramers Kronig
   OMEGAMAX=  -1.0    maximum frequency
   DEG_THRESHOLD= 0.2000000E-02 threshold for treating states as degnerate
   RTIME   =   -0.100 relaxation time in fs
  (WPLASMAI=    0.000 imaginary part of plasma frequency in eV, 0.658/RTIME)
   DFIELD  = 0.0000000 0.0000000 0.0000000 field for delta impulse in time
 
  Optional k-point grid parameters
   LKPOINTS_OPT  =     F    use optional k-point grid
   KPOINTS_OPT_MODE=     1    mode for optional k-point grid
 
 Orbital magnetization related:
   ORBITALMAG=     F  switch on orbital magnetization
   LCHIMAG   =     F  perturbation theory with respect to B field
   DQ        =  0.001000  dq finite difference perturbation B field
   LLRAUG    =     F  two centre corrections for induced B field



--------------------------------------------------------------------------------------------------------


 quasi-Newton-method for relaxation of ions
 charge density and potential will be updated during run
 spin polarized calculation
 Variant of blocked Davidson
 Davidson routine will perform the subspace rotation
 perform sub-space diagonalisation
    after iterative eigenvector-optimisation
 modified Broyden-mixing scheme, WC =      100.0
 initial mixing is a Kerker type mixing with AMIX =  0.4000 and BMIX =      1.0000
 Hartree-type preconditioning will be used
 using additional bands          135
 real space projection scheme for non local part
 use partial core corrections
 calculate Harris-corrections to forces 
   (improved forces if not selfconsistent)
 use gradient corrections 
 use of overlap-Matrix (Vanderbilt PP)
 Gauss-broadening in eV      SIGMA  =   0.01


--------------------------------------------------------------------------------------------------------


  energy-cutoff  :      700.00
  volume of cell :     1557.10
      direct lattice vectors                 reciprocal lattice vectors
    11.581912225  0.003231010 -0.003399699     0.086341542 -0.000023877  0.000024076
     0.003206330 11.598237707  0.003708813    -0.000024061  0.086220011 -0.000027431
    -0.003231313  0.003687024 11.591635092     0.000025331 -0.000027594  0.086269122

  length of vectors
    11.581913174 11.598238743 11.591636128     0.086341549  0.086220018  0.086269130


 
 old parameters found on file WAVECAR:
  energy-cutoff  :      700.00
  volume of cell :     1557.10
      direct lattice vectors                 reciprocal lattice vectors
    11.581912225  0.003231010 -0.003399699     0.086341542 -0.000023877  0.000024076
     0.003206330 11.598237707  0.003708813    -0.000024061  0.086220011 -0.000027431
    -0.003231313  0.003687024 11.591635092     0.000025331 -0.000027594  0.086269122

  length of vectors

 
 k-points in units of 2pi/SCALE and weight: Title                                   
   0.00000000  0.00000000  0.00000000       0.037
   0.02878051 -0.00000796  0.00000803       0.074
  -0.00000802  0.02874000 -0.00000914       0.074
   0.02877249  0.02873204 -0.00000112       0.074
  -0.02878853  0.02874796 -0.00001717       0.074
   0.00000844 -0.00000920  0.02875637       0.074
   0.02878896 -0.00001716  0.02876440       0.074
  -0.02877207 -0.00000124  0.02874835       0.074
   0.00000042  0.02873081  0.02874723       0.074
   0.02878094  0.02872285  0.02875526       0.074
  -0.02878009  0.02873876  0.02873920       0.074
   0.00001646 -0.02874920  0.02876552       0.074
   0.02879698 -0.02875716  0.02877354       0.074
  -0.02876405 -0.02874124  0.02875749       0.074
 
 k-points in reciprocal lattice and weights: Title                                   
   0.00000000  0.00000000  0.00000000       0.037
   0.33333333  0.00000000  0.00000000       0.074
  -0.00000000  0.33333333 -0.00000000       0.074
   0.33333333  0.33333333 -0.00000000       0.074
  -0.33333333  0.33333333 -0.00000000       0.074
   0.00000000 -0.00000000  0.33333333       0.074
   0.33333333  0.00000000  0.33333333       0.074
  -0.33333333 -0.00000000  0.33333333       0.074
   0.00000000  0.33333333  0.33333333       0.074
   0.33333333  0.33333333  0.33333333       0.074
  -0.33333333  0.33333333  0.33333333       0.074
   0.00000000 -0.33333333  0.33333333       0.074
   0.33333333 -0.33333333  0.33333333       0.074
  -0.33333333 -0.33333333  0.33333333       0.074
 
 position of ions in fractional coordinates (direct lattice) 
   0.99134810  0.01131725  0.00027368
   0.99988398  0.00996210  0.34378934
   0.00929062  0.00569746  0.65759875
   0.99022337  0.32489687  0.00874267
   0.00021257  0.32505373  0.32174970
   0.99919991  0.32065502  0.66690968
   0.01103710  0.66648647  0.00913020
   0.98913965  0.66631373  0.32279336
   0.01335806  0.66662742  0.66667832
   0.33402038  0.99893776  0.98769696
   0.34452272  0.01131724  0.33236452
   0.32316059  0.00969903  0.67167277
   0.33290756  0.34361105  0.98825031
   0.34396688  0.32193130  0.33376673
   0.34159150  0.32331694  0.67332543
   0.32524824  0.65655197  0.99192728
   0.33358509  0.66695697  0.33455311
   0.32657735  0.66745129  0.68022629
   0.67743793  0.99085160  0.99934408
   0.65956866  0.01096535  0.34239322
   0.66762374  0.01065394  0.65532857
   0.67673818  0.33394722  0.01084212
   0.65901858  0.32422991  0.32547476
   0.65476259  0.32261842  0.66607174
   0.66748614  0.67604399  0.01048404
   0.67831003  0.66648713  0.32234796
   0.66764541  0.66655613  0.66618673
   0.00703947  0.16535109  0.99968217
   0.99949733  0.16700764  0.33189582
   0.99861842  0.16897176  0.66924358
   0.32584798  0.16634764  0.33801604
   0.33079308  0.16601592  0.65929001
   0.33535872  0.50072530  0.00456167
   0.67456886  0.16742422  0.33628086
   0.66933865  0.16694873  0.66500552
   0.66744329  0.83144163  0.99763316
   0.16573259  0.99086823  0.66553929
   0.16647923  0.67159445  0.99822949
   0.16578028  0.67101408  0.66847513
   0.49922346  0.99937038  0.33217139
   0.49845387  0.33464274  0.33833188
   0.50056543  0.33820192  0.65922527
   0.83257219  0.00372702  0.99842364
   0.83238994  0.33211827  0.99257974
   0.83339485  0.66675291  0.34105773
   0.99207783  0.99712720  0.49983884
   0.99745253  0.34156562  0.16752272
   0.99806884  0.66168712  0.16706191
   0.33674325  0.99763273  0.83571256
   0.33206216  0.33339051  0.83275138
   0.34023404  0.66964326  0.83187368
   0.67458641  0.99169680  0.50168981
   0.66905656  0.33984477  0.16664128
   0.66905163  0.66049787  0.16693767
   0.00199690  0.50067533  0.99087219
   0.00654856  0.50217814  0.34454750
   0.99581809  0.50287177  0.66456849
   0.99316456  0.83192550  0.99759909
   0.00617867  0.83125811  0.33281002
   0.98905198  0.82993571  0.66979957
   0.32757717  0.16511780  0.00634990
   0.33149866  0.50471235  0.32889688
   0.33256370  0.50311551  0.66119664
   0.34175618  0.83270391  0.00758482
   0.33108757  0.82933029  0.33362694
   0.34367669  0.83079080  0.65914117
   0.66003149  0.16555231  0.99751542
   0.66081573  0.50208472  0.99059555
   0.66162960  0.50329490  0.34510329
   0.67153642  0.50436537  0.66453444
   0.66254964  0.83106750  0.33055748
   0.66575617  0.82863048  0.67520600
   0.16721916  0.98841687  0.00032656
   0.16727761  0.99192418  0.33475342
   0.16604179  0.33630403  0.00130238
   0.16707788  0.34197443  0.33467624
   0.16450675  0.34338049  0.66287776
   0.16976536  0.66670124  0.33725413
   0.49964769  0.00372658  0.00774417
   0.50025842  0.99417228  0.66302246
   0.49962695  0.32777751  0.00096571
   0.50014881  0.66744815  0.00234132
   0.49760613  0.66721415  0.33730826
   0.50318398  0.66208643  0.66084568
   0.83415240  0.98849535  0.32163707
   0.83305246  0.99307074  0.68088933
   0.83445041  0.34622185  0.33966507
   0.83354685  0.34171829  0.67295581
   0.83346913  0.66033319  0.99171650
   0.83097301  0.66671710  0.66244524
   0.00511698  0.99159711  0.16687415
   0.00335457  0.99353190  0.83367121
   0.99824222  0.33756358  0.50152183
   0.00748039  0.34051073  0.83168447
   0.00267930  0.67069339  0.50116770
   0.99220594  0.66612816  0.83117270
   0.32784091  0.99667439  0.16594635
   0.33335332  0.98906371  0.49884913
   0.33108626  0.33202051  0.16667913
   0.32381684  0.34480228  0.49919474
   0.33598996  0.67105507  0.17125102
   0.33572100  0.66534853  0.49788526
   0.66655769  0.99891050  0.16625635
   0.65714818  0.99894739  0.83276229
   0.67710185  0.34151848  0.50128919
   0.66092974  0.33775397  0.83263613
   0.66211852  0.67355990  0.50310599
   0.66371790  0.66227990  0.82922531
 
 position of ions in cartesian coordinates  (Angst):
  11.48174213  0.13446418 -0.00015595
  11.57948950  0.12004104  3.98171824
   0.10549654  0.06853512  7.62263429
  11.46969363  3.77146280  0.09918032
   0.00246456  3.77123742  3.73080993
  11.57151877  3.72472050  7.72836591
   0.12993822  7.73013780  0.10826829
  11.45722195  7.73245115  3.74081125
   0.15469505  7.73420452  7.73031876
   3.86860609 11.59063845 11.45159201
   3.98919421  0.13359868  3.85151897
   3.74067833  0.11601224  7.78472292
   3.85361447  3.99000197 11.45557955
   3.98374794  3.73617768  3.86892673
   3.95514367  3.75349299  7.80498049
   3.76589648  7.61955396 11.49938837
   3.86461066  7.73783676  3.87935711
   3.78233228  7.74482189  7.88630007
   7.84597447 11.49800580 11.58540374
   7.63799509  0.13057224  3.96669561
   7.73027617  0.12814020  7.59409940
   7.83895792  3.87542571  0.12461577
   7.63268318  3.76382491  3.77174666
   7.58228500  3.74637649  7.71983104
   7.73289958  7.84311419  0.12176523
   7.85722255  7.73345625  3.73670571
   7.73259506  7.73548990  7.72239580
   0.07883046  1.92148984 11.58854023
  11.57555332  1.94144736  3.84443669
  11.56429013  1.96546872  7.75485907
   3.77338382  1.93163854  3.91766776
   3.82961835  1.92899167  7.64174030
   3.88568596  5.80863144  0.05359420
   7.81224757  1.94524536  3.89637261
   7.75060796  1.94092554  7.70684499
   7.72971181  9.64909251 11.56501408
   1.92052684 11.49531458  7.71780013
   1.92707562  7.79353046 11.57303682
   1.92004412  7.78558116  7.75064487
   5.78409330 11.59377296  3.85241884
   5.77302871  3.88412403  3.92136622
   5.79645909  3.92659417  7.64105138
   9.63956372  0.04959813 11.57054585
   9.63852474  3.85833579 11.50402402
   9.65334181  7.73710896  3.95305634
  11.49174038 11.56996660  5.79427481
  11.55296155  3.96539966  1.93973804
  11.56112741  7.67824524  1.93558162
   3.90062908 11.57495091  9.68983029
   3.84429289  3.87088564  9.65305772
   3.94001981  7.77084811  9.64410302
   7.81455922 11.50596455  5.81678984
   7.74950557  3.94437658  1.93063078
   7.75047555  7.66338850  1.93525560
   0.02153147  5.81061132 11.48767901
   0.07634169  5.82567299  3.99570915
  11.53294269  5.83809415  7.70191497
  11.50218865  9.65575686 11.56351365
   0.07315073  9.64237620  3.86087433
  11.45560998  9.63145691  7.76378782
   3.79447889  1.91615730  0.07310443
   3.83994386  5.85605758  3.81319751
   3.85120018  5.83876566  7.66508552
   3.96083550  9.65903008  0.08984696
   3.83620824  9.62106972  3.86923203
   3.98096711  9.63924984  7.64243677
   7.64173431  1.92592548 11.56120481
   7.65191870  5.82908540 11.48223773
   7.66343459  5.84074402  3.99992870
   7.77714573  5.85436937  7.70262829
   7.67518835  9.64227785  3.83253148
   7.71120460  9.61529381  7.82755148
   1.93988572 11.46443527  0.00688272
   1.93949339 11.50634720  3.88344963
   1.92415553  3.90107537  0.01577953
   1.93509639  3.96807456  3.88014513
   1.90426175  3.98558407  7.68455137
   1.96725544  7.73435143  3.91122232
   5.78686256  0.04486471  0.08808278
   5.79499431 11.53470735  7.68750090
   5.78768336  3.80325928  0.01071125
   5.79481214  7.74284695  0.02791481
   5.76427988  7.74135980  3.91073710
   5.82782017  7.68309816  7.66102683
   9.66321003 11.46868506  3.72912983
   9.64932445 11.52307257  7.89347164
   9.66454394  4.01951181  3.93572070
   9.65298757  3.96850438  7.79909174
   9.65207900  7.66505078 11.49523129
   9.62425356  7.73787070  7.67847118
   0.06190460 11.50141077  1.93800455
   0.03934403 11.52630372  9.66728587
  11.56101555  3.92021712  5.81131628
   0.08504157  3.95241500  9.64182033
   0.03156240  7.78071789  5.81183142
  11.49109213  7.73218316  9.63374794
   3.79968409 11.56133761  1.92617144
   3.86242822 11.47431231  5.78501203
   3.83513803  3.85253713  1.93218942
   3.74991075  4.00198562  5.78666119
   3.89300447  7.78477321  1.98642590
   3.88881570  7.71979082  5.77263050
   7.72267833 11.58836812  1.92862162
   7.61154458 11.59122299  9.65454738
   7.84160934  3.96504848  5.80972608
   7.65322270  3.92255628  9.65061986
   7.66913260  7.81610207  5.83206816
   7.68656644  7.68648154  9.61227703
 


--------------------------------------------------------------------------------------------------------


 k-point   1 :   0.0000 0.0000 0.0000  plane waves:   65255
 k-point   2 :   0.3333 0.0000 0.0000  plane waves:   65422
 k-point   3 :  -0.0000 0.3333-0.0000  plane waves:   65448
 k-point   4 :   0.3333 0.3333-0.0000  plane waves:   65453
 k-point   5 :  -0.3333 0.3333-0.0000  plane waves:   65458
 k-point   6 :   0.0000-0.0000 0.3333  plane waves:   65432
 k-point   7 :   0.3333 0.0000 0.3333  plane waves:   65476
 k-point   8 :  -0.3333-0.0000 0.3333  plane waves:   65454
 k-point   9 :   0.0000 0.3333 0.3333  plane waves:   65477
 k-point  10 :   0.3333 0.3333 0.3333  plane waves:   65519
 k-point  11 :  -0.3333 0.3333 0.3333  plane waves:   65511
 k-point  12 :   0.0000-0.3333 0.3333  plane waves:   65483
 k-point  13 :   0.3333-0.3333 0.3333  plane waves:   65517
 k-point  14 :  -0.3333-0.3333 0.3333  plane waves:   65517

 maximum and minimum number of plane-waves per node :      8238     8128

 maximum number of plane-waves:     65519
 maximum index in each direction: 
   IXMAX=   25   IYMAX=   25   IZMAX=   25
   IXMIN=  -25   IYMIN=  -25   IZMIN=  -25


 real space projection operators:
  total allocation   :      54071.31 KBytes
  max/ min on nodes  :       7373.97       6146.45


 parallel 3D FFT for wavefunctions:
    minimum data exchange during FFTs selected (reduces bandwidth)
 parallel 3D FFT for charge:
    minimum data exchange during FFTs selected (reduces bandwidth)


 total amount of memory used by VASP MPI-rank0   298188. kBytes
=======================================================================

   base      :      30000. kBytes
   nonlr-proj:      25305. kBytes
   fftplans  :      18873. kBytes
   grid      :      21088. kBytes
   one-center:        435. kBytes
   wavefun   :     202487. kBytes
 
     INWAV:  cpu time     34.6729: real time     34.7774
 Broyden mixing: mesh for mixing (old mesh)
   NGX = 49   NGY = 51   NGZ = 51
  (NGX  =200   NGY  =200   NGZ  =200)
  gives a total of 127449 points

 charge density for first step will be calculated from the start-wavefunctions


--------------------------------------------------------------------------------------------------------


 Maximum index for non-local projection operator         1367
 Maximum index for augmentation-charges         4044 (set IRDMAX)


--------------------------------------------------------------------------------------------------------


 initial charge from wavefunction
 First call to EWALD:  gamma=   0.153
 Maximum number of real-space cells 3x 3x 3
 Maximum number of reciprocal cells 3x 3x 3

    FEWALD:  cpu time      0.0056: real time      0.0056


--------------------------------------- Iteration      1(   1)  ---------------------------------------


    POTLOK:  cpu time      0.1698: real time      0.1738
    SETDIJ:  cpu time      0.8902: real time      0.8953
     EDDAV:  cpu time    108.9067: real time    109.2085
       DOS:  cpu time      0.0030: real time      0.0035
    CHARGE:  cpu time      3.9896: real time      3.9996
    MIXING:  cpu time      0.0048: real time      0.0052
    --------------------------------------------
      LOOP:  cpu time    113.9642: real time    114.2861

 eigenvalue-minimisations  : 39160
 total energy-change (2. order) :-0.7209189E+03  (-0.8336553E-06)
 number of electron     810.0000012 magnetization       0.0000000
 augmentation part      209.1264281 magnetization       0.0000000

 Broyden mixing:
  rms(total) = 0.67799E-03    rms(broyden)= 0.67301E-03
  rms(prec ) = 0.95983E-03
  weight for this iteration     100.00

 Free energy of the ion-electron system (eV)
  ---------------------------------------------------
  alpha Z        PSCENC =      2561.56155029
  Ewald energy   TEWEN  =    -43260.57108525
  -Hartree energ DENC   =    -27758.68658991
  -exchange      EXHF   =         0.00000000
  -V(xc)+E(xc)   XCENC  =      3779.43954988
  PAW double counting   =     60874.84406733   -61290.30542351
  entropy T*S    EENTRO =        -0.00000000
  eigenvalues    EBANDS =    -10897.64308681
  atomic energy  EATOM  =     75270.44210491
  Solvation  Ediel_sol  =         0.00000000
  ---------------------------------------------------
  free energy    TOTEN  =      -720.91891307 eV

  energy without entropy =     -720.91891307  energy(sigma->0) =     -720.91891307


--------------------------------------------------------------------------------------------------------




--------------------------------------- Iteration      1(   2)  ---------------------------------------


    POTLOK:  cpu time      0.1863: real time      0.1942
    SETDIJ:  cpu time      0.8845: real time      0.8866
     EDDAV:  cpu time     92.3077: real time     92.5423
       DOS:  cpu time      0.0048: real time      0.0048
    --------------------------------------------
      LOOP:  cpu time     93.3833: real time     93.6279

 eigenvalue-minimisations  : 31980
 total energy-change (2. order) : 0.8623028E-06  (-0.5448830E-06)
 number of electron     810.0000012 magnetization       0.0000000
 augmentation part      209.1264281 magnetization       0.0000000

 Free energy of the ion-electron system (eV)
  ---------------------------------------------------
  alpha Z        PSCENC =      2561.56155029
  Ewald energy   TEWEN  =    -43260.57108525
  -Hartree energ DENC   =    -27758.72316320
  -exchange      EXHF   =         0.00000000
  -V(xc)+E(xc)   XCENC  =      3779.44236831
  PAW double counting   =     60874.87900954   -61290.34448063
  entropy T*S    EENTRO =        -0.00000000
  eigenvalues    EBANDS =    -10897.60521617
  atomic energy  EATOM  =     75270.44210491
  Solvation  Ediel_sol  =         0.00000000
  ---------------------------------------------------
  free energy    TOTEN  =      -720.91891221 eV

  energy without entropy =     -720.91891221  energy(sigma->0) =     -720.91891221


--------------------------------------------------------------------------------------------------------




 average (electrostatic) potential at core
  the test charge radii are     1.0397  0.7215  0.7167
  (the norm of the test charge is              1.0000)
       1 -58.6717       2 -58.6899       3 -58.4806       4 -58.3783       5 -58.6389
       6 -59.1249       7 -58.8364       8 -58.8999       9 -59.4567      10 -59.1083
      11 -58.5964      12 -58.4361      13 -58.6425      14 -58.5843      15 -58.3849
      16 -58.5524      17 -60.4301      18 -58.9807      19 -58.7962      20 -58.3495
      21 -58.6186      22 -58.5435      23 -58.3130      24 -58.6119      25 -58.8634
      26 -58.8817      27 -60.4803      28 -73.9554      29 -74.0233      30 -74.3072
      31 -74.1217      32 -73.9174      33 -74.0218      34 -73.8305      35 -74.1566
      36 -74.1191      37 -73.9055      38 -74.1288      39 -74.6889      40 -73.9069
      41 -73.8885      42 -73.9726      43 -74.0872      44 -73.8633      45 -74.3815
      46 -73.9647      47 -73.9528      48 -74.2745      49 -74.2050      50 -73.9222
      51 -74.3839      52 -73.9263      53 -73.8508      54 -74.3713      55 -78.8379
      56 -78.9293      57 -79.1902      58 -78.8232      59 -78.9234      60 -79.2306
      61 -78.9231      62 -79.5554      63 -78.9555      64 -78.9485      65 -79.5541
      66 -78.9662      67 -78.7560      68 -78.8027      69 -78.8825      70 -79.6048
      71 -78.8784      72 -79.6044      73 -78.9696      74 -78.7343      75 -78.7448
      76 -78.7416      77 -78.9477      78 -79.6330      79 -78.9558      80 -78.7619
      81 -78.7447      82 -78.9983      83 -79.6403      84 -79.7617      85 -78.7552
      86 -78.7778      87 -78.7191      88 -78.9622      89 -78.9452      90 -79.7260
      91 -78.7620      92 -78.7786      93 -78.9149      94 -78.9365      95 -79.2446
      96 -79.2219      97 -78.8289      98 -78.8650      99 -78.7402     100 -78.7671
     101 -79.6351     102 -79.6283     103 -78.7996     104 -78.8155     105 -78.7366
     106 -78.7374     107 -79.6579     108 -79.6536
 
 
 
 E-fermi :  -0.7659     XC(G=0):  -8.9914     alpha+bet : -7.6590

 Fermi energy:        -0.7658623790

 spin component 1

 k-point     1 :       0.0000    0.0000    0.0000
  band No.  band energies     occupation 
      1     -36.3566      1.00000
      2     -36.3458      1.00000
      3     -36.3424      1.00000
      4     -36.3008      1.00000
      5     -36.2963      1.00000
      6     -36.2909      1.00000
      7     -35.4101      1.00000
      8     -35.4055      1.00000
      9     -35.3226      1.00000
     10     -35.0778      1.00000
     11     -35.0747      1.00000
     12     -35.0606      1.00000
     13     -35.0567      1.00000
     14     -34.9682      1.00000
     15     -34.9680      1.00000
     16     -34.9230      1.00000
     17     -34.9220      1.00000
     18     -34.8873      1.00000
     19     -34.8861      1.00000
     20     -34.8676      1.00000
     21     -34.8503      1.00000
     22     -34.8483      1.00000
     23     -34.8287      1.00000
     24     -34.8091      1.00000
     25     -34.8037      1.00000
     26     -34.7763      1.00000
     27     -34.7710      1.00000
     28     -34.7594      1.00000
     29     -34.7265      1.00000
     30     -34.7236      1.00000
     31     -34.6927      1.00000
     32     -34.6775      1.00000
     33     -34.6617      1.00000
     34     -34.6569      1.00000
     35     -34.6403      1.00000
     36     -34.6260      1.00000
     37     -34.6208      1.00000
     38     -34.6080      1.00000
     39     -34.6026      1.00000
     40     -34.6011      1.00000
     41     -34.5853      1.00000
     42     -34.5843      1.00000
     43     -34.5841      1.00000
     44     -34.5607      1.00000
     45     -34.5590      1.00000
     46     -34.5467      1.00000
     47     -34.5441      1.00000
     48     -34.5301      1.00000
     49     -34.5289      1.00000
     50     -34.5244      1.00000
     51     -34.5201      1.00000
     52     -34.5131      1.00000
     53     -34.5021      1.00000
     54     -34.5002      1.00000
     55     -34.4951      1.00000
     56     -34.4933      1.00000
     57     -34.4867      1.00000
     58     -34.4681      1.00000
     59     -34.4669      1.00000
     60     -34.4490      1.00000
     61     -34.4395      1.00000
     62     -34.4356      1.00000
     63     -34.4213      1.00000
     64     -34.4048      1.00000
     65     -34.3902      1.00000
     66     -34.3724      1.00000
     67     -34.3608      1.00000
     68     -34.3454      1.00000
     69     -34.3165      1.00000
     70     -34.3074      1.00000
     71     -34.3047      1.00000
     72     -34.2874      1.00000
     73     -34.2773      1.00000
     74     -34.2725      1.00000
     75     -34.2670      1.00000
     76     -34.2635      1.00000
     77     -34.2581      1.00000
     78     -34.2389      1.00000
     79     -34.2308      1.00000
     80     -34.1992      1.00000
     81     -34.1915      1.00000
     82     -23.7070      1.00000
     83     -23.6157      1.00000
     84     -23.4264      1.00000
     85     -23.3501      1.00000
     86     -23.3363      1.00000
     87     -23.2876      1.00000
     88     -23.2575      1.00000
     89     -23.1531      1.00000
     90     -23.1031      1.00000
     91     -23.0851      1.00000
     92     -23.0676      1.00000
     93     -23.0597      1.00000
     94     -23.0120      1.00000
     95     -22.9492      1.00000
     96     -22.8955      1.00000
     97     -22.8625      1.00000
     98     -22.8195      1.00000
     99     -22.7675      1.00000
    100     -22.7541      1.00000
    101     -22.7343      1.00000
    102     -22.7058      1.00000
    103     -22.6811      1.00000
    104     -22.6723      1.00000
    105     -22.6552      1.00000
    106     -22.6394      1.00000
    107     -22.6344      1.00000
    108     -22.6281      1.00000
    109     -22.6034      1.00000
    110     -22.5673      1.00000
    111     -22.5635      1.00000
    112     -22.5429      1.00000
    113     -22.5079      1.00000
    114     -22.4887      1.00000
    115     -22.4745      1.00000
    116     -22.4639      1.00000
    117     -22.4417      1.00000
    118     -22.4333      1.00000
    119     -22.4225      1.00000
    120     -22.4151      1.00000
    121     -22.4038      1.00000
    122     -22.3886      1.00000
    123     -22.3828      1.00000
    124     -22.3491      1.00000
    125     -22.3460      1.00000
    126     -22.3150      1.00000
    127     -22.3074      1.00000
    128     -22.2979      1.00000
    129     -22.2890      1.00000
    130     -22.2597      1.00000
    131     -22.2487      1.00000
    132     -22.2457      1.00000
    133     -22.2408      1.00000
    134     -22.2324      1.00000
    135     -22.1980      1.00000
    136     -17.1587      1.00000
    137     -16.9592      1.00000
    138     -16.8722      1.00000
    139     -16.8224      1.00000
    140     -16.7800      1.00000
    141     -16.7320      1.00000
    142     -16.6959      1.00000
    143     -16.6817      1.00000
    144     -16.6612      1.00000
    145     -16.6562      1.00000
    146     -16.6009      1.00000
    147     -16.5924      1.00000
    148     -16.5479      1.00000
    149     -16.5438      1.00000
    150     -16.5033      1.00000
    151     -16.4844      1.00000
    152     -16.4682      1.00000
    153     -16.4373      1.00000
    154     -16.4205      1.00000
    155     -16.3585      1.00000
    156     -16.3347      1.00000
    157     -16.3298      1.00000
    158     -16.3188      1.00000
    159     -16.3072      1.00000
    160     -16.2718      1.00000
    161     -16.2386      1.00000
    162     -16.2045      1.00000
    163      -7.0898      1.00000
    164      -7.0135      1.00000
    165      -6.9235      1.00000
    166      -6.9019      1.00000
    167      -6.8766      1.00000
    168      -6.8406      1.00000
    169      -6.5304      1.00000
    170      -6.4556      1.00000
    171      -6.3424      1.00000
    172      -6.3057      1.00000
    173      -6.2917      1.00000
    174      -6.2834      1.00000
    175      -6.2330      1.00000
    176      -6.2002      1.00000
    177      -6.1811      1.00000
    178      -6.1655      1.00000
    179      -6.1360      1.00000
    180      -6.1032      1.00000
    181      -6.0851      1.00000
    182      -6.0648      1.00000
    183      -6.0478      1.00000
    184      -6.0363      1.00000
    185      -6.0307      1.00000
    186      -6.0170      1.00000
    187      -5.9942      1.00000
    188      -5.9481      1.00000
    189      -5.9270      1.00000
    190      -5.8978      1.00000
    191      -5.8868      1.00000
    192      -5.8709      1.00000
    193      -5.8587      1.00000
    194      -5.8058      1.00000
    195      -5.7870      1.00000
    196      -5.7763      1.00000
    197      -5.7663      1.00000
    198      -5.7289      1.00000
    199      -5.7143      1.00000
    200      -5.6919      1.00000
    201      -5.6656      1.00000
    202      -5.6473      1.00000
    203      -5.6167      1.00000
    204      -5.6087      1.00000
    205      -5.5954      1.00000
    206      -5.5684      1.00000
    207      -5.5633      1.00000
    208      -5.5448      1.00000
    209      -5.5435      1.00000
    210      -5.5176      1.00000
    211      -5.5060      1.00000
    212      -5.4914      1.00000
    213      -5.4641      1.00000
    214      -5.4452      1.00000
    215      -5.4189      1.00000
    216      -5.4066      1.00000
    217      -5.3891      1.00000
    218      -5.3609      1.00000
    219      -5.3445      1.00000
    220      -5.3355      1.00000
    221      -5.3198      1.00000
    222      -5.2943      1.00000
    223      -5.1943      1.00000
    224      -5.0829      1.00000
    225      -5.0664      1.00000
    226      -5.0124      1.00000
    227      -4.9576      1.00000
    228      -4.9491      1.00000
    229      -4.9358      1.00000
    230      -4.8648      1.00000
    231      -4.8291      1.00000
    232      -4.8197      1.00000
    233      -4.8076      1.00000
    234      -4.7932      1.00000
    235      -4.7900      1.00000
    236      -4.7621      1.00000
    237      -4.7555      1.00000
    238      -4.7380      1.00000
    239      -4.7192      1.00000
    240      -4.7142      1.00000
    241      -4.6891      1.00000
    242      -4.6697      1.00000
    243      -4.6397      1.00000
    244      -4.6215      1.00000
    245      -4.5948      1.00000
    246      -4.5865      1.00000
    247      -4.5773      1.00000
    248      -4.5673      1.00000
    249      -4.5493      1.00000
    250      -4.5244      1.00000
    251      -4.5187      1.00000
    252      -4.4820      1.00000
    253      -4.4674      1.00000
    254      -4.4462      1.00000
    255      -4.3978      1.00000
    256      -4.3864      1.00000
    257      -4.3540      1.00000
    258      -4.3163      1.00000
    259      -4.3036      1.00000
    260      -4.2966      1.00000
    261      -4.2335      1.00000
    262      -4.2238      1.00000
    263      -4.2131      1.00000
    264      -4.1920      1.00000
    265      -4.1902      1.00000
    266      -4.1585      1.00000
    267      -4.1467      1.00000
    268      -4.1248      1.00000
    269      -4.1104      1.00000
    270      -4.1027      1.00000
    271      -4.0648      1.00000
    272      -4.0519      1.00000
    273      -4.0479      1.00000
    274      -4.0300      1.00000
    275      -4.0115      1.00000
    276      -3.9959      1.00000
    277      -3.9817      1.00000
    278      -3.9582      1.00000
    279      -3.9447      1.00000
    280      -3.9371      1.00000
    281      -3.9169      1.00000
    282      -3.8950      1.00000
    283      -3.8888      1.00000
    284      -3.8654      1.00000
    285      -3.8573      1.00000
    286      -3.8282      1.00000
    287      -3.8231      1.00000
    288      -3.8179      1.00000
    289      -3.7993      1.00000
    290      -3.7809      1.00000
    291      -3.7768      1.00000
    292      -3.7659      1.00000
    293      -3.7559      1.00000
    294      -3.7404      1.00000
    295      -3.7348      1.00000
    296      -3.7143      1.00000
    297      -3.6934      1.00000
    298      -3.6882      1.00000
    299      -3.6698      1.00000
    300      -3.6432      1.00000
    301      -3.6360      1.00000
    302      -3.6334      1.00000
    303      -3.6208      1.00000
    304      -3.6172      1.00000
    305      -3.5909      1.00000
    306      -3.5848      1.00000
    307      -3.5818      1.00000
    308      -3.5503      1.00000
    309      -3.5298      1.00000
    310      -3.5199      1.00000
    311      -3.4958      1.00000
    312      -3.4880      1.00000
    313      -3.4853      1.00000
    314      -3.4738      1.00000
    315      -3.4635      1.00000
    316      -3.4472      1.00000
    317      -3.4348      1.00000
    318      -3.4266      1.00000
    319      -3.4123      1.00000
    320      -3.3977      1.00000
    321      -3.3924      1.00000
    322      -3.3784      1.00000
    323      -3.3659      1.00000
    324      -3.3537      1.00000
    325      -3.3432      1.00000
    326      -3.3392      1.00000
    327      -3.3160      1.00000
    328      -3.2922      1.00000
    329      -3.2869      1.00000
    330      -3.2780      1.00000
    331      -3.2667      1.00000
    332      -3.2363      1.00000
    333      -3.2152      1.00000
    334      -3.1968      1.00000
    335      -3.1831      1.00000
    336      -3.1624      1.00000
    337      -3.1484      1.00000
    338      -3.1350      1.00000
    339      -3.1256      1.00000
    340      -3.1172      1.00000
    341      -3.1036      1.00000
    342      -3.0896      1.00000
    343      -3.0764      1.00000
    344      -3.0697      1.00000
    345      -3.0593      1.00000
    346      -3.0409      1.00000
    347      -3.0220      1.00000
    348      -2.9482      1.00000
    349      -2.9450      1.00000
    350      -2.9352      1.00000
    351      -2.9150      1.00000
    352      -2.8994      1.00000
    353      -2.7891      1.00000
    354      -2.7224      1.00000
    355      -2.6420      1.00000
    356      -2.6267      1.00000
    357      -2.6058      1.00000
    358      -2.5806      1.00000
    359      -2.5713      1.00000
    360      -2.5627      1.00000
    361      -2.4929      1.00000
    362      -2.4566      1.00000
    363      -2.4366      1.00000
    364      -2.4144      1.00000
    365      -2.4066      1.00000
    366      -2.3748      1.00000
    367      -2.3640      1.00000
    368      -2.2436      1.00000
    369      -2.2193      1.00000
    370      -2.2082      1.00000
    371      -2.1911      1.00000
    372      -2.1700      1.00000
    373      -2.1529      1.00000
    374      -2.1395      1.00000
    375      -2.1359      1.00000
    376      -2.1147      1.00000
    377      -2.1061      1.00000
    378      -2.0940      1.00000
    379      -2.0063      1.00000
    380      -1.9097      1.00000
    381      -1.8894      1.00000
    382      -1.8687      1.00000
    383      -1.7938      1.00000
    384      -1.7577      1.00000
    385      -1.7049      1.00000
    386      -1.6110      1.00000
    387      -1.5811      1.00000
    388      -1.5453      1.00000
    389      -1.5396      1.00000
    390      -1.5039      1.00000
    391      -1.4751      1.00000
    392      -1.4687      1.00000
    393      -1.4199      1.00000
    394      -1.3675      1.00000
    395      -1.3139      1.00000
    396      -1.2855      1.00000
    397      -1.2528      1.00000
    398      -1.1203      1.00000
    399      -1.0272      1.00000
    400      -1.0224      1.00000
    401      -0.9959      1.00000
    402      -0.9610      1.00000
    403      -0.9511      1.00000
    404      -0.8881      1.00000
    405      -0.8242      1.00000
    406       1.4631      0.00000
    407       1.5830      0.00000
    408       1.6255      0.00000
    409       1.6607      0.00000
    410       1.6646      0.00000
    411       1.6951      0.00000
    412       2.0742      0.00000
    413       2.0982      0.00000
    414       2.1566      0.00000
    415       2.1652      0.00000
    416       2.1959      0.00000
    417       2.2396      0.00000
    418       2.2941      0.00000
    419       2.3186      0.00000
    420       2.3738      0.00000
    421       2.3824      0.00000
    422       2.4710      0.00000
    423       2.5086      0.00000
    424       2.5883      0.00000
    425       2.6413      0.00000
    426       2.6595      0.00000
    427       2.6650      0.00000
    428       2.6881      0.00000
    429       2.7036      0.00000
    430       2.7416      0.00000
    431       2.7501      0.00000
    432       2.7626      0.00000
    433       2.7736      0.00000
    434       2.7807      0.00000
    435       2.7935      0.00000
    436       2.8329      0.00000
    437       2.8364      0.00000
    438       2.8535      0.00000
    439       2.8656      0.00000
    440       2.8956      0.00000
    441       2.9068      0.00000
    442       2.9357      0.00000
    443       2.9590      0.00000
    444       2.9744      0.00000
    445       3.0074      0.00000
    446       3.0274      0.00000
    447       3.0368      0.00000
    448       3.0679      0.00000
    449       3.0885      0.00000
    450       3.1076      0.00000
    451       3.1462      0.00000
    452       3.1739      0.00000
    453       3.1851      0.00000
    454       3.2431      0.00000
    455       3.2671      0.00000
    456       3.2774      0.00000
    457       3.3349      0.00000
    458       3.3411      0.00000
    459       3.3662      0.00000
    460       3.3752      0.00000
    461       3.3850      0.00000
    462       3.4027      0.00000
    463       3.4329      0.00000
    464       3.4522      0.00000
    465       3.5056      0.00000
    466       3.5179      0.00000
    467       3.5333      0.00000
    468       3.5590      0.00000
    469       3.5739      0.00000
    470       3.6013      0.00000
    471       3.6038      0.00000
    472       3.6110      0.00000
    473       3.6300      0.00000
    474       3.6468      0.00000
    475       3.6906      0.00000
    476       3.7021      0.00000
    477       3.7282      0.00000
    478       3.7382      0.00000
    479       3.7416      0.00000
    480       3.7480      0.00000
    481       3.7794      0.00000
    482       3.8200      0.00000
    483       3.8361      0.00000
    484       3.8443      0.00000
    485       3.8712      0.00000
    486       3.8800      0.00000
    487       3.9023      0.00000
    488       3.9489      0.00000
    489       3.9695      0.00000
    490       3.9981      0.00000
    491       4.0397      0.00000
    492       4.0567      0.00000
    493       4.0716      0.00000
    494       4.0851      0.00000
    495       4.1260      0.00000
    496       4.1738      0.00000
    497       4.1955      0.00000
    498       4.1992      0.00000
    499       4.2015      0.00000
    500       4.2209      0.00000
    501       4.2648      0.00000
    502       4.2868      0.00000
    503       4.3036      0.00000
    504       4.3290      0.00000
    505       4.3505      0.00000
    506       4.3827      0.00000
    507       4.4388      0.00000
    508       4.5075      0.00000
    509       4.5865      0.00000
    510       4.6737      0.00000
    511       4.8104      0.00000
    512       4.8979      0.00000
    513       4.9786      0.00000
    514       5.0541      0.00000
    515       5.1011      0.00000
    516       5.1860      0.00000
    517       5.2671      0.00000
    518       5.3603      0.00000
    519       5.4367      0.00000
    520       5.4830      0.00000
    521       5.5439      0.00000
    522       5.5984      0.00000
    523       5.6321      0.00000
    524       5.6618      0.00000
    525       5.8128      0.00000
    526       5.8528      0.00000
[...]
      3.95514      3.75349      7.80498         0.000653      0.000524      0.000219
      3.76590      7.61955     11.49939         0.000464      0.000925     -0.000593
      3.86461      7.73784      3.87936         0.001510     -0.001128      0.001072
      3.78233      7.74482      7.88630         0.001561      0.000908     -0.000750
      7.84597     11.49801     11.58540         0.001692      0.001124      0.000375
      7.63800      0.13057      3.96670         0.005400      0.002736     -0.002242
      7.73028      0.12814      7.59410         0.000799      0.000462     -0.001071
      7.83896      3.87543      0.12462        -0.001024     -0.001395      0.000175
      7.63268      3.76382      3.77175         0.003733     -0.000051     -0.000387
      7.58229      3.74638      7.71983        -0.001524      0.002805      0.000411
      7.73290      7.84311      0.12177         0.002832     -0.000780      0.001081
      7.85722      7.73346      3.73671         0.000998     -0.000979     -0.005041
      7.73260      7.73549      7.72240        -0.001371      0.000903      0.002198
      0.07883      1.92149     11.58854         0.001673      0.002919      0.000587
     11.57555      1.94145      3.84444        -0.001761      0.002532     -0.001944
     11.56429      1.96547      7.75486         0.000812     -0.000303      0.002069
      3.77338      1.93164      3.91767        -0.003743      0.000093      0.003011
      3.82962      1.92899      7.64174        -0.004216     -0.001570     -0.002994
      3.88569      5.80863      0.05359        -0.001094      0.002016     -0.000583
      7.81225      1.94525      3.89637         0.006654     -0.000617      0.002130
      7.75061      1.94093      7.70684         0.001503     -0.004864     -0.002695
      7.72971      9.64909     11.56501         0.001368     -0.003231      0.000282
      1.92053     11.49531      7.71780        -0.000223     -0.003230     -0.002060
      1.92708      7.79353     11.57304         0.006887      0.001898     -0.000842
      1.92004      7.78558      7.75064        -0.001627      0.003060      0.003545
      5.78409     11.59377      3.85242         0.000373      0.005767      0.000703
      5.77303      3.88412      3.92137        -0.000365     -0.005564      0.001180
      5.79646      3.92659      7.64105        -0.002013     -0.001375     -0.003488
      9.63956      0.04960     11.57055        -0.000802      0.002616     -0.002215
      9.63852      3.85834     11.50402        -0.000733     -0.001784     -0.003718
      9.65334      7.73711      3.95306         0.002718      0.000013      0.004122
     11.49174     11.56997      5.79427        -0.003438      0.001639      0.002410
     11.55296      3.96540      1.93974        -0.002548      0.001515      0.004084
     11.56113      7.67825      1.93558        -0.002213     -0.002127      0.006052
      3.90063     11.57495      9.68983        -0.000802      0.000313     -0.000538
      3.84429      3.87089      9.65306         0.000853     -0.001976      0.000636
      3.94002      7.77085      9.64410         0.003158      0.001551      0.003470
      7.81456     11.50596      5.81679         0.004543     -0.002586      0.003156
      7.74951      3.94438      1.93063         0.001988      0.000339      0.001589
      7.75048      7.66339      1.93526         0.004799     -0.003395      0.004446
      0.02153      5.81061     11.48768         0.001789     -0.001625     -0.001802
      0.07634      5.82567      3.99571         0.003089      0.001277      0.003626
     11.53294      5.83809      7.70191         0.000212     -0.000749     -0.002396
     11.50219      9.65576     11.56351        -0.004666     -0.002171      0.001243
      0.07315      9.64238      3.86087         0.001531     -0.000178     -0.000551
     11.45561      9.63146      7.76379        -0.003168     -0.000013      0.000497
      3.79448      1.91616      0.07310        -0.003407     -0.001538      0.000130
      3.83994      5.85606      3.81320         0.003024      0.000652     -0.002466
      3.85120      5.83877      7.66509        -0.001032     -0.000418      0.002518
      3.96084      9.65903      0.08985         0.001304     -0.001400      0.000967
      3.83621      9.62107      3.86923         0.002856      0.001610     -0.000518
      3.98097      9.63925      7.64244         0.004338     -0.000034     -0.000895
      7.64173      1.92593     11.56120        -0.001833      0.000776     -0.000237
      7.65192      5.82909     11.48224        -0.002428     -0.001157     -0.001302
      7.66343      5.84074      3.99993        -0.003535      0.001491      0.003477
      7.77715      5.85437      7.70263        -0.000025     -0.000372     -0.002752
      7.67519      9.64228      3.83253        -0.002197      0.001332     -0.005007
      7.71120      9.61529      7.82755        -0.001974      0.000986      0.004411
      1.93989     11.46444      0.00688         0.001386     -0.005273      0.000178
      1.93949     11.50635      3.88345         0.001009     -0.000678      0.001330
      1.92416      3.90108      0.01578         0.000024      0.000060      0.001138
      1.93510      3.96807      3.88015         0.000007      0.001699     -0.001676
      1.90426      3.98558      7.68455        -0.001374      0.001644     -0.000620
      1.96726      7.73435      3.91122         0.000309      0.001159     -0.002039
      5.78686      0.04486      0.08808        -0.001512     -0.000639      0.000310
      5.79499     11.53471      7.68750        -0.000458      0.003654     -0.003375
      5.78768      3.80326      0.01071        -0.002401     -0.001699      0.002876
      5.79481      7.74285      0.02791        -0.003080     -0.000446      0.003734
      5.76428      7.74136      3.91074         0.000857      0.001872     -0.000451
      5.82782      7.68310      7.66103        -0.000360     -0.002466     -0.002211
      9.66321     11.46869      3.72913         0.000867     -0.003783     -0.003250
      9.64932     11.52307      7.89347        -0.000709      0.000196      0.004162
      9.66454      4.01951      3.93572         0.002059      0.006987      0.000258
      9.65299      3.96850      7.79909         0.000278      0.000563      0.004506
      9.65208      7.66505     11.49523        -0.000378     -0.004493     -0.003082
      9.62425      7.73787      7.67847         0.001111     -0.000036     -0.001317
      0.06190     11.50141      1.93800         0.001136     -0.000540      0.000815
      0.03934     11.52630      9.66729         0.003521     -0.001240     -0.001312
     11.56102      3.92022      5.81132        -0.001806     -0.003191      0.000457
      0.08504      3.95241      9.64182         0.002557      0.000367     -0.001500
      0.03156      7.78072      5.81183         0.004517      0.002678      0.001144
     11.49109      7.73218      9.63375        -0.000743     -0.000922     -0.001290
      3.79968     11.56134      1.92617        -0.000241      0.000831      0.001008
      3.86243     11.47431      5.78501         0.000569     -0.001995     -0.001389
      3.83514      3.85254      1.93219         0.000962     -0.000946      0.000881
      3.74991      4.00199      5.78666        -0.001590      0.004519     -0.000726
      3.89300      7.78477      1.98643        -0.000244      0.000390     -0.000376
      3.88882      7.71979      5.77263        -0.001185     -0.001074     -0.001362
      7.72268     11.58837      1.92862        -0.000686      0.002290      0.000672
      7.61154     11.59122      9.65455        -0.004643      0.001014     -0.002184
      7.84161      3.96505      5.80973         0.003384      0.001222      0.000591
      7.65322      3.92256      9.65062        -0.005020     -0.000565     -0.000596
      7.66913      7.81610      5.83207        -0.000207      0.005930     -0.000248
      7.68657      7.68648      9.61228        -0.002076     -0.001836     -0.001820
 -----------------------------------------------------------------------------------
    total drift:                                0.002291     -0.000817      0.002055


--------------------------------------------------------------------------------------------------------



  FREE ENERGIE OF THE ION-ELECTRON SYSTEM (eV)
  ---------------------------------------------------
  free  energy   TOTEN  =      -720.91891221 eV

  energy  without entropy=     -720.91891221  energy(sigma->0) =     -720.91891221
 


--------------------------------------------------------------------------------------------------------


    POTLOK:  cpu time      1.0493: real time      1.0520


--------------------------------------------------------------------------------------------------------


 Quasi-Newton relaxation of ions (Broydens 2nd method)
  g(Force)  = 0.836E-04   g(Stress)= 0.169E-03

 Reset! Starting new Quasi-Newton update for ions 


--------------------------------------------------------------------------------------------------------


  
 reached required accuracy - stopping structural energy minimisation
 writing wavefunctions
     LOOP+:  cpu time    353.3372: real time    357.3505
    4ORBIT:  cpu time      0.0000: real time      0.0000



 total charge

# of ion       s       p       d       tot
------------------------------------------
    1        0.321   6.456   1.783   8.559
    2        0.319   6.451   1.771   8.541
    3        0.325   6.455   1.790   8.570
    4        0.327   6.458   1.790   8.574
    5        0.320   6.452   1.785   8.558
    6        0.317   6.458   1.774   8.548
    7        0.322   6.458   1.780   8.561
    8        0.325   6.461   1.802   8.589
    9        0.321   6.468   1.777   8.566
   10        0.313   6.457   1.760   8.530
   11        0.323   6.456   1.813   8.593
   12        0.325   6.453   1.790   8.568
   13        0.320   6.454   1.781   8.555
   14        0.323   6.455   1.809   8.587
   15        0.326   6.454   1.795   8.575
   16        0.329   6.462   1.811   8.602
   17        0.317   6.491   1.683   8.491
   18        0.327   6.465   1.819   8.611
   19        0.320   6.458   1.766   8.544
   20        0.325   6.453   1.790   8.568
   21        0.323   6.454   1.809   8.586
   22        0.318   6.451   1.785   8.554
   23        0.325   6.452   1.791   8.568
   24        0.325   6.457   1.816   8.597
   25        0.322   6.460   1.791   8.574
   26        0.328   6.463   1.819   8.610
   27        0.318   6.492   1.685   8.494
   28        1.569   3.471   0.000   5.040
   29        1.568   3.471   0.000   5.038
   30        1.570   3.468   0.000   5.038
   31        1.570   3.481   0.000   5.051
   32        1.568   3.472   0.000   5.040
   33        1.569   3.475   0.000   5.044
   34        1.569   3.472   0.000   5.041
   35        1.569   3.481   0.000   5.051
   36        1.569   3.471   0.000   5.040
   37        1.569   3.471   0.000   5.040
   38        1.569   3.474   0.000   5.043
   39        1.571   3.477   0.000   5.048
   40        1.569   3.472   0.000   5.041
   41        1.569   3.471   0.000   5.040
   42        1.569   3.474   0.000   5.043
   43        1.570   3.475   0.000   5.045
   44        1.569   3.473   0.000   5.042
   45        1.571   3.482   0.000   5.052
   46        1.569   3.471   0.000   5.040
   47        1.569   3.473   0.000   5.043
   48        1.569   3.475   0.000   5.045
   49        1.570   3.464   0.000   5.034
   50        1.568   3.472   0.000   5.040
   51        1.571   3.477   0.000   5.048
   52        1.569   3.470   0.000   5.040
   53        1.568   3.471   0.000   5.039
   54        1.570   3.480   0.000   5.050
   55        1.730   4.379   0.000   6.109
   56        1.730   4.378   0.000   6.108
   57        1.731   4.375   0.000   6.106
   58        1.730   4.377   0.000   6.107
   59        1.730   4.378   0.000   6.108
   60        1.731   4.380   0.000   6.111
   61        1.729   4.375   0.000   6.104
   62        1.732   4.371   0.000   6.103
   63        1.730   4.377   0.000   6.107
   64        1.730   4.378   0.000   6.108
   65        1.732   4.373   0.000   6.105
   66        1.730   4.376   0.000   6.107
   67        1.729   4.378   0.000   6.107
   68        1.729   4.379   0.000   6.108
   69        1.730   4.377   0.000   6.107
   70        1.732   4.373   0.000   6.105
   71        1.730   4.377   0.000   6.107
   72        1.732   4.371   0.000   6.104
   73        1.729   4.379   0.000   6.108
   74        1.729   4.378   0.000   6.107
   75        1.730   4.381   0.000   6.111
   76        1.729   4.379   0.000   6.108
   77        1.730   4.378   0.000   6.108
   78        1.731   4.375   0.000   6.106
   79        1.730   4.378   0.000   6.108
   80        1.729   4.378   0.000   6.107
   81        1.729   4.379   0.000   6.109
   82        1.730   4.383   0.000   6.112
   83        1.731   4.375   0.000   6.106
   84        1.731   4.380   0.000   6.111
   85        1.729   4.377   0.000   6.106
   86        1.730   4.377   0.000   6.106
   87        1.730   4.378   0.000   6.108
   88        1.730   4.376   0.000   6.106
   89        1.729   4.378   0.000   6.107
   90        1.732   4.374   0.000   6.106
   91        1.729   4.377   0.000   6.106
   92        1.730   4.380   0.000   6.109
   93        1.730   4.377   0.000   6.107
   94        1.730   4.378   0.000   6.108
   95        1.730   4.379   0.000   6.109
   96        1.730   4.379   0.000   6.109
   97        1.729   4.379   0.000   6.108
   98        1.730   4.383   0.000   6.112
   99        1.729   4.377   0.000   6.106
  100        1.730   4.380   0.000   6.109
  101        1.731   4.375   0.000   6.107
  102        1.732   4.374   0.000   6.105
  103        1.729   4.380   0.000   6.109
  104        1.729   4.378   0.000   6.107
  105        1.730   4.380   0.000   6.109
  106        1.729   4.378   0.000   6.107
  107        1.732   4.374   0.000   6.106
  108        1.732   4.373   0.000   6.105
--------------------------------------------------
tot        144.503 504.565  48.165 697.233



 magnetization (x)

# of ion       s       p       d       tot
------------------------------------------
    1       -0.000   0.000   0.000   0.000
    2       -0.000  -0.000   0.000  -0.000
    3        0.000   0.000   0.000   0.000
    4       -0.000   0.000  -0.000  -0.000
    5       -0.000   0.000   0.000   0.000
    6       -0.000  -0.000  -0.000  -0.000
    7       -0.000   0.000  -0.000  -0.000
    8       -0.000  -0.000  -0.000  -0.000
    9        0.000  -0.000  -0.000  -0.000
   10       -0.000   0.000   0.000   0.000
   11       -0.000  -0.000   0.000  -0.000
   12       -0.000   0.000   0.000   0.000
   13       -0.000  -0.000  -0.000  -0.000
   14       -0.000   0.000   0.000   0.000
   15       -0.000  -0.000  -0.000  -0.000
   16        0.000  -0.000   0.000   0.000
   17        0.000  -0.000  -0.000  -0.000
   18       -0.000  -0.000   0.000  -0.000
   19        0.000  -0.000   0.000   0.000
   20       -0.000  -0.000  -0.000  -0.000
   21       -0.000  -0.000   0.000  -0.000
   22        0.000   0.000  -0.000   0.000
   23        0.000  -0.000  -0.000  -0.000
   24       -0.000  -0.000   0.000  -0.000
   25        0.000   0.000   0.000   0.000
   26        0.000   0.000  -0.000  -0.000
   27        0.000  -0.000  -0.000  -0.000
   28        0.000   0.000   0.000   0.000
   29       -0.000   0.000   0.000   0.000
   30       -0.000   0.000   0.000   0.000
   31        0.000   0.000   0.000   0.000
   32       -0.000  -0.000   0.000  -0.000
   33       -0.000  -0.000   0.000  -0.000
   34        0.000   0.000   0.000   0.000
   35       -0.000   0.000   0.000   0.000
   36       -0.000  -0.000   0.000  -0.000
   37        0.000  -0.000   0.000   0.000
   38        0.000   0.000   0.000   0.000
   39        0.000   0.000   0.000   0.000
   40       -0.000  -0.000   0.000  -0.000
   41       -0.000  -0.000   0.000  -0.000
   42        0.000   0.000   0.000   0.000
   43        0.000  -0.000   0.000   0.000
   44       -0.000  -0.000   0.000  -0.000
   45        0.000  -0.000   0.000  -0.000
   46       -0.000  -0.000   0.000  -0.000
   47        0.000   0.000   0.000   0.000
   48       -0.000   0.000   0.000   0.000
   49        0.000  -0.000   0.000   0.000
   50        0.000   0.000   0.000   0.000
   51       -0.000   0.000   0.000  -0.000
   52        0.000   0.000   0.000   0.000
   53        0.000   0.000   0.000   0.000
   54       -0.000   0.000   0.000  -0.000
   55       -0.000  -0.000   0.000  -0.000
   56       -0.000  -0.000   0.000  -0.000
   57       -0.000   0.000   0.000  -0.000
   58        0.000  -0.000   0.000   0.000
   59       -0.000   0.000   0.000  -0.000
   60       -0.000   0.000   0.000  -0.000
   61       -0.000  -0.000   0.000  -0.000
   62       -0.000   0.000   0.000  -0.000
   63       -0.000   0.000   0.000   0.000
   64       -0.000   0.000   0.000  -0.000
   65        0.000   0.000   0.000   0.000
   66       -0.000  -0.000   0.000  -0.000
   67       -0.000  -0.000   0.000  -0.000
   68        0.000  -0.000   0.000  -0.000
   69       -0.000   0.000   0.000   0.000
   70        0.000  -0.000   0.000  -0.000
   71        0.000  -0.000   0.000   0.000
   72        0.000   0.000   0.000   0.000
   73       -0.000  -0.000   0.000  -0.000
   74        0.000  -0.000   0.000  -0.000
   75       -0.000   0.000   0.000   0.000
   76       -0.000   0.000   0.000  -0.000
   77       -0.000   0.000   0.000  -0.000
   78        0.000  -0.000   0.000   0.000
   79        0.000  -0.000   0.000  -0.000
   80       -0.000  -0.000   0.000  -0.000
   81        0.000   0.000   0.000   0.000
   82       -0.000  -0.000   0.000  -0.000
   83        0.000  -0.000   0.000   0.000
   84       -0.000  -0.000   0.000  -0.000
   85       -0.000  -0.000   0.000  -0.000
   86       -0.000  -0.000   0.000  -0.000
   87       -0.000  -0.000   0.000  -0.000
   88       -0.000  -0.000   0.000  -0.000
   89       -0.000   0.000   0.000  -0.000
   90       -0.000   0.000   0.000  -0.000
   91        0.000   0.000   0.000   0.000
   92        0.000   0.000   0.000   0.000
   93        0.000  -0.000   0.000  -0.000
   94        0.000  -0.000   0.000  -0.000
   95       -0.000   0.000   0.000   0.000
   96       -0.000   0.000   0.000   0.000
   97        0.000  -0.000   0.000   0.000
   98       -0.000   0.000   0.000  -0.000
   99       -0.000  -0.000   0.000  -0.000
  100        0.000  -0.000   0.000  -0.000
  101       -0.000   0.000   0.000  -0.000
  102       -0.000   0.000   0.000   0.000
  103       -0.000   0.000   0.000   0.000
  104        0.000   0.000   0.000   0.000
  105        0.000   0.000   0.000   0.000
  106        0.000   0.000   0.000   0.000
  107       -0.000  -0.000   0.000  -0.000
  108       -0.000   0.000   0.000   0.000
--------------------------------------------------
tot         -0.000   0.000  -0.000  -0.000
 

 total amount of memory used by VASP MPI-rank0   298188. kBytes
=======================================================================

   base      :      30000. kBytes
   nonlr-proj:      25305. kBytes
   fftplans  :      18873. kBytes
   grid      :      21088. kBytes
   one-center:        435. kBytes
   wavefun   :     202487. kBytes
 
  
  
 General timing and accounting informations for this job:
 ========================================================
  
                  Total CPU time used (sec):      441.801
                            User time (sec):      420.145
                          System time (sec):       21.656
                         Elapsed time (sec):      446.931
  
                   Maximum memory used (kb):      823416.
                   Average memory used (kb):          N/A
  
                          Minor page faults:       143553
                          Major page faults:           13
                 Voluntary context switches:         9514
