       N       E                     dE             d eps       ncg     rms          rms(c)
DAV:   1    -0.210590572021E+03   -0.21059E+03   -0.73185E-01  2560   0.556E+00    0.805E-02
DAV:   2    -0.210590686546E+03   -0.11453E-03   -0.32549E-05  2560   0.295E-02    0.450E-02
DAV:   3    -0.210590817769E+03   -0.13122E-03   -0.28008E-05  2816   0.321E-02    0.725E-03
DAV:   4    -0.210590819168E+03   -0.13993E-05   -0.17827E-06  2304   0.735E-03    0.267E-03
DAV:   5    -0.210590819220E+03   -0.51692E-07   -0.40633E-07  1280   0.404E-03
   1 F= -.21059082E+03 E0= -.21059082E+03  d E =-.210591E+03  mag=    -0.0000
