LTO                                     
           1
     7.913264   -0.000000   -0.000000
     0.000000    7.756729   -0.000004
    -0.000000   -0.000004    7.544109
   Ti   O    F 
   8   8  16
Direct configuration=     1
   1.00000000  0.99999998  0.98788055
   0.00000000  0.00000046  0.50977620
   0.00000000  0.49999999  0.00104565
   1.00000000  0.50000049  0.49978650
   0.50000000  0.00000302  0.00036977
   0.50000000  0.99994281  0.49824677
   0.50000000  0.50000247  0.98318476
   0.50000000  0.49995606  0.50232510
   0.50000000  0.25407664  0.49886441
   0.50000000  0.74597650  0.49886421
   0.00000002  0.99999995  0.75073272
   0.99999999  0.49999994  0.24878590
   0.00000000  0.49999991  0.75228091
   0.50000002  0.00000697  0.24389178
   0.49999999  0.00000532  0.75864853
   0.49999999  0.50000547  0.75552679
   0.24078960  0.00000003  0.00490474
   0.23809168  0.00000211  0.49528747
   0.24929877  0.50000005  0.00341973
   0.24350549  0.50000341  0.49777975
   0.75921040  0.00000003  0.00490468
   0.76190833  0.00000211  0.49528752
   0.75070123  0.50000005  0.00341970
   0.75649451  0.50000341  0.49777977
   0.00000000  0.24596566  0.00519509
   0.00000000  0.24609668  0.49559466
   0.00000000  0.75403431  0.00519509
   0.00000000  0.75390454  0.49559463
   0.50000000  0.25358883  0.00725548
   0.50000000  0.74641611  0.00725711
   0.99999998  0.99999998  0.24903421
   0.50000001  0.50000671  0.24187982
