 vasp.5.4.4.18Apr17-6-g9f103f2a35 (build Jul 16 2019 12:12:28) complex          
  
 executed on             LinuxIFC date 2020.01.06  15:17:24
 running on   96 total cores
 distrk:  each k-point on   96 cores,    1 groups
 distr:  one band on NCORES_PER_BAND=   8 cores,   12 groups


--------------------------------------------------------------------------------------------------------


 INCAR:
 POTCAR:    PAW_PBE Li_sv 10Sep2004               
 POTCAR:    PAW_PBE Ti_pv 07Sep2000               
 POTCAR:    PAW_PBE O 08Apr2002                   
 POTCAR:    PAW_PBE F 08Apr2002                   
 POTCAR:    PAW_PBE Li_sv 10Sep2004               
   VRHFIN =Li: 1s2s2p                                                           
   LEXCH  = PE                                                                  
   EATOM  =   202.7858 eV,   14.9043 Ry                                         
                                                                                
   TITEL  = PAW_PBE Li_sv 10Sep2004                                             
   LULTRA =        F    use ultrasoft PP ?                                      
   IUNSCR =        0    unscreen: 0-lin 1-nonlin 2-no                           
   RPACOR =    0.000    partial core radius                                     
   POMASS =    7.010; ZVAL   =    3.000    mass and valenz                      
   RCORE  =    1.700    outmost cutoff radius                                   
   RWIGS  =    2.050; RWIGS  =    1.085    wigner-seitz radius (au A)           
   ENMAX  =  499.034; ENMIN  =  374.276 eV                                      
   ICORE  =        2    local potential                                         
   LCOR   =        T    correct aug charges                                     
   LPAW   =        T    paw PP                                                  
   EAUG   =  628.945                                                            
   RMAX   =    1.732    core radius for proj-oper                               
   RAUG   =    1.300    factor for augmentation sphere                          
   RDEP   =    1.728    radius for radial grids                                 
   RDEPT  =    1.329    core radius for aug-charge                              
                                                                                
   Atomic configuration                                                         
    4 entries                                                                   
     n  l   j            E        occ.                                          
     1  0  0.50       -51.8549   2.0000                                         
     2  0  0.50        -2.8742   1.0000                                         
     2  1  0.50        -1.3606   0.0000                                         
     3  2  1.50        -1.3606   0.0000                                         
   Description                                                                  
     l       E           TYP  RCUT    TYP  RCUT                                 
     0    -51.8548813     23  1.400                                             
     0     -2.8742052     23  1.700                                             
     1     -1.3605826     23  1.400                                             
     2     -1.3605826     23  1.400                                             
  local pseudopotential read in
  atomic valenz-charges read in
  non local Contribution for L=           0  read in
    real space projection operators read in
  non local Contribution for L=           0  read in
    real space projection operators read in
  non local Contribution for L=           1  read in
    real space projection operators read in
    PAW grid and wavefunctions read in
 
   number of l-projection  operators is LMAX  =           3
   number of lm-projection operators is LMMAX =           5
 
 POTCAR:    PAW_PBE Ti_pv 07Sep2000               
   VRHFIN =Ti: d3 s1                                                            
   LEXCH  = PE                                                                  
   EATOM  =  1042.5995 eV,   76.6289 Ry                                         
                                                                                
   TITEL  = PAW_PBE Ti_pv 07Sep2000                                             
   LULTRA =        F    use ultrasoft PP ?                                      
   IUNSCR =        1    unscreen: 0-lin 1-nonlin 2-no                           
   RPACOR =    2.200    partial core radius                                     
   POMASS =   47.880; ZVAL   =   10.000    mass and valenz                      
   RCORE  =    2.500    outmost cutoff radius                                   
   RWIGS  =    2.500; RWIGS  =    1.323    wigner-seitz radius (au A)           
   ENMAX  =  222.335; ENMIN  =  166.751 eV                                      
   RCLOC  =    1.701    cutoff for local pot                                    
   LCOR   =        T    correct aug charges                                     
   LPAW   =        T    paw PP                                                  
   EAUG   =  482.848                                                            
   DEXC   =    0.000                                                            
   RMAX   =    2.564    core radius for proj-oper                               
   RAUG   =    1.300    factor for augmentation sphere                          
   RDEP   =    2.538    radius for radial grids                                 
   RDEPT  =    1.952    core radius for aug-charge                              
                                                                                
   Atomic configuration                                                         
    8 entries                                                                   
     n  l   j            E        occ.                                          
     1  0  0.50     -4865.3608   2.0000                                         
     2  0  0.50      -533.1368   2.0000                                         
     2  1  1.50      -440.5031   6.0000                                         
     3  0  0.50       -59.3186   2.0000                                         
     3  1  1.50       -35.7012   6.0000                                         
     3  2  2.50        -1.9157   3.0000                                         
     4  0  0.50        -3.7291   1.0000                                         
     4  3  2.50        -1.3606   0.0000                                         
   Description                                                                  
     l       E           TYP  RCUT    TYP  RCUT                                 
     1    -35.7012140     23  2.300                                             
     1     -1.3605826     23  2.300                                             
     2     -1.9156996     23  2.500                                             
     2     -0.4063033     23  2.500                                             
     0     -3.7290856     23  2.500                                             
     0     20.4087390     23  2.500                                             
  local pseudopotential read in
  partial core-charges read in
  partial kinetic energy density read in
  atomic valenz-charges read in
  non local Contribution for L=           1  read in
    real space projection operators read in
  non local Contribution for L=           1  read in
    real space projection operators read in
  non local Contribution for L=           2  read in
    real space projection operators read in
  non local Contribution for L=           2  read in
    real space projection operators read in
  non local Contribution for L=           0  read in
    real space projection operators read in
  non local Contribution for L=           0  read in
    real space projection operators read in
    PAW grid and wavefunctions read in
 
   number of l-projection  operators is LMAX  =           6
   number of lm-projection operators is LMMAX =          18
 
 POTCAR:    PAW_PBE O 08Apr2002                   
   VRHFIN =O: s2p4                                                              
   LEXCH  = PE                                                                  
   EATOM  =   432.3788 eV,   31.7789 Ry                                         
                                                                                
   TITEL  = PAW_PBE O 08Apr2002                                                 
   LULTRA =        F    use ultrasoft PP ?                                      
   IUNSCR =        1    unscreen: 0-lin 1-nonlin 2-no                           
   RPACOR =    1.200    partial core radius                                     
   POMASS =   16.000; ZVAL   =    6.000    mass and valenz                      
   RCORE  =    1.520    outmost cutoff radius                                   
   RWIGS  =    1.550; RWIGS  =    0.820    wigner-seitz radius (au A)           
   ENMAX  =  400.000; ENMIN  =  300.000 eV                                      
   ICORE  =        2    local potential                                         
   LCOR   =        T    correct aug charges                                     
   LPAW   =        T    paw PP                                                  
   EAUG   =  605.392                                                            
   DEXC   =    0.000                                                            
   RMAX   =    1.553    core radius for proj-oper                               
   RAUG   =    1.300    factor for augmentation sphere                          
   RDEP   =    1.550    radius for radial grids                                 
   RDEPT  =    1.329    core radius for aug-charge                              
                                                                                
   Atomic configuration                                                         
    4 entries                                                                   
     n  l   j            E        occ.                                          
     1  0  0.50      -514.6923   2.0000                                         
     2  0  0.50       -23.9615   2.0000                                         
     2  1  0.50        -9.0305   4.0000                                         
     3  2  1.50        -9.5241   0.0000                                         
   Description                                                                  
     l       E           TYP  RCUT    TYP  RCUT                                 
     0    -23.9615318     23  1.200                                             
     0     -9.5240782     23  1.200                                             
     1     -9.0304911     23  1.520                                             
     1      8.1634956     23  1.520                                             
     2     -9.5240782      7  1.500                                             
  local pseudopotential read in
  partial core-charges read in
  partial kinetic energy density read in
  kinetic energy density of atom read in
  atomic valenz-charges read in
  non local Contribution for L=           0  read in
    real space projection operators read in
  non local Contribution for L=           0  read in
    real space projection operators read in
  non local Contribution for L=           1  read in
    real space projection operators read in
  non local Contribution for L=           1  read in
    real space projection operators read in
    PAW grid and wavefunctions read in
 
   number of l-projection  operators is LMAX  =           4
   number of lm-projection operators is LMMAX =           8
 
 POTCAR:    PAW_PBE F 08Apr2002                   
   VRHFIN =F: s2p5                                                              
   LEXCH  = PE                                                                  
   EATOM  =   659.6475 eV,   48.4827 Ry                                         
                                                                                
   TITEL  = PAW_PBE F 08Apr2002                                                 
   LULTRA =        F    use ultrasoft PP ?                                      
   IUNSCR =        1    unscreen: 0-lin 1-nonlin 2-no                           
   RPACOR =    1.200    partial core radius                                     
   POMASS =   18.998; ZVAL   =    7.000    mass and valenz                      
   RCORE  =    1.520    outmost cutoff radius                                   
   RWIGS  =    1.500; RWIGS  =    0.794    wigner-seitz radius (au A)           
   ENMAX  =  400.000; ENMIN  =  300.000 eV                                      
   ICORE  =        2    local potential                                         
   LCOR   =        T    correct aug charges                                     
   LPAW   =        T    paw PP                                                  
   EAUG   =  613.614                                                            
   RMAX   =    1.555    core radius for proj-oper                               
   RAUG   =    1.300    factor for augmentation sphere                          
   RDEP   =    1.539    radius for radial grids                                 
   RDEPT  =    1.299    core radius for aug-charge                              
                                                                                
   Atomic configuration                                                         
    4 entries                                                                   
     n  l   j            E        occ.                                          
     1  0  0.50      -663.3661   2.0000                                         
     2  0  0.50       -29.8995   2.0000                                         
     2  1  0.50       -11.1114   5.0000                                         
     3  2  1.50       -10.8847   0.0000                                         
   Description                                                                  
     l       E           TYP  RCUT    TYP  RCUT                                 
     0    -29.8995018     23  1.200                                             
     0     -9.5240782     23  1.200                                             
     1    -11.1113914     23  1.520                                             
     1      1.3605826     23  1.520                                             
     2    -10.8846608      7  1.500                                             
  local pseudopotential read in
  partial core-charges read in
  partial kinetic energy density read in
  atomic valenz-charges read in
  non local Contribution for L=           0  read in
    real space projection operators read in
  non local Contribution for L=           0  read in
    real space projection operators read in
  non local Contribution for L=           1  read in
    real space projection operators read in
  non local Contribution for L=           1  read in
    real space projection operators read in
    PAW grid and wavefunctions read in
 
   number of l-projection  operators is LMAX  =           4
   number of lm-projection operators is LMMAX =           8
 
 Optimization of the real space projectors (new method)

 maximal supplied QI-value         = 22.11
 optimisation between [QCUT,QGAM] = [ 11.28, 22.77] = [ 35.61,145.23] Ry 
 Optimized for a Real-space Cutoff    1.31 Angstroem

   l    n(q)    QCUT    max X(q) W(low)/X(q) W(high)/X(q)  e(spline) 
   0      9    11.276    10.506    0.19E-04    0.17E-04    0.32E-07
   0      9    11.276     8.367    0.38E-04    0.40E-04    0.65E-07
   1      8    11.276     8.983    0.55E-04    0.98E-04    0.20E-06
 Optimization of the real space projectors (new method)

 maximal supplied QI-value         = 15.12
 optimisation between [QCUT,QGAM] = [ 11.34, 22.83] = [ 36.00,145.93] Ry 
 Optimized for a Real-space Cutoff    1.56 Angstroem

   l    n(q)    QCUT    max X(q) W(low)/X(q) W(high)/X(q)  e(spline) 
   1     10    11.338     4.216    0.27E-04    0.12E-04    0.66E-07
   1     10    11.338     5.422    0.81E-04    0.24E-04    0.19E-06
   2     10    11.338    72.084    0.64E-04    0.21E-03    0.51E-06
   2     10    11.338    65.965    0.63E-04    0.21E-03    0.50E-06
   0     11    11.338    41.531    0.33E-04    0.54E-04    0.13E-06
   0     11    11.338    16.290    0.26E-04    0.41E-04    0.11E-06
 Optimization of the real space projectors (new method)

 maximal supplied QI-value         = 24.76
 optimisation between [QCUT,QGAM] = [ 11.39, 22.77] = [ 36.31,145.25] Ry 
 Optimized for a Real-space Cutoff    1.20 Angstroem

   l    n(q)    QCUT    max X(q) W(low)/X(q) W(high)/X(q)  e(spline) 
   0      8    11.387    20.381    0.89E-04    0.31E-03    0.27E-06
   0      8    11.387    15.268    0.93E-04    0.32E-03    0.29E-06
   1      8    11.387     5.964    0.53E-04    0.28E-03    0.29E-06
   1      8    11.387     5.382    0.37E-04    0.22E-03    0.26E-06
 Optimization of the real space projectors (new method)

 maximal supplied QI-value         = 24.76
 optimisation between [QCUT,QGAM] = [ 11.39, 22.77] = [ 36.31,145.25] Ry 
 Optimized for a Real-space Cutoff    1.20 Angstroem

   l    n(q)    QCUT    max X(q) W(low)/X(q) W(high)/X(q)  e(spline) 
   0      8    11.387    14.049    0.69E-04    0.23E-03    0.18E-06
   0      8    11.387     8.945    0.88E-04    0.30E-03    0.26E-06
   1      8    11.387     7.086    0.62E-04    0.27E-03    0.27E-06
   1      8    11.387     6.747    0.46E-04    0.23E-03    0.25E-06

 ----------------------------------------------------------------------------- 
|                                                                             |
|  ADVICE TO THIS USER RUNNING 'VASP/VAMP'   (HEAR YOUR MASTER'S VOICE ...):  |
|                                                                             |
|      You enforced a specific xc-type in the INCAR file,                     |
|      a different type was found on the POTCAR file                          |
|          I HOPE YOU KNOW, WHAT YOU ARE  DOING                               |
|                                                                             |
 ----------------------------------------------------------------------------- 

  PAW_PBE Li_sv 10Sep2004               :
 energy of atom  1       EATOM= -202.7858
 kinetic energy error for atom=    0.0143 (will be added to EATOM!!)
  PAW_PBE Ti_pv 07Sep2000               :
 energy of atom  2       EATOM=-1042.5995
 kinetic energy error for atom=    0.0024 (will be added to EATOM!!)
  PAW_PBE O 08Apr2002                   :
 energy of atom  3       EATOM= -432.3788
 kinetic energy error for atom=    0.0224 (will be added to EATOM!!)
  PAW_PBE F 08Apr2002                   :
 energy of atom  4       EATOM= -659.6475
 kinetic energy error for atom=    0.0354 (will be added to EATOM!!)
 
 
 POSCAR: config 22                               
  positions in direct lattice
  velocities in cartesian coordinates
 exchange correlation table for  LEXCH =       14
   RHO(1)=    0.500       N(1)  =     2000
   RHO(2)=  100.500       N(2)  =     4000

 VTST: version 3.2, (02/03/18)

 CHAIN: initializing optimizer
 
 OPT: Using VASP QUASI-newton optimizer
 CHAIN: Read ICHAIN            0
 
 POSCAR: config 22                               
  positions in direct lattice
  velocities in cartesian coordinates
 


--------------------------------------------------------------------------------------------------------


 ion  position               nearest neighbor table
   1  0.364  0.401  0.401- 102 2.08 127 2.10  37 2.80
   2  0.995  0.996  0.995- 118 1.87  68 1.88 103 1.89 171 2.03 212 2.03 130 2.04
   3  0.001  0.992  0.494- 119 1.81  67 1.83 193 1.95 172 1.95 131 2.01 213 2.09
   4  0.005  0.495  0.998-  89 1.84 117 1.85 138 1.93 132 1.98 214 2.01 194 2.02
   5  0.994  0.502  0.507- 104 1.82  66 1.82 215 1.92 223 1.99 173 2.03 137 2.03
   6  0.494  0.995  0.000- 101 1.83 121 1.85 140 1.95 133 1.97 216 2.01 174 2.03
   7  0.502  0.007  0.501- 112 1.72 191 1.94 134 1.94 139 1.94 175 1.95 225 2.05
   8  0.504  0.496  0.996-  70 1.87 120 1.88  90 1.89 192 2.02 217 2.04 135 2.04
   9  0.494  0.500  0.495- 102 1.84  69 1.88 224 1.92 218 1.96 136 1.98 176 2.02
  10  0.007  0.003  0.256-  91 1.84  67 1.86 219 1.94 227 1.97 130 2.00 197 2.05
  11  0.001  0.008  0.757-  68 1.79 113 1.84 177 1.94 198 1.98 228 2.04 131 2.06
  12  0.993  0.494  0.252- 107 1.82 122 1.86 137 1.93 132 1.96 220 2.00 178 2.04
  13  0.992  0.499  0.742- 108 1.82  66 1.83 226 1.93 221 1.96 138 2.02 179 2.05
  14  0.507  0.009  0.252- 114 1.82  92 1.83 133 1.93 139 1.94 195 2.01 231 2.06
  15  0.493  0.004  0.752- 105 1.82 115 1.83 140 1.94 134 1.97 232 2.02 180 2.03
  16  0.494  0.496  0.256-  69 1.84 106 1.86 229 1.95 222 1.99 135 2.00 181 2.02
  17  0.501  0.504  0.759-  70 1.80 116 1.87 182 1.94 196 1.97 230 2.02 136 2.09
  18  0.995  0.257  0.001- 117 1.83 110 1.87 141 1.96 146 1.96 183 2.01 212 2.01
  19  0.998  0.248  0.491-  74 1.78 202 1.90 213 1.91 184 1.95 223 1.95 142 2.02
  20  0.998  0.758  0.006- 118 1.80  71 1.86 203 1.94 185 1.97 148 2.04 214 2.06
  21  0.999  0.757  0.506- 119 1.83  72 1.83 204 1.94 186 1.96 147 2.02 215 2.03
  22  0.495  0.258  0.001- 120 1.80 109 1.85 150 1.95 143 1.97 187 2.03 216 2.06
  23  0.508  0.246  0.499-  93 1.89 112 1.97 144 1.99 199 2.02 224 2.03 149 2.05
  24  0.507  0.757  0.999-  94 1.83 121 1.83 152 1.93 145 1.99 217 2.01 200 2.02
  25  0.507  0.753  0.509-  73 1.79  95 1.83 225 1.91 218 1.97 201 2.02 151 2.07
  26  0.999  0.258  0.255- 122 1.80  74 1.88 209 1.93 188 1.96 141 1.99 219 2.02
  27  0.005  0.242  0.747- 113 1.80  96 1.84 142 1.96 146 1.97 210 2.03 226 2.05
  28  0.007  0.748  0.243-  71 1.81  97 1.84 220 1.95 227 1.97 147 2.04 211 2.06
  29  0.993  0.751  0.743- 111 1.82  72 1.84 228 1.93 221 1.98 189 2.02 148 2.02
  30  0.508  0.243  0.252-  98 1.82 114 1.82 149 1.92 143 1.94 229 2.03 205 2.04
  31  0.505  0.242  0.749-  99 1.84 115 1.85 144 1.91 150 1.95 206 2.03 230 2.04
  32  0.507  0.752  0.252- 100 1.79 151 1.92 231 1.93 145 1.94 222 1.96 207 2.01
  33  0.502  0.742  0.744- 116 1.81  73 1.84 190 1.93 208 1.97 152 2.02 232 2.04
  34  0.256  0.999  0.006-  75 1.84 101 1.85 246 1.94 233 1.97 171 2.01 157 2.04
  35  0.251  0.994  0.507- 128 1.83  76 1.83 172 1.95 191 1.96 156 2.02 234 2.04
  36  0.243  0.508  0.998- 123 1.82  89 1.83 159 1.94 153 1.98 192 2.01 245 2.03
  37  0.253  0.496  0.508-  77 1.82 102 1.90 127 1.92 173 1.99 235 2.00 158 2.08   1 2.80
  38  0.757  0.000  0.994- 103 1.79  81 1.87 236 1.95 249 1.96 154 2.04 174 2.05
  39  0.751  0.007  0.495- 124 1.80  80 1.85 193 1.94 175 1.98 155 2.00 250 2.04
  40  0.742  0.501  0.005-  90 1.80  78 1.87 237 1.95 247 1.95 161 2.03 194 2.05
  41  0.756  0.498  0.505-  79 1.84 104 1.85 248 1.93 238 1.98 160 2.02 176 2.03
  42  0.245  0.002  0.244-  75 1.83  91 1.85 239 1.94 252 1.97 156 2.04 195 2.05
  43  0.258  0.998  0.745- 105 1.83  76 1.84 253 1.93 240 1.97 157 2.02 177 2.02
  44  0.254  0.492  0.251- 129 1.83 106 1.85 158 1.94 153 1.95 178 2.01 241 2.03
  45  0.247  0.506  0.742-  77 1.82 125 1.82 179 1.94 196 1.96 251 2.03 159 2.03
  46  0.745  1.000  0.256-  80 1.84  92 1.85 256 1.95 242 1.95 197 2.00 154 2.01
  47  0.748  0.006  0.756-  81 1.82 126 1.83 180 1.94 198 1.97 257 2.04 155 2.05
  48  0.756  0.499  0.243-  78 1.81 107 1.85 243 1.95 254 1.95 181 2.03 160 2.05
  49  0.757  0.498  0.742- 108 1.83  79 1.84 255 1.93 244 1.97 182 2.03 161 2.03
  50  0.257  0.252  0.005- 109 1.82  82 1.87 245 1.93 233 1.97 168 2.01 183 2.05
  51  0.252  0.257  0.506-  83 1.83 127 1.85 199 1.94 184 1.99 234 2.02 167 2.05
  52  0.252  0.742  0.994- 123 1.82  86 1.84 200 1.94 185 1.96 246 2.03 162 2.03
  53  0.252  0.756  0.493-  85 1.83 128 1.85 201 1.94 186 1.97 235 2.03 163 2.04
  54  0.757  0.251  0.007- 110 1.81  84 1.85 236 1.94 247 1.94 187 2.03 170 2.03
  55  0.743  0.243  0.496-  93 1.76 124 1.85 169 1.95 164 1.97 248 2.03 202 2.07
  56  0.742  0.750  0.994-  94 1.82  88 1.83 237 1.94 249 1.94 203 2.02 165 2.04
  57  0.742  0.752  0.494-  95 1.81  87 1.86 250 1.92 238 1.96 166 2.01 204 2.03
  58  0.250  0.257  0.243-  82 1.81 129 1.84 205 1.96 188 1.98 239 2.02 167 2.03
  59  0.243  0.252  0.744-  96 1.83  83 1.86 251 1.93 240 1.97 168 2.02 206 2.03
  60  0.244  0.748  0.256-  97 1.83  85 1.84 241 1.95 252 1.97 162 2.03 207 2.05
  61  0.248  0.742  0.757- 125 1.83  86 1.83 189 1.93 208 1.97 253 2.03 163 2.04
  62  0.742  0.251  0.243-  84 1.80  98 1.82 254 1.94 242 1.94 169 2.04 209 2.04
  63  0.743  0.242  0.750- 126 1.82  99 1.84 170 1.94 164 1.98 210 2.03 255 2.04
  64  0.746  0.750  0.257-  87 1.81 100 1.90 243 1.94 256 1.94 211 1.98 165 2.02
  65  0.757  0.751  0.757- 111 1.82  88 1.84 257 1.93 244 1.97 190 2.02 166 2.05
  66  0.007  0.501  0.625-   5 1.82  13 1.83
  67  0.995  0.006  0.376-   3 1.83  10 1.86
  68  0.999  0.003  0.873-  11 1.79   2 1.88
  69  0.502  0.486  0.375-  16 1.84   9 1.88
  70  0.496  0.498  0.875-  17 1.80   8 1.87
  71  0.999  0.746  0.126-  28 1.81  20 1.86
  72  0.001  0.746  0.624-  21 1.83  29 1.84
  73  0.501  0.755  0.625-  25 1.79  33 1.84
  74  0.995  0.247  0.376-  19 1.78  26 1.88
  75  0.254  0.002  0.126-  42 1.83  34 1.84
  76  0.253  0.003  0.625-  35 1.83  43 1.84
  77  0.243  0.491  0.626-  45 1.82  37 1.82
  78  0.753  0.494  0.126-  48 1.81  40 1.87
  79  0.747  0.495  0.624-  41 1.84  49 1.84
  80  0.753  0.996  0.375-  46 1.84  39 1.85
  81  0.747  0.997  0.874-  47 1.82  38 1.87
  82  0.245  0.253  0.125-  58 1.81  50 1.87
  83  0.254  0.255  0.624-  51 1.83  59 1.86
  84  0.742  0.257  0.126-  62 1.80  54 1.85
  85  0.255  0.745  0.375-  53 1.83  60 1.84
  86  0.251  0.751  0.875-  61 1.83  52 1.84
  87  0.752  0.753  0.374-  64 1.81  57 1.86
  88  0.747  0.754  0.875-  56 1.83  65 1.84
  89  0.125  0.503  0.997-  36 1.83   4 1.84
  90  0.625  0.506  0.001-  40 1.80   8 1.89
  91  0.126  0.003  0.253-  10 1.84  42 1.85
  92  0.625  0.001  0.250-  14 1.83  46 1.85
  93  0.629  0.255  0.490-  55 1.76  23 1.89
  94  0.625  0.743  0.004-  56 1.82  24 1.83
  95  0.625  0.759  0.497-  57 1.81  25 1.83
  96  0.125  0.250  0.748-  59 1.83  27 1.84
  97  0.126  0.751  0.251-  60 1.83  28 1.84
  98  0.626  0.247  0.263-  30 1.82  62 1.82
  99  0.624  0.251  0.745-  63 1.84  31 1.84
 100  0.623  0.754  0.250-  32 1.79  64 1.90
 101  0.376  0.000  0.993-   6 1.83  34 1.85
 102  0.375  0.500  0.492-   9 1.84  37 1.90   1 2.08
 103  0.873  0.003  0.001-  38 1.79   2 1.89
 104  0.876  0.500  0.498-   5 1.82  41 1.85
 105  0.375  0.995  0.757-  15 1.82  43 1.83
 106  0.374  0.491  0.258-  44 1.85  16 1.86
 107  0.876  0.499  0.254-  12 1.82  48 1.85
 108  0.875  0.507  0.748-  13 1.82  49 1.83
 109  0.375  0.247  0.003-  50 1.82  22 1.85
 110  0.874  0.247  0.005-  54 1.81  18 1.87
 111  0.875  0.744  0.750-  65 1.82  29 1.82
 112  0.511  0.118  0.499-   7 1.72  23 1.97
 113  0.995  0.126  0.743-  27 1.80  11 1.84
 114  0.496  0.126  0.264-  30 1.82  14 1.82
 115  0.499  0.122  0.747-  15 1.83  31 1.85
 116  0.501  0.625  0.749-  33 1.81  17 1.87
 117  0.999  0.375  0.004-  18 1.83   4 1.85
 118  0.001  0.875  0.001-  20 1.80   2 1.87
 119  0.003  0.875  0.498-   3 1.81  21 1.83
 120  0.501  0.374  0.007-  22 1.80   8 1.88
 121  0.503  0.875  0.003-  24 1.83   6 1.85
 122  0.006  0.374  0.248-  26 1.80  12 1.86
 123  0.255  0.625  0.004-  52 1.82  36 1.82
 124  0.748  0.123  0.502-  39 1.80  55 1.85
 125  0.248  0.624  0.747-  45 1.82  61 1.83
 126  0.752  0.124  0.746-  63 1.82  47 1.83
 127  0.258  0.374  0.483-  51 1.85  37 1.92   1 2.10
 128  0.249  0.876  0.499-  35 1.83  53 1.85
 129  0.244  0.374  0.262-  44 1.83  58 1.84
 130  0.001  0.002  0.127-  10 2.00   2 2.04
 131  0.007  0.997  0.624-   3 2.01  11 2.06
 132  0.998  0.509  0.125-  12 1.96   4 1.98
 133  0.494  0.007  0.127-  14 1.93   6 1.97
 134  0.498  0.987  0.625-   7 1.94  15 1.97
 135  0.497  0.510  0.128-  16 2.00   8 2.04
 136  0.503  0.503  0.624-   9 1.98  17 2.09
 137  0.007  0.496  0.376-  12 1.93   5 2.03
 138  0.997  0.498  0.873-   4 1.93  13 2.02
 139  0.503  0.989  0.376-  14 1.94   7 1.94
 140  0.514  0.002  0.876-  15 1.94   6 1.95
 141  0.008  0.246  0.127-  18 1.96  26 1.99
 142  0.999  0.259  0.621-  27 1.96  19 2.02
 143  0.507  0.238  0.126-  30 1.94  22 1.97
 144  0.487  0.248  0.626-  31 1.91  23 1.99
 145  0.495  0.745  0.127-  32 1.94  24 1.99
 146  0.997  0.250  0.874-  18 1.96  27 1.97
 147  0.995  0.750  0.375-  21 2.02  28 2.04
 148  0.003  0.751  0.874-  29 2.02  20 2.04
 149  0.487  0.274  0.371-  30 1.92  23 2.05
 150  0.502  0.251  0.875-  31 1.95  22 1.95
 151  0.493  0.752  0.376-  32 1.92  25 2.07
 152  0.500  0.749  0.875-  24 1.93  33 2.02
 153  0.249  0.491  0.125-  44 1.95  36 1.98
 154  0.749  0.005  0.126-  46 2.01  38 2.04
 155  0.746  0.997  0.624-  39 2.00  47 2.05
 156  0.253  0.003  0.376-  35 2.02  42 2.04
 157  0.243  0.995  0.875-  43 2.02  34 2.04
 158  0.244  0.513  0.375-  44 1.94  37 2.08
 159  0.258  0.500  0.874-  36 1.94  45 2.03
 160  0.745  0.506  0.375-  41 2.02  48 2.05
 161  0.750  0.504  0.874-  40 2.03  49 2.03
 162  0.253  0.755  0.125-  60 2.03  52 2.03
 163  0.249  0.752  0.625-  61 2.04  53 2.04
 164  0.753  0.259  0.623-  55 1.97  63 1.98
 165  0.754  0.746  0.126-  64 2.02  56 2.04
 166  0.749  0.746  0.624-  57 2.01  65 2.05
 167  0.252  0.242  0.374-  58 2.03  51 2.05
 168  0.249  0.250  0.875-  50 2.01  59 2.02
 169  0.767  0.244  0.372-  55 1.95  62 2.04
 170  0.750  0.247  0.875-  63 1.94  54 2.03
 171  0.126  0.001  0.001-  34 2.01   2 2.03
 172  0.126  0.010  0.497-   3 1.95  35 1.95
 173  0.125  0.501  0.495-  37 1.99   5 2.03
 174  0.625  0.001  0.008-   6 2.03  38 2.05
 175  0.626  0.981  0.501-   7 1.95  39 1.98
 176  0.625  0.496  0.499-   9 2.02  41 2.03
 177  0.127  0.003  0.749-  11 1.94  43 2.02
 178  0.125  0.506  0.246-  44 2.01  12 2.04
 179  0.124  0.494  0.760-  45 1.94  13 2.05
 180  0.624  0.995  0.743-  47 1.94  15 2.03
 181  0.625  0.499  0.248-  16 2.02  48 2.03
 182  0.626  0.494  0.753-  17 1.94  49 2.03
 183  0.125  0.251  0.995-  18 2.01  50 2.05
 184  0.124  0.246  0.500-  19 1.95  51 1.99
 185  0.125  0.746  0.002-  52 1.96  20 1.97
 186  0.125  0.744  0.496-  21 1.96  53 1.97
 187  0.626  0.251  0.995-  22 2.03  54 2.03
 188  0.124  0.238  0.256-  26 1.96  58 1.98
 189  0.123  0.752  0.750-  61 1.93  29 2.02
 190  0.626  0.753  0.749-  33 1.93  65 2.02
 191  0.377  0.004  0.498-   7 1.94  35 1.96
 192  0.373  0.496  0.006-  36 2.01   8 2.02
 193  0.876  0.001  0.510-  39 1.94   3 1.95
 194  0.875  0.499  0.998-   4 2.02  40 2.05
 195  0.377  0.997  0.256-  14 2.01  42 2.05
 196  0.374  0.498  0.743-  45 1.96  17 1.97
 197  0.874  0.999  0.246-  46 2.00  10 2.05
 198  0.874  0.993  0.741-  47 1.97  11 1.98
 199  0.377  0.246  0.491-  51 1.94  23 2.02
 200  0.376  0.757  0.001-  52 1.94  24 2.02
 201  0.377  0.744  0.503-  53 1.94  25 2.02
 202  0.876  0.255  0.505-  19 1.90  55 2.07
 203  0.872  0.754  0.998-  20 1.94  56 2.02
 204  0.873  0.745  0.502-  21 1.94  57 2.03
 205  0.377  0.259  0.246-  58 1.96  30 2.04
 206  0.374  0.251  0.757-  31 2.03  59 2.03
 207  0.377  0.748  0.248-  32 2.01  60 2.05
 208  0.375  0.755  0.750-  61 1.97  33 1.97
 209  0.875  0.255  0.241-  26 1.93  62 2.04
 210  0.874  0.255  0.748-  63 2.03  27 2.03
 211  0.874  0.745  0.250-  64 1.98  28 2.06
 212  0.004  0.127  0.002-  18 2.01   2 2.03
 213  0.996  0.126  0.510-  19 1.91   3 2.09
 214  0.994  0.625  0.994-   4 2.01  20 2.06
 215  0.001  0.626  0.493-   5 1.92  21 2.03
 216  0.505  0.125  0.998-   6 2.01  22 2.06
 217  0.490  0.627  0.000-  24 2.01   8 2.04
 218  0.506  0.626  0.496-   9 1.96  25 1.97
 219  0.992  0.128  0.246-  10 1.94  26 2.02
 220  0.001  0.623  0.258-  28 1.95  12 2.00
 221  0.010  0.624  0.755-  13 1.96  29 1.98
 222  0.501  0.625  0.257-  32 1.96  16 1.99
 223  0.006  0.374  0.497-  19 1.95   5 1.99
 224  0.491  0.376  0.508-   9 1.92  23 2.03
 225  0.487  0.875  0.495-  25 1.91   7 2.05
 226  0.997  0.374  0.752-  13 1.93  27 2.05
 227  0.995  0.876  0.251-  10 1.97  28 1.97
 228  0.001  0.876  0.748-  29 1.93  11 2.04
 229  0.505  0.373  0.233-  16 1.95  30 2.03
 230  0.497  0.374  0.746-  17 2.02  31 2.04
 231  0.496  0.876  0.246-  32 1.93  14 2.06
 232  0.503  0.874  0.759-  15 2.02  33 2.04
 233  0.245  0.125  0.995-  50 1.97  34 1.97
 234  0.252  0.126  0.499-  51 2.02  35 2.04
 235  0.249  0.626  0.507-  37 2.00  53 2.03
 236  0.742  0.126  0.000-  54 1.94  38 1.95
 237  0.760  0.625  0.001-  56 1.94  40 1.95
 238  0.746  0.625  0.500-  57 1.96  41 1.98
 239  0.260  0.127  0.251-  42 1.94  58 2.02
 240  0.253  0.125  0.755-  43 1.97  59 1.97
 241  0.253  0.623  0.239-  60 1.95  44 2.03
 242  0.758  0.126  0.249-  62 1.94  46 1.95
 243  0.745  0.625  0.248-  64 1.94  48 1.95
 244  0.740  0.624  0.749-  65 1.97  49 1.97
 245  0.249  0.376  0.995-  50 1.93  36 2.03
 246  0.246  0.874  0.003-  34 1.94  52 2.03
 247  0.749  0.375  0.989-  54 1.94  40 1.95
 248  0.755  0.374  0.489-  41 1.93  55 2.03
 249  0.747  0.875  0.010-  56 1.94  38 1.96
 250  0.761  0.875  0.505-  57 1.92  39 2.04
 251  0.252  0.376  0.759-  59 1.93  45 2.03
 252  0.255  0.875  0.252-  42 1.97  60 1.97
 253  0.245  0.873  0.746-  43 1.93  61 2.03
 254  0.749  0.375  0.263-  62 1.94  48 1.95
 255  0.753  0.374  0.757-  49 1.93  63 2.04
 256  0.755  0.875  0.240-  64 1.94  46 1.95
 257  0.751  0.875  0.743-  65 1.93  47 2.04
 

IMPORTANT INFORMATION: All symmetrisations will be switched off!
NOSYMM: (Re-)initialisation of all symmetry stuff for point group C_1.

 
 
 KPOINTS: Title                                   

Automatic generation of k-mesh.
Space group operators:
 irot       det(A)        alpha          n_x          n_y          n_z        tau_x        tau_y        tau_z
    1     1.000000     0.000001     1.000000     0.000000     0.000000     0.000000     0.000000     0.000000
 
 Subroutine IBZKPT returns following result:
 ===========================================
 
 Found      4 irreducible k-points:
 
 Following reciprocal coordinates:
            Coordinates               Weight
  0.250000  0.250000  0.250000      2.000000
 -0.250000  0.250000  0.250000      2.000000
  0.250000 -0.250000  0.250000      2.000000
 -0.250000 -0.250000  0.250000      2.000000
 
 Following cartesian coordinates:
            Coordinates               Weight
  0.016206  0.016206  0.016206      2.000000
 -0.016206  0.016206  0.016206      2.000000
  0.016206 -0.016206  0.016206      2.000000
 -0.016206 -0.016206  0.016206      2.000000
 


--------------------------------------------------------------------------------------------------------




 Dimension of arrays:
   k-points           NKPTS =      4   k-points in BZ     NKDIM =      4   number of bands    NBANDS=   1164
   number of dos      NEDOS =   3001   number of ions     NIONS =    257
   non local maximal  LDIM  =      6   non local SUM 2l+1 LMDIM =     18
   total plane-waves  NPLWV = ******
   max r-space proj   IRMAX =   7595   max aug-charges    IRDMAX= 146383
   dimension x,y,z NGX =   120 NGY =  120 NGZ =  120
   dimension x,y,z NGXF=   240 NGYF=  240 NGZF=  240
   support grid    NGXF=   480 NGYF=  480 NGZF=  480
   ions per type =               1  64  64 128
   NGX,Y,Z   is equivalent  to a cutoff of  12.93, 12.93, 12.93 a.u.
   NGXF,Y,Z  is equivalent  to a cutoff of  25.86, 25.86, 25.86 a.u.

 SYSTEM =  LTO                                     
 POSCAR =  config 22                               

 Startparameter for this run:
   NWRITE =      2    write-flag & timer
   PREC   = accura    normal or accurate (medium, high low for compatibility)
   ISTART =      1    job   : 0-new  1-cont  2-samecut
   ICHARG =      0    charge: 1-file 2-atom 10-const
   ISPIN  =      2    spin polarized calculation?
   LNONCOLLINEAR =      F non collinear calculations
   LSORBIT =      F    spin-orbit coupling
   INIWAV =      1    electr: 0-lowe 1-rand  2-diag
   LASPH  =      T    aspherical Exc in radial PAW
   METAGGA=      F    non-selfconsistent MetaGGA calc.

 Electronic Relaxation 1
   ENCUT  =  500.0 eV  36.75 Ry    6.06 a.u.  28.13 28.13 28.13*2*pi/ulx,y,z
   ENINI  =  500.0     initial cutoff
   ENAUG  =  628.9 eV  augmentation charge cutoff
   NELM   =     60;   NELMIN=  2; NELMDL=  0     # of ELM steps 
   EDIFF  = 0.1E-05   stopping-criterion for ELM
   LREAL  =      T    real-space projection
   NLSPLINE    = F    spline interpolate recip. space projectors
   LCOMPAT=      F    compatible to vasp.4.4
   GGA_COMPAT  = T    GGA compatible to vasp.4.4-vasp.4.6
   LMAXPAW     = -100 max onsite density
   LMAXMIX     =    4 max onsite mixed and CHGCAR
   VOSKOWN=      0    Vosko Wilk Nusair interpolation
   ROPT   =   -0.00010  -0.00010  -0.00010  -0.00010
 Ionic relaxation
   EDIFFG = -.5E-01   stopping-criterion for IOM
   NSW    =    100    number of steps for IOM
   NBLOCK =      1;   KBLOCK =    100    inner block; outer block 
   IBRION =      1    ionic relax: 0-MD 1-quasi-New 2-CG
   NFREE  =      0    steps in history (QN), initial steepest desc. (CG)
   ISIF   =      2    stress and relaxation
   IWAVPR =     11    prediction:  0-non 1-charg 2-wave 3-comb
   ISYM   =      0    0-nonsym 1-usesym 2-fastsym
   LCORR  =      T    Harris-Foulkes like correction to forces

   POTIM  = 0.5000    time-step for ionic-motion
   TEIN   =    0.0    initial temperature
   TEBEG  =    0.0;   TEEND  =   0.0 temperature during run
   SMASS  =  -3.00    Nose mass-parameter (am)
   estimated Nose-frequenzy (Omega)   =  0.10E-29 period in steps =****** mass=  -0.544E-26a.u.
   SCALEE = 1.0000    scale energy and forces
   NPACO  =    256;   APACO  = 16.0  distance and # of slots for P.C.
   PSTRESS=    0.0 pullay stress

  Mass of Ions in am
   POMASS =   7.01 47.88 16.00 19.00
  Ionic Valenz
   ZVAL   =   3.00 10.00  6.00  7.00
  Atomic Wigner-Seitz radii
   RWIGS  =  -1.00 -1.00 -1.00 -1.00
  virtual crystal weights 
   VCA    =   1.00  1.00  1.00  1.00
   NELECT =    1923.0000    total number of electrons
   NUPDOWN=       1.0000    fix difference up-down

 DOS related values:
   EMIN   =  10.00;   EMAX   =-10.00  energy-range for DOS
   EFERMI =   0.00
   ISMEAR =     0;   SIGMA  =   0.01  broadening in eV -4-tet -1-fermi 0-gaus

 Electronic relaxation 2 (details)
   IALGO  =     38    algorithm
   LDIAG  =      T    sub-space diagonalisation (order eigenvalues)
   LSUBROT=      F    optimize rotation matrix (better conditioning)
   TURBO    =      0    0=normal 1=particle mesh
   IRESTART =      0    0=no restart 2=restart with 2 vectors
   NREBOOT  =      0    no. of reboots
   NMIN     =      0    reboot dimension
   EREF     =   0.00    reference energy to select bands
   IMIX   =      4    mixing-type and parameters
     AMIX     =   0.40;   BMIX     =  1.00
     AMIX_MAG =   1.60;   BMIX_MAG =  1.00
     AMIN     =   0.10
     WC   =   100.;   INIMIX=   1;  MIXPRE=   1;  MAXMIX= -45

 Intra band minimization:
   WEIMIN = 0.0010     energy-eigenvalue tresh-hold
   EBREAK =  0.21E-09  absolut break condition
   DEPER  =   0.30     relativ break condition  

   TIME   =   0.40     timestep for ELM

  volume/ion in A,a.u.               =      14.28        96.39
  Fermi-wavevector in a.u.,A,eV,Ry     =   1.319690  2.493853 23.695660  1.741582
  Thomas-Fermi vector in A             =   2.449570
 
 Write flags
   LWAVE        =      T    write WAVECAR
   LDOWNSAMPLE  =      F    k-point downsampling of WAVECAR
   LCHARG       =      T    write CHGCAR
   LVTOT        =      F    write LOCPOT, total local potential
   LVHAR        =      F    write LOCPOT, Hartree potential only
   LELF         =      F    write electronic localiz. function (ELF)
   LORBIT       =     11    0 simple, 1 ext, 2 COOP (PROOUT), +10 PAW based schemes


 Dipole corrections
   LMONO  =      F    monopole corrections only (constant potential shift)
   LDIPOL =      F    correct potential (dipole corrections)
   IDIPOL =      0    1-x, 2-y, 3-z, 4-all directions 
   EPSILON=  1.0000000 bulk dielectric constant

 LDA+U is selected, type is set to LDAUTYPE =  2
   angular momentum for each species LDAUL =    -1    2   -1   -1
   U (eV)           for each species LDAUU =   0.0  4.2  0.0  0.0
   J (eV)           for each species LDAUJ =   0.0  0.0  0.0  0.0
 Exchange correlation treatment:
   GGA     =    PS    GGA type
   LEXCH   =    14    internal setting for exchange type
   VOSKOWN=      0    Vosko Wilk Nusair interpolation
   LHFCALC =     F    Hartree Fock is set to
   LHFONE  =     F    Hartree Fock one center treatment
   AEXX    =    0.0000 exact exchange contribution

 Linear response parameters
   LEPSILON=     F    determine dielectric tensor
   LRPA    =     F    only Hartree local field effects (RPA)
   LNABLA  =     F    use nabla operator in PAW spheres
   LVEL    =     F    velocity operator in full k-point grid
   LINTERFAST=   F  fast interpolation
   KINTER  =     0    interpolate to denser k-point grid
   CSHIFT  =0.1000    complex shift for real part using Kramers Kronig
   OMEGAMAX=  -1.0    maximum frequency
   DEG_THRESHOLD= 0.2000000E-02 threshold for treating states as degnerate
   RTIME   =   -0.100 relaxation time in fs
  (WPLASMAI=    0.000 imaginary part of plasma frequency in eV, 0.658/RTIME)
   DFIELD  = 0.0000000 0.0000000 0.0000000 field for delta impulse in time
 
 Orbital magnetization related:
   ORBITALMAG=     F  switch on orbital magnetization
   LCHIMAG   =     F  perturbation theory with respect to B field
   DQ        =  0.001000  dq finite difference perturbation B field
   LLRAUG    =     F  two centre corrections for induced B field



--------------------------------------------------------------------------------------------------------


 quasi-Newton-method for relaxation of ions
 charge density and potential will be updated during run
 spin polarized calculation
 Variant of blocked Davidson
 Davidson routine will perform the subspace rotation
 perform sub-space diagonalisation
    after iterative eigenvector-optimisation
 modified Broyden-mixing scheme, WC =      100.0
 initial mixing is a Kerker type mixing with AMIX =  0.4000 and BMIX =      1.0000
 Hartree-type preconditioning will be used
 using additional bands          202
 real space projection scheme for non local part
 use partial core corrections
 calculate Harris-corrections to forces 
   (improved forces if not selfconsistent)
 use gradient corrections 
 use of overlap-Matrix (Vanderbilt PP)
 Gauss-broadening in eV      SIGMA  =   0.01


--------------------------------------------------------------------------------------------------------


  energy-cutoff  :      500.00
  volume of cell :     3671.03
      direct lattice vectors                 reciprocal lattice vectors
    15.426331000  0.000000000  0.000000000     0.064824228  0.000000000  0.000000000
     0.000000000 15.426331000  0.000000000     0.000000000  0.064824228  0.000000000
     0.000000000  0.000000000 15.426331000     0.000000000  0.000000000  0.064824228

  length of vectors
    15.426331000 15.426331000 15.426331000     0.064824228  0.064824228  0.064824228


 
 old parameters found on file WAVECAR:
  energy-cutoff  :      500.00
  volume of cell :     3671.03
      direct lattice vectors                 reciprocal lattice vectors
    15.426331000  0.000000000  0.000000000     0.064824228  0.000000000  0.000000000
     0.000000000 15.426331000  0.000000000     0.000000000  0.064824228  0.000000000
     0.000000000  0.000000000 15.426331000     0.000000000  0.000000000  0.064824228

  length of vectors

 
 k-points in units of 2pi/SCALE and weight: Title                                   
   0.01620606  0.01620606  0.01620606       0.250
  -0.01620606  0.01620606  0.01620606       0.250
   0.01620606 -0.01620606  0.01620606       0.250
  -0.01620606 -0.01620606  0.01620606       0.250
 
 k-points in reciprocal lattice and weights: Title                                   
   0.25000000  0.25000000  0.25000000       0.250
  -0.25000000  0.25000000  0.25000000       0.250
   0.25000000 -0.25000000  0.25000000       0.250
  -0.25000000 -0.25000000  0.25000000       0.250
 
 position of ions in fractional coordinates (direct lattice) 
   0.36399938  0.40074667  0.40098204
   0.99493738  0.99558903  0.99464401
   0.00088458  0.99193929  0.49351078
   0.00526137  0.49514121  0.99785812
   0.99378766  0.50237868  0.50698628
   0.49410898  0.99460436  0.00034844
   0.50232773  0.00686229  0.50112880
   0.50371789  0.49558675  0.99622536
   0.49404234  0.50000341  0.49533884
   0.00668097  0.00278186  0.25622482
   0.00112097  0.00752994  0.75670786
   0.99330116  0.49387759  0.25160455
   0.99233306  0.49896877  0.74209568
   0.50650211  0.00909247  0.25185707
   0.49262943  0.00426308  0.75201604
   0.49406087  0.49636780  0.25643490
   0.50081980  0.50436020  0.75879000
   0.99476128  0.25708160  0.00113788
   0.99821223  0.24846683  0.49108456
   0.99799907  0.75805411  0.00607092
   0.99857869  0.75666159  0.50590727
   0.49457319  0.25790809  0.00073124
   0.50762685  0.24566730  0.49874265
   0.50725291  0.75650435  0.99941143
   0.50682614  0.75334732  0.50907679
   0.99906952  0.25817944  0.25478171
   0.00527410  0.24214247  0.74689809
   0.00707171  0.74844234  0.24312695
   0.99273626  0.75062173  0.74335579
   0.50848886  0.24287059  0.25185562
   0.50513518  0.24221243  0.74874524
   0.50692510  0.75174568  0.25202114
   0.50169444  0.74229082  0.74369900
   0.25620033  0.99855816  0.00622697
   0.25075488  0.99420682  0.50676110
   0.24337242  0.50765771  0.99794138
   0.25264164  0.49589060  0.50816424
   0.75706748  0.00039430  0.99438909
   0.75126877  0.00665454  0.49456640
   0.74176452  0.50054366  0.00491377
   0.75619515  0.49775094  0.50488925
   0.24497877  0.00201376  0.24402329
   0.25759388  0.99783153  0.74461649
   0.25397895  0.49211917  0.25125894
   0.24744951  0.50633966  0.74237233
   0.74502064  0.99994388  0.25611009
   0.74834618  0.00605783  0.75613272
   0.75603130  0.49933918  0.24268785
   0.75696052  0.49796496  0.74240138
   0.25677064  0.25150740  0.00507073
   0.25241523  0.25669417  0.50562191
   0.25185125  0.74239661  0.99404445
   0.25170248  0.75597016  0.49305337
   0.75662222  0.25056820  0.00689834
   0.74270981  0.24290300  0.49600748
   0.74182598  0.74982849  0.99411978
   0.74211002  0.75233541  0.49418479
   0.25037865  0.25692819  0.24278998
   0.24329211  0.25204401  0.74421211
   0.24429078  0.74785902  0.25595406
   0.24790143  0.74218685  0.75665683
   0.74235324  0.25068197  0.24257528
   0.74285221  0.24180630  0.74962592
   0.74587667  0.75039852  0.25660842
   0.75726451  0.75064162  0.75679099
   0.00669720  0.50132629  0.62454990
   0.99500758  0.00590816  0.37614776
   0.99876912  0.00281703  0.87274366
   0.50156230  0.48630826  0.37475287
   0.49562595  0.49847536  0.87508250
   0.99859589  0.74594350  0.12581389
   0.00117631  0.74633247  0.62426954
   0.50083939  0.75490876  0.62512307
   0.99519414  0.24668556  0.37600949
   0.25405360  0.00249785  0.12560139
   0.25306565  0.00275831  0.62535485
   0.24337910  0.49068770  0.62574038
   0.75255637  0.49354807  0.12555639
   0.74739593  0.49473612  0.62366714
   0.75252453  0.99631017  0.37519543
   0.74722371  0.99655939  0.87381784
   0.24500906  0.25304730  0.12542822
   0.25379265  0.25511776  0.62414717
   0.74233648  0.25698002  0.12580566
   0.25456466  0.74508042  0.37483905
   0.25057623  0.75060630  0.87504466
   0.75175530  0.75347304  0.37387538
   0.74719952  0.75377412  0.87536824
   0.12451919  0.50285209  0.99731265
   0.62537584  0.50614783  0.00089506
   0.12560902  0.00271951  0.25287039
   0.62503648  0.00076432  0.25000955
   0.62925630  0.25528619  0.48985683
   0.62467081  0.74282272  0.00446353
   0.62476861  0.75924740  0.49696468
   0.12451036  0.24976465  0.74764350
   0.12597478  0.75139449  0.25148250
   0.62600023  0.24660149  0.26262193
   0.62434887  0.25081543  0.74453296
   0.62288187  0.75421711  0.25016974
   0.37563618  0.00046371  0.99321206
   0.37486839  0.50008954  0.49191856
   0.87311532  0.00303835  0.00096408
   0.87591522  0.50013176  0.49772977
   0.37535314  0.99459150  0.75702558
   0.37379623  0.49121411  0.25824147
   0.87567294  0.49921737  0.25446529
   0.87499444  0.50708179  0.74750326
   0.37494246  0.24746402  0.00261899
   0.87400252  0.24705409  0.00451102
   0.87494454  0.74390853  0.75036585
   0.51075689  0.11794876  0.49883117
   0.99468862  0.12608119  0.74286465
   0.49564840  0.12616182  0.26433351
   0.49931228  0.12239209  0.74710887
   0.50068440  0.62518085  0.74878585
   0.99885122  0.37531467  0.00398035
   0.00099476  0.87488433  0.00108179
   0.00347852  0.87465675  0.49786447
   0.50104675  0.37435136  0.00743613
   0.50346590  0.87526074  0.00327114
   0.00596098  0.37422147  0.24759967
   0.25483268  0.62501838  0.00371561
   0.74777635  0.12328964  0.50161018
   0.24832732  0.62415230  0.74731918
   0.75192626  0.12426026  0.74607132
   0.25837630  0.37443289  0.48310951
   0.24895184  0.87561340  0.49909821
   0.24374989  0.37447752  0.26241711
   0.00127042  0.00193631  0.12678139
   0.00659702  0.99719768  0.62360688
   0.99795662  0.50867846  0.12528810
   0.49411114  0.00742243  0.12710410
   0.49763635  0.98725850  0.62537168
   0.49723518  0.50999193  0.12782513
   0.50264691  0.50251473  0.62365019
   0.00671388  0.49615963  0.37605106
   0.99722646  0.49764448  0.87287095
   0.50293251  0.98921737  0.37629791
   0.51413118  0.00191090  0.87586672
   0.00792000  0.24592990  0.12692771
   0.99944155  0.25944964  0.62127334
   0.50743520  0.23789843  0.12641787
   0.48701411  0.24770075  0.62632378
   0.49521684  0.74531790  0.12713603
   0.99663260  0.24979043  0.87400076
   0.99481066  0.75027080  0.37502559
   0.00264984  0.75071024  0.87396653
   0.48708454  0.27394691  0.37076967
   0.50172175  0.25085963  0.87460897
   0.49338455  0.75170483  0.37550917
   0.49978673  0.74889920  0.87459483
   0.24930048  0.49079919  0.12504085
   0.74906463  0.00538510  0.12615718
   0.74597306  0.99652026  0.62362330
   0.25324251  0.00268878  0.37579540
   0.24334883  0.99508879  0.87466862
   0.24447928  0.51273888  0.37477833
   0.25787416  0.49994517  0.87354781
   0.74454642  0.50621676  0.37458615
   0.75036101  0.50421262  0.87382008
   0.25269883  0.75461650  0.12510121
   0.24881942  0.75159432  0.62506290
   0.75271746  0.25892176  0.62261927
   0.75352471  0.74585360  0.12568341
   0.74856762  0.74615923  0.62437561
   0.25173582  0.24165140  0.37363295
   0.24864658  0.25008458  0.87521740
   0.76733933  0.24436078  0.37214932
   0.74967155  0.24670755  0.87540618
   0.12594860  0.00107775  0.00143202
   0.12575985  0.01004963  0.49656478
   0.12453176  0.50102278  0.49470686
   0.62503569  0.00063921  0.00778321
   0.62593425  0.98124158  0.50144193
   0.62496137  0.49605775  0.49921321
   0.12682620  0.00275655  0.74886166
   0.12459841  0.50615056  0.24565184
   0.12363163  0.49422600  0.76049243
   0.62364994  0.99495314  0.74285778
   0.62482543  0.49892411  0.24777316
   0.62603417  0.49364507  0.75259944
   0.12455786  0.25119827  0.99529289
   0.12409362  0.24634842  0.49952220
   0.12520693  0.74560746  0.00154160
   0.12483900  0.74438738  0.49606129
   0.62554728  0.25079743  0.99536118
   0.12422084  0.23776358  0.25558851
   0.12338013  0.75243879  0.75046890
   0.62643629  0.75313427  0.74897189
   0.37689356  0.00407706  0.49752009
   0.37303672  0.49603373  0.00561248
   0.87612766  0.00083360  0.51030228
   0.87454571  0.49884949  0.99770016
   0.37696190  0.99707208  0.25575916
   0.37433701  0.49763115  0.74313061
   0.87446982  0.99936148  0.24557407
   0.87447232  0.99270329  0.74149648
   0.37669604  0.24599094  0.49144306
   0.37635948  0.75650393  0.00065587
   0.37662051  0.74350561  0.50302400
   0.87598868  0.25469510  0.50526237
   0.87236520  0.75356024  0.99782715
   0.87339189  0.74514230  0.50233780
   0.37707465  0.25902631  0.24576216
   0.37428769  0.25051009  0.75693604
   0.37706362  0.74765037  0.24775694
   0.37469390  0.75510754  0.74953998
   0.87459927  0.25509711  0.24138710
   0.87398204  0.25473659  0.74789268
   0.87400204  0.74517025  0.24955849
   0.00447137  0.12694190  0.00153535
   0.99576147  0.12607925  0.50950779
   0.99444251  0.62525704  0.99422200
   0.00084937  0.62599984  0.49266264
   0.50465783  0.12470202  0.99782100
   0.48997323  0.62720432  0.00015757
   0.50566142  0.62639315  0.49586975
   0.99239537  0.12759108  0.24627120
   0.00119304  0.62313626  0.25774325
   0.01012482  0.62426453  0.75515674
   0.50100904  0.62497865  0.25721783
   0.00588512  0.37428492  0.49718685
   0.49112446  0.37598482  0.50830915
   0.48743214  0.87505501  0.49465271
   0.99655372  0.37446472  0.75152547
   0.99531654  0.87561220  0.25148041
   0.00091143  0.87560475  0.74800867
   0.50485708  0.37291451  0.23277776
   0.49685145  0.37396730  0.74611866
   0.49563898  0.87589928  0.24622471
   0.50299115  0.87377678  0.75873725
   0.24502530  0.12502090  0.99481772
   0.25224689  0.12603998  0.49904328
   0.24895009  0.62550494  0.50746195
   0.74204065  0.12606155  0.00016901
   0.76002536  0.62538775  0.00080901
   0.74593382  0.62534945  0.50009137
   0.25970368  0.12691006  0.25138993
   0.25299823  0.12509149  0.75523263
   0.25277110  0.62287680  0.23945033
   0.75776964  0.12583570  0.24919880
   0.74492203  0.62504771  0.24847696
   0.73956918  0.62445607  0.74869991
   0.24942139  0.37625605  0.99506233
   0.24579681  0.87358283  0.00282090
   0.74927400  0.37512671  0.98920155
   0.75493237  0.37363008  0.48891394
   0.74661654  0.87481221  0.01000865
   0.76148939  0.87506323  0.50540700
   0.25200855  0.37616789  0.75869323
   0.25483486  0.87524763  0.25204612
   0.24459744  0.87316561  0.74646715
   0.74874461  0.37466826  0.26289205
   0.75320305  0.37377015  0.75653741
   0.75528029  0.87480753  0.24020221
   0.75077637  0.87458960  0.74264972
 
 position of ions in cartesian coordinates  (Angst):
   5.61517500  6.18205081  6.18568163
  15.34823331 15.35828596 15.34370777
   0.01364575 15.30198388  7.61306068
   0.08116368  7.63821216 15.39328970
  15.33049745  7.74985975  7.82093817
   7.62228873 15.34309614  0.00537514
   7.74907385  0.10586001  7.73057881
   7.77051892  7.64508527 15.36810209
   7.62126069  7.71321808  7.64126084
   0.10306283  0.04291387  3.95260884
   0.01729251  0.11615939 11.67322592
  15.32299251  7.61871920  3.88133502
  15.30805818  7.69725737 11.44781358
   7.81346919  0.14026353  3.88523056
   7.59946460  0.06576366 11.60084834
   7.62154644  7.65713398  3.95584969
   7.72581200  7.78042746 11.70534571
  15.34551672  3.96582583  0.01755326
  15.39875229  3.83293163  7.57563299
  15.39546404 11.69399366  0.09365203
  15.40440534 11.67251221  7.80429297
   7.62944979  3.97857558  0.01128033
   7.83081977  3.78974506  7.69376919
   7.82505126 11.67008645 15.41725145
   7.81846776 11.62138506  7.85318702
  15.41197707  3.98276148  3.93034705
   0.08136001  3.73536991 11.52189712
   0.10909046 11.54571932  3.75055675
  15.31427819 11.57933932 11.46725247
   7.84411752  3.74660211  3.88520816
   7.79238256  3.73644919 11.55039192
   7.81999432 11.59667776  3.88776150
   7.73930451 11.45082385 11.47254696
   3.95223114 15.40408874  0.09605928
   3.86822783 15.33696346  7.81746443
   3.75434346  7.83129581 15.39457411
   3.89733363  7.64977251  7.83910980
  11.67877348  0.00608258 15.33977522
  11.58932070  0.10265517  7.62934496
  11.44270496  7.72155216  0.07580146
  11.66531663  7.67847081  7.78858865
   3.77912352  0.03106499  3.76438408
   3.97372847 15.39287941 11.48670046
   3.91796342  7.59159322  3.87600356
   3.81723808  7.81096314 11.45208132
  11.49293497 15.42546522  3.95083908
  11.54423590  0.09345004 11.66435358
  11.66278903  7.70297141  3.74378305
  11.67712359  7.68177236 11.45252945
   3.96102887  3.87983641  0.07822273
   3.89384090  3.95984927  7.79989091
   3.88514076 11.45245585 15.33445877
   3.88284575 11.66184588  7.60600452
  11.67190477  3.86534792  0.10641601
  11.45728737  3.74710202  7.65157562
  11.44365316 11.56710253 15.33562084
  11.44803488 11.60577507  7.62345813
   3.86242388  3.96345926  3.74535853
   3.75310458  3.88811427 11.48046229
   3.76851039 11.53672076  3.94843210
   3.82420945 11.44921995 11.67243864
  11.45178678  3.86710308  3.74204659
  11.45948414  3.73018405 11.56397753
  11.50614042 11.57589590  3.95852639
  11.68181292 11.57964614 11.67450837
   0.10331323  7.73362534  9.63451344
  15.34931633  0.09114122  5.80257984
  15.40734306  0.04345641 13.46323257
   7.73726600  7.50195217  5.78106185
   7.64569000  7.68964596 13.49931224
  15.40467078 11.50717134  1.94084666
   0.01814610 11.51317174  9.63018856
   7.72611426 11.64547244  9.64335544
  15.35219414  3.80545303  5.80044683
   3.91911490  0.03853260  1.93756868
   3.90387448  0.04255065  9.64693095
   3.75444653  7.56951088  9.65287826
  11.60918361  7.61363589  1.93687436
  11.52957700  7.63196318  9.62089568
  11.60869253 15.36941044  5.78788896
  11.52692032 15.37325504 13.47980326
   3.77959092  3.90359138  1.93489720
   3.91508940  3.93553093  9.62830082
  11.45152822  3.96425888  1.94071973
   3.92699865 11.49385723  5.78239129
   3.86547187 11.57910121 13.49872862
  11.59682607 11.62332451  5.76752533
  11.52654709 11.62796909 13.50372018
   1.92087417  7.75716285 15.38487504
   9.64725476  7.80800402  0.01380750
   1.93768629  0.04195200  3.90086232
   9.64201962  0.01179073  3.85673007
   9.70711589  3.93812929  7.55669363
   9.63637872 11.45902919  0.06885594
   9.63788730 11.71240167  7.66634164
   1.92073808  3.85295212 11.53339614
   1.94332865 11.59126014  3.87945224
   9.65688672  3.80415615  4.05129279
   9.63141226  3.86916182 11.48541194
   9.60878184 11.63480286  3.85920117
   5.79468803  0.00715332 15.32161799
   5.78284392  7.71454682  7.58849855
  13.46896600  0.04687055  0.01487216
  13.51215807  7.71519810  7.67814418
   5.79032180 15.34289762 11.67812716
   5.76630437  7.57763140  3.98371836
  13.50842058  7.70109241  3.92546575
  13.49795385  7.82241152 11.53123277
   5.78398657  3.81746181  0.04040138
  13.48265224  3.81113824  0.06958844
  13.49718412 11.47577926 11.57539200
   7.87910485  1.81951667  7.69513470
  15.34439586  1.94497014 11.45967591
   7.64603623  1.94621401  4.07769621
   7.70255647  1.88806097 11.52514879
   7.72372327  9.64424674 11.55101832
  15.40860959  5.78972830  0.06140227
   0.01534545 13.49625528  0.01668812
   0.05366074 13.49274460  7.68022211
   7.72931296  5.77486795  0.11471219
   7.76663160 13.50206181  0.05046175
   0.09195609  5.77286429  3.81955451
   3.93113327  9.64174042  0.05731818
  11.53544548  1.90190675  7.73800467
   3.83077943  9.62838004 11.52839305
  11.59946333  1.91687995 11.50914311
   3.98579825  5.77612571  7.45260715
   3.84041343 13.50750214  7.69925422
   3.76016644  5.77681418  4.04813321
   0.01959796  0.02987023  1.95577173
   0.10176782 15.38310155  9.61996611
  15.39480917  7.84704224  1.93273568
   7.62232206  0.11450090  1.96074991
   7.67670313 15.22977636  9.64719050
   7.67051448  7.86730434  1.97187274
   7.75399760  7.75195855  9.62063430
   0.10357054  7.65392262  5.80108806
  15.38354549  7.67682849 13.46519621
   7.75840330 15.25999461  5.80489616
   7.93115782  0.02947819 13.51140997
   0.12217653  3.79379606  1.95802884
  15.41771618  4.00235609  9.58396821
   7.82786335  3.66989986  1.95016393
   7.51284094  3.82111374  9.66187801
   7.63937896 11.49752069  1.96124248
  15.37438441  3.85334979 13.48262502
  15.34627854 11.57392570  5.78526891
   0.04087735 11.58070460 13.48209691
   7.51392741  4.22599567  5.71961571
   7.73972576  3.86984376 13.49200745
   7.61111339 11.59604745  5.79272868
   7.70987554 11.55276698 13.49178927
   3.84579172  7.57123069  1.92892153
  11.55531897  0.08307239  1.94614238
  11.50762728 15.37265135  9.62021943
   3.90660273  0.04147808  5.79714426
   3.75397955 15.35056908 13.49292764
   3.77141833  7.90967965  5.78145452
   3.97805211  7.71231967 13.47563761
  11.48561957  7.80906729  5.77849000
  11.57531725  7.77815081 13.47983781
   3.89821572 11.64096390  1.92985269
   3.83837070 11.59434279  9.64242722
  11.61166865  3.99421280  9.60473090
  11.62412153 11.50578449  1.93883385
  11.54765194 11.51049925  9.63182490
   3.88336007  3.72779446  5.76378563
   3.83570441  3.85788744 13.50139338
  11.83723052  3.76959030  5.74089866
  11.56468148  3.80579226 13.50430554
   1.94292472  0.01662580  0.02209085
   1.94001302  0.15502888  7.66017263
   1.92106812  7.72894320  7.63151170
   9.64200739  0.00986067  0.12006635
   9.65586887 15.13695733  7.73540912
   9.64086092  7.65235097  7.70102825
   1.95646289  0.04252346 11.55218779
   1.92209634  7.80804601  3.78950654
   1.90718238  7.62409391 11.73160797
   9.62063034 15.34847651 11.45956995
   9.63876387  7.69656847  3.82223072
   9.65741038  7.61513231 11.60984815
   1.92147081  3.87506760 15.35371749
   1.91430927  3.80025220  7.70579486
   1.93148360 11.50198745  0.02378118
   1.92580780 11.48316614  7.65240564
   9.64989945  3.86888424 15.35477107
   1.91627185  3.66781964  3.94279294
   1.90330275 11.60736976 11.57698167
   9.66361362 11.61809856 11.55388825
   5.81408477  0.06289401  7.67490965
   5.75458787  7.65198043  0.08657998
  13.51543531  0.01285938  7.87209186
  13.49103157  7.69541743 15.39085296
   5.81513907 15.38116389  3.94542539
   5.77464662  7.67662287 11.46377872
  13.48986091 15.41648098  3.78830695
  13.48989942 15.31376959 11.43857011
   5.81103780  3.79473773  7.58116328
   5.80584596 11.67007997  0.01011772
   5.80987265 11.46956361  7.75981471
  13.51329138  3.92901094  7.79434461
  13.45739439 11.62466968 15.39281183
  13.47323244 11.49481177  7.74922912
   5.81687836  3.99582555  3.79120843
   5.77388578  3.86445156 11.67674584
   5.81670817 11.53350214  3.82198054
   5.78015220 11.64853890 11.56265178
  13.49185788  3.93521239  3.72371723
  13.48233618  3.92965094 11.53723997
  13.48264483 11.49524298  3.84977182
   0.06897691  1.95824784  0.02368484
  15.36094598  1.94494031  7.85983578
  15.34059936  9.64542204 15.33719761
   0.01310268  9.65688072  7.59997693
   7.78501880  1.92369458 15.39271700
   7.55848923  9.67546145  0.00243069
   7.80050039  9.66294814  7.64945096
  15.30901940  1.96826228  3.79906110
   0.01840422  9.61270618  3.97603274
   0.15618882  9.63011134 11.64929787
   7.72873133  9.64112751  3.96792745
   0.09078586  5.77384309  7.66976897
   7.57624849  5.80006626  7.84134520
   7.51928953 13.49888824  7.63067647
  15.37316756  5.77661666 11.59328059
  15.35408240 13.50748368  3.87942008
   0.01405999 13.50736875 11.53902932
   7.78809237  5.75270259  3.59090672
   7.66459496  5.76894341 11.50987345
   7.64589103 13.51191226  3.79834391
   7.75930801 13.47916986 11.70453193
   3.77984134  1.92861379 15.34638751
   3.89124403  1.94433451  7.69840677
   3.84038644  9.64924629  7.82827596
  11.44696467  1.94466717  0.00260727
  11.72440278  9.64743851  0.01248009
  11.50702194  9.64684765  7.71457493
   4.00627494  1.95775658  3.87802431
   3.90283448  1.92970273 11.65046851
   3.89933064  9.60870371  3.69384007
  11.68960525  1.94118310  3.84422311
  11.49141377  9.64219291  3.83308781
  11.40883890  9.63306596 11.54969261
   3.84765686  5.80425044 15.35016080
   3.79174301 13.47617794  0.04351611
  11.55854879  5.78682873 15.25975049
  11.64583664  5.76374135  7.54214826
  11.51755387 13.49514275  0.15439674
  11.74698743 13.49901511  7.79657573
   3.88756734  5.80289035 11.70385285
   3.93116691 13.50185963  3.88814694
   3.77324111 13.46974173 11.51524933
  11.55038212  5.77975660  4.05545982
  11.61915949  5.76590210 11.67059654
  11.65120370 13.49507050  3.70543875
  11.58172475 13.49170873 11.45636043
 


--------------------------------------------------------------------------------------------------------


 k-point  1 :   0.2500 0.2500 0.2500  plane waves:   93161
 k-point  2 :  -0.2500 0.2500 0.2500  plane waves:   93161
 k-point  3 :   0.2500-0.2500 0.2500  plane waves:   93161
 k-point  4 :  -0.2500-0.2500 0.2500  plane waves:   93161

 maximum and minimum number of plane-waves per node :     11686    11606

 maximum number of plane-waves:     93161
 maximum index in each direction: 
   IXMAX=   28   IYMAX=   28   IZMAX=   27
   IXMIN=  -28   IYMIN=  -28   IZMIN=  -28


 real space projection operators:
  total allocation   :     105601.38 KBytes
  max/ min on nodes  :      13255.47      13153.53


 parallel 3D FFT for wavefunctions:
    minimum data exchange during FFTs selected (reduces bandwidth)
 parallel 3D FFT for charge:
    minimum data exchange during FFTs selected (reduces bandwidth)


 total amount of memory used by VASP MPI-rank0   291505. kBytes
=======================================================================

   base      :      30000. kBytes
   nonlr-proj:      49470. kBytes
   fftplans  :      27976. kBytes
   grid      :      34041. kBytes
   one-center:       1026. kBytes
   wavefun   :     148992. kBytes
 
     INWAV:  cpu time   59.8119: real time   62.8293
 Broyden mixing: mesh for mixing (old mesh)
   NGX = 57   NGY = 57   NGZ = 57
  (NGX  =240   NGY  =240   NGZ  =240)
  gives a total of 185193 points

 charge density for first step will be calculated from the start-wavefunctions


--------------------------------------------------------------------------------------------------------


 Maximum index for non-local projection operator          968
 Maximum index for augmentation-charges         3289 (set IRDMAX)


--------------------------------------------------------------------------------------------------------


 initial charge from wavefunction
 First call to EWALD:  gamma=   0.115
 Maximum number of real-space cells 3x 3x 3
 Maximum number of reciprocal cells 3x 3x 3

    FEWALD:  cpu time    0.0166: real time    0.0166


--------------------------------------- Iteration      1(   1)  ---------------------------------------


    POTLOK:  cpu time    0.3153: real time    0.3405
    SETDIJ:  cpu time    1.4249: real time    1.4260
     EDDAV:  cpu time  143.5079: real time  144.3005
       DOS:  cpu time    0.0021: real time    0.0021
    CHARGE:  cpu time    5.2148: real time    5.2186
    MIXING:  cpu time    0.0127: real time    0.0127
    --------------------------------------------
      LOOP:  cpu time  150.4779: real time  151.3007

 eigenvalue-minimisations  : 25944
 total energy-change (2. order) :-0.1757890E+04  (-0.9727902E-06)
 number of electron    1923.0000026 magnetization       1.0000000
 augmentation part      497.0218980 magnetization       0.5895277

 Broyden mixing:
  rms(total) = 0.63924E-03    rms(broyden)= 0.61824E-03
  rms(prec ) = 0.75689E-03
  weight for this iteration     100.00

 Free energy of the ion-electron system (eV)
  ---------------------------------------------------
  alpha Z        PSCENC =      6118.73324990
  Ewald energy   TEWEN  =   -103164.69268698
  -Hartree energ DENC   =    -65458.23349549
  -exchange      EXHF   =         0.00000000
  -V(xc)+E(xc)   XCENC  =      8971.52555368
  PAW double counting   =    198365.41675127  -199372.45728555
  entropy T*S    EENTRO =        -0.00000000
  eigenvalues    EBANDS =    -25795.43491869
  atomic energy  EATOM  =    178577.25249613
  Solvation  Ediel_sol  =         0.00000000
  ---------------------------------------------------
  free energy    TOTEN  =     -1757.89033572 eV

  energy without entropy =    -1757.89033572  energy(sigma->0) =    -1757.89033572


--------------------------------------------------------------------------------------------------------




--------------------------------------- Iteration      1(   2)  ---------------------------------------


    POTLOK:  cpu time    0.2620: real time    0.2622
    SETDIJ:  cpu time    1.3923: real time    1.4236
     EDDAV:  cpu time  129.5203: real time  130.6946
       DOS:  cpu time    0.0020: real time    0.0020
    --------------------------------------------
      LOOP:  cpu time  131.1765: real time  132.3824

 eigenvalue-minimisations  : 22440
 total energy-change (2. order) : 0.5883921E-06  (-0.7739673E-06)
 number of electron    1923.0000026 magnetization       1.0000000
 augmentation part      497.0218980 magnetization       0.5895277

 Free energy of the ion-electron system (eV)
  ---------------------------------------------------
  alpha Z        PSCENC =      6118.73324990
  Ewald energy   TEWEN  =   -103164.69268698
  -Hartree energ DENC   =    -65458.23070445
  -exchange      EXHF   =         0.00000000
  -V(xc)+E(xc)   XCENC  =      8971.52585160
  PAW double counting   =    198365.45422962  -199372.49581954
  entropy T*S    EENTRO =        -0.00000000
  eigenvalues    EBANDS =    -25795.43695141
  atomic energy  EATOM  =    178577.25249613
  Solvation  Ediel_sol  =         0.00000000
  ---------------------------------------------------
  free energy    TOTEN  =     -1757.89033513 eV

  energy without entropy =    -1757.89033513  energy(sigma->0) =    -1757.89033513


--------------------------------------------------------------------------------------------------------




 average (electrostatic) potential at core
  the test charge radii are     0.7079  1.0397  0.7215  0.7167
  (the norm of the test charge is              1.0000)
       1 -63.5216       2 -58.4173       3 -58.7973       4 -58.7970       5 -58.8624
       6 -58.7898       7 -58.8534       8 -58.4635       9 -58.9253      10 -58.8540
      11 -58.5887      12 -58.9348      13 -58.8504      14 -58.9914      15 -58.7950
      16 -58.9368      17 -58.6809      18 -58.8335      19 -59.4984      20 -58.5740
      21 -58.8459      22 -58.6453      23 -56.9087      24 -58.7939      25 -58.8227
      26 -59.1124      27 -58.7262      28 -58.6900      29 -58.8415      30 -58.9714
      31 -58.8498      32 -59.4354      33 -58.7634      34 -58.7818      35 -58.8394
      36 -58.7144      37 -58.5823      38 -58.6445      39 -58.9012      40 -58.7094
      41 -58.9258      42 -58.8103      43 -58.8229      44 -58.9045      45 -58.7647
      46 -59.0092      47 -58.7518      48 -58.8527      49 -58.8792      50 -58.7756
      51 -58.8292      52 -58.7235      53 -58.8133      54 -58.8699      55 -58.6900
      56 -58.8249      57 -58.9918      58 -58.8179      59 -58.8412      60 -58.7721
      61 -58.7850      62 -58.9457      63 -58.8234      64 -59.1122      65 -58.8573
      66 -74.1697      67 -73.9690      68 -73.7985      69 -74.0399      70 -73.8570
      71 -73.8519      72 -73.9901      73 -74.2059      74 -74.5644      75 -73.9384
      76 -73.9890      77 -74.0956      78 -73.9973      79 -74.0267      80 -74.1157
      81 -73.9452      82 -74.0025      83 -74.0135      84 -74.2611      85 -73.9461
      86 -73.9345      87 -74.1846      88 -74.0509      89 -73.8990      90 -73.8390
      91 -73.9929      92 -74.1420      93 -74.0121      94 -74.1268      95 -74.2435
      96 -73.9683      97 -73.9682      98 -74.3411      99 -73.9900     100 -74.3455
     101 -73.9109     102 -73.9743     103 -73.8018     104 -74.0698     105 -74.1384
     106 -74.0919     107 -74.0961     108 -74.1586     109 -73.9093     110 -74.0095
     111 -74.1639     112 -74.2561     113 -74.0517     114 -74.3517     115 -73.9982
     116 -73.9398     117 -73.9168     118 -73.7458     119 -74.2154     120 -73.8202
     121 -73.9439     122 -74.3206     123 -74.0413     124 -74.2222     125 -74.1017
     126 -74.1174     127 -73.9217     128 -74.0099     129 -74.1817     130 -78.3411
     131 -78.3387     132 -79.1629     133 -79.4875     134 -79.5419     135 -78.4515
     136 -78.4473     137 -79.0193     138 -78.9583     139 -79.5742     140 -79.3988
     141 -79.1291     142 -79.0827     143 -79.4129     144 -79.1127     145 -79.3825
     146 -79.1712     147 -78.3684     148 -78.3689     149 -79.2769     150 -79.3010
     151 -79.2211     152 -79.0630     153 -79.2086     154 -78.4559     155 -78.4732
     156 -78.4005     157 -78.3914     158 -78.9582     159 -78.9426     160 -78.4297
     161 -78.4321     162 -78.4038     163 -78.3558     164 -79.1847     165 -78.5092
     166 -78.5409     167 -78.4204     168 -78.4523     169 -79.0458     170 -78.9897
     171 -78.3005     172 -79.4587     173 -78.6175     174 -78.2533     175 -79.5672
     176 -78.5299     177 -78.9016     178 -78.5682     179 -78.9637     180 -78.9322
     181 -78.5588     182 -78.9263     183 -78.3742     184 -79.5334     185 -79.0385
     186 -79.1834     187 -78.3783     188 -79.3313     189 -78.9939     190 -78.9898
     191 -79.5234     192 -78.3330     193 -79.4808     194 -78.2581     195 -78.5051
     196 -79.1103     197 -78.4742     198 -79.0623     199 -79.1515     200 -78.9334
     201 -79.0443     202 -79.3275     203 -78.8676     204 -79.0235     205 -79.0803
     206 -78.3970     207 -78.5489     208 -79.1783     209 -79.2065     210 -78.4382
     211 -78.6224     212 -78.2949     213 -79.2896     214 -78.2718     215 -79.1254
     216 -78.3087     217 -78.3424     218 -79.4155     219 -79.0087     220 -79.0129
     221 -79.1910     222 -79.4032     223 -79.4499     224 -79.0609     225 -79.1133
     226 -79.0051     227 -79.1200     228 -78.9641     229 -79.1164     230 -78.4212
     231 -79.2545     232 -78.4151     233 -79.0553     234 -78.4554     235 -78.5275
     236 -79.3407     237 -79.3506     238 -79.2864     239 -79.0076     240 -79.1083
     241 -78.9740     242 -79.5343     243 -79.5445     244 -79.2087     245 -78.8684
     246 -78.8750     247 -79.3668     248 -79.0770     249 -79.3342     250 -79.0922
     251 -78.9402     252 -79.1204     253 -78.9391     254 -79.5446     255 -79.0001
     256 -79.5481     257 -79.0081
 
 
 
 E-fermi :  -0.7535     XC(G=0):  -9.0390     alpha+bet : -7.7421


 spin component 1

 k-point     1 :       0.2500    0.2500    0.2500
  band No.  band energies     occupation 
      1     -44.1851      1.00000
      2     -35.4952      1.00000
      3     -35.4741      1.00000
      4     -35.4169      1.00000
      5     -35.4061      1.00000
      6     -35.3306      1.00000
      7     -35.2104      1.00000
      8     -35.1642      1.00000
      9     -35.1197      1.00000
     10     -35.0596      1.00000
     11     -35.0535      1.00000
     12     -35.0317      1.00000
     13     -35.0250      1.00000
     14     -35.0222      1.00000
     15     -35.0178      1.00000
     16     -34.9982      1.00000
     17     -34.9828      1.00000
     18     -34.9755      1.00000
     19     -34.9688      1.00000
     20     -34.9587      1.00000
     21     -34.9571      1.00000
     22     -34.9449      1.00000
     23     -34.9368      1.00000
     24     -34.9357      1.00000
     25     -34.9346      1.00000
     26     -34.9241      1.00000
     27     -34.9220      1.00000
     28     -34.9162      1.00000
     29     -34.9146      1.00000
     30     -34.9068      1.00000
     31     -34.9029      1.00000
     32     -34.9029      1.00000
     33     -34.8997      1.00000
     34     -34.8997      1.00000
     35     -34.8956      1.00000
     36     -34.8933      1.00000
     37     -34.8809      1.00000
     38     -34.8733      1.00000
     39     -34.8713      1.00000
     40     -34.8690      1.00000
     41     -34.8683      1.00000
     42     -34.8641      1.00000
     43     -34.8638      1.00000
     44     -34.8607      1.00000
     45     -34.8575      1.00000
     46     -34.8558      1.00000
     47     -34.8523      1.00000
     48     -34.8476      1.00000
     49     -34.8442      1.00000
     50     -34.8426      1.00000
     51     -34.8410      1.00000
     52     -34.8397      1.00000
     53     -34.8369      1.00000
     54     -34.8368      1.00000
     55     -34.8331      1.00000
     56     -34.8313      1.00000
     57     -34.8262      1.00000
     58     -34.8257      1.00000
     59     -34.8186      1.00000
     60     -34.8158      1.00000
     61     -34.8150      1.00000
     62     -34.8138      1.00000
     63     -34.8126      1.00000
     64     -34.8111      1.00000
     65     -34.8100      1.00000
     66     -34.8063      1.00000
     67     -34.8054      1.00000
     68     -34.8033      1.00000
     69     -34.8012      1.00000
     70     -34.7997      1.00000
     71     -34.7983      1.00000
     72     -34.7905      1.00000
     73     -34.7900      1.00000
     74     -34.7821      1.00000
     75     -34.7798      1.00000
     76     -34.7760      1.00000
     77     -34.7726      1.00000
     78     -34.7688      1.00000
     79     -34.7658      1.00000
     80     -34.7650      1.00000
     81     -34.7625      1.00000
     82     -34.7608      1.00000
     83     -34.7576      1.00000
     84     -34.7571      1.00000
     85     -34.7555      1.00000
     86     -34.7531      1.00000
     87     -34.7511      1.00000
     88     -34.7489      1.00000
     89     -34.7457      1.00000
     90     -34.7396      1.00000
     91     -34.7382      1.00000
     92     -34.7379      1.00000
     93     -34.7329      1.00000
     94     -34.7329      1.00000
     95     -34.7267      1.00000
     96     -34.7257      1.00000
     97     -34.7255      1.00000
     98     -34.7235      1.00000
     99     -34.7213      1.00000
    100     -34.7174      1.00000
    101     -34.7160      1.00000
    102     -34.7157      1.00000
    103     -34.7152      1.00000
    104     -34.7127      1.00000
    105     -34.7124      1.00000
    106     -34.7109      1.00000
    107     -34.7106      1.00000
    108     -34.7096      1.00000
    109     -34.7067      1.00000
    110     -34.7030      1.00000
    111     -34.7008      1.00000
    112     -34.7006      1.00000
    113     -34.6999      1.00000
    114     -34.6990      1.00000
    115     -34.6943      1.00000
    116     -34.6942      1.00000
    117     -34.6914      1.00000
    118     -34.6901      1.00000
    119     -34.6871      1.00000
    120     -34.6849      1.00000
    121     -34.6836      1.00000
    122     -34.6797      1.00000
    123     -34.6786      1.00000
    124     -34.6782      1.00000
    125     -34.6771      1.00000
    126     -34.6754      1.00000
    127     -34.6747      1.00000
    128     -34.6685      1.00000
    129     -34.6661      1.00000
    130     -34.6647      1.00000
    131     -34.6635      1.00000
    132     -34.6625      1.00000
    133     -34.6548      1.00000
    134     -34.6539      1.00000
    135     -34.6533      1.00000
    136     -34.6509      1.00000
    137     -34.6463      1.00000
    138     -34.6455      1.00000
    139     -34.6447      1.00000
    140     -34.6437      1.00000
    141     -34.6429      1.00000
    142     -34.6398      1.00000
    143     -34.6394      1.00000
    144     -34.6386      1.00000
    145     -34.6369      1.00000
    146     -34.6362      1.00000
    147     -34.6349      1.00000
    148     -34.6335      1.00000
    149     -34.6305      1.00000
    150     -34.6247      1.00000
    151     -34.6228      1.00000
    152     -34.6191      1.00000
    153     -34.6125      1.00000
    154     -34.6109      1.00000
    155     -34.6061      1.00000
    156     -34.6050      1.00000
    157     -34.6032      1.00000
    158     -34.6021      1.00000
    159     -34.6017      1.00000
    160     -34.5990      1.00000
    161     -34.5940      1.00000
    162     -34.5831      1.00000
    163     -34.5820      1.00000
    164     -34.5775      1.00000
    165     -34.5768      1.00000
    166     -34.5750      1.00000
    167     -34.5642      1.00000
    168     -34.5590      1.00000
[...]
   81        1.574   3.460   0.000   5.034
   82        1.575   3.463   0.000   5.037
   83        1.574   3.459   0.000   5.033
   84        1.576   3.471   0.000   5.047
   85        1.575   3.462   0.000   5.037
   86        1.575   3.465   0.000   5.040
   87        1.575   3.462   0.000   5.038
   88        1.575   3.465   0.000   5.040
   89        1.575   3.462   0.000   5.037
   90        1.575   3.458   0.000   5.033
   91        1.574   3.460   0.000   5.034
   92        1.574   3.461   0.000   5.035
   93        1.577   3.482   0.000   5.059
   94        1.577   3.473   0.000   5.050
   95        1.576   3.475   0.000   5.051
   96        1.575   3.463   0.000   5.038
   97        1.575   3.465   0.000   5.040
   98        1.576   3.474   0.000   5.051
   99        1.574   3.463   0.000   5.037
  100        1.576   3.458   0.000   5.033
  101        1.574   3.458   0.000   5.033
  102        1.569   3.478   0.000   5.047
  103        1.576   3.460   0.000   5.036
  104        1.574   3.465   0.000   5.040
  105        1.577   3.472   0.000   5.049
  106        1.572   3.465   0.000   5.036
  107        1.575   3.464   0.000   5.039
  108        1.576   3.473   0.000   5.049
  109        1.575   3.462   0.000   5.037
  110        1.575   3.460   0.000   5.035
  111        1.576   3.473   0.000   5.049
  112        1.580   3.457   0.000   5.036
  113        1.577   3.473   0.000   5.049
  114        1.576   3.473   0.000   5.050
  115        1.574   3.464   0.000   5.039
  116        1.575   3.463   0.000   5.038
  117        1.575   3.461   0.000   5.036
  118        1.575   3.462   0.000   5.038
  119        1.576   3.476   0.000   5.052
  120        1.575   3.459   0.000   5.035
  121        1.574   3.463   0.000   5.037
  122        1.576   3.469   0.000   5.046
  123        1.577   3.474   0.000   5.050
  124        1.575   3.473   0.000   5.049
  125        1.576   3.474   0.000   5.050
  126        1.576   3.471   0.000   5.046
  127        1.567   3.473   0.000   5.040
  128        1.574   3.462   0.000   5.036
  129        1.575   3.470   0.000   5.045
  130        1.737   4.369   0.000   6.106
  131        1.737   4.370   0.000   6.106
  132        1.737   4.379   0.000   6.117
  133        1.738   4.386   0.000   6.124
  134        1.738   4.385   0.000   6.123
  135        1.737   4.370   0.000   6.107
  136        1.737   4.368   0.000   6.104
  137        1.738   4.380   0.000   6.118
  138        1.738   4.381   0.000   6.119
  139        1.739   4.390   0.000   6.129
  140        1.739   4.386   0.000   6.125
  141        1.738   4.381   0.000   6.119
  142        1.738   4.380   0.000   6.118
  143        1.738   4.385   0.000   6.123
  144        1.738   4.388   0.000   6.126
  145        1.738   4.382   0.000   6.120
  146        1.737   4.381   0.000   6.118
  147        1.737   4.369   0.000   6.106
  148        1.736   4.368   0.000   6.105
  149        1.739   4.382   0.000   6.121
  150        1.738   4.386   0.000   6.125
  151        1.738   4.376   0.000   6.115
  152        1.738   4.380   0.000   6.118
  153        1.738   4.383   0.000   6.120
  154        1.737   4.371   0.000   6.108
  155        1.737   4.373   0.000   6.110
  156        1.737   4.369   0.000   6.106
  157        1.737   4.368   0.000   6.105
  158        1.739   4.374   0.000   6.113
  159        1.738   4.379   0.000   6.117
  160        1.737   4.369   0.000   6.105
  161        1.736   4.369   0.000   6.106
  162        1.737   4.370   0.000   6.106
  163        1.736   4.368   0.000   6.104
  164        1.737   4.379   0.000   6.116
  165        1.737   4.369   0.000   6.106
  166        1.736   4.369   0.000   6.106
  167        1.737   4.369   0.000   6.107
  168        1.737   4.372   0.000   6.109
  169        1.738   4.378   0.000   6.116
  170        1.737   4.378   0.000   6.115
  171        1.737   4.370   0.000   6.107
  172        1.738   4.386   0.000   6.125
  173        1.738   4.375   0.000   6.112
  174        1.737   4.369   0.000   6.106
  175        1.738   4.384   0.000   6.122
  176        1.737   4.370   0.000   6.107
  177        1.738   4.380   0.000   6.117
  178        1.737   4.371   0.000   6.108
  179        1.738   4.376   0.000   6.114
  180        1.738   4.379   0.000   6.117
  181        1.737   4.371   0.000   6.107
  182        1.738   4.378   0.000   6.116
  183        1.737   4.369   0.000   6.106
  184        1.737   4.382   0.000   6.119
  185        1.737   4.382   0.000   6.120
  186        1.738   4.382   0.000   6.120
  187        1.737   4.371   0.000   6.108
  188        1.738   4.381   0.000   6.119
  189        1.738   4.382   0.000   6.120
  190        1.738   4.381   0.000   6.119
  191        1.738   4.390   0.000   6.128
  192        1.737   4.372   0.000   6.109
  193        1.739   4.388   0.000   6.127
  194        1.737   4.369   0.000   6.105
  195        1.737   4.371   0.000   6.107
  196        1.738   4.383   0.000   6.120
  197        1.737   4.370   0.000   6.107
  198        1.737   4.380   0.000   6.117
  199        1.738   4.389   0.000   6.127
  200        1.738   4.381   0.000   6.119
  201        1.738   4.381   0.000   6.119
  202        1.740   4.379   0.000   6.118
  203        1.738   4.381   0.000   6.119
  204        1.738   4.378   0.000   6.116
  205        1.737   4.377   0.000   6.115
  206        1.737   4.369   0.000   6.106
  207        1.737   4.370   0.000   6.107
  208        1.737   4.381   0.000   6.118
  209        1.738   4.379   0.000   6.117
  210        1.736   4.369   0.000   6.105
  211        1.737   4.371   0.000   6.108
  212        1.737   4.369   0.000   6.106
  213        1.739   4.373   0.000   6.112
  214        1.736   4.367   0.000   6.103
  215        1.739   4.381   0.000   6.119
  216        1.737   4.368   0.000   6.105
  217        1.737   4.368   0.000   6.105
  218        1.737   4.384   0.000   6.121
  219        1.738   4.379   0.000   6.117
  220        1.738   4.381   0.000   6.119
  221        1.738   4.381   0.000   6.119
  222        1.737   4.380   0.000   6.117
  223        1.738   4.382   0.000   6.120
  224        1.738   4.386   0.000   6.125
  225        1.739   4.383   0.000   6.123
  226        1.738   4.378   0.000   6.117
  227        1.737   4.379   0.000   6.116
  228        1.738   4.378   0.000   6.115
  229        1.738   4.378   0.000   6.116
  230        1.736   4.369   0.000   6.105
  231        1.738   4.375   0.000   6.113
  232        1.737   4.370   0.000   6.107
  233        1.738   4.381   0.000   6.118
  234        1.737   4.370   0.000   6.107
  235        1.737   4.372   0.000   6.109
  236        1.739   4.387   0.000   6.126
  237        1.739   4.387   0.000   6.126
  238        1.737   4.381   0.000   6.119
  239        1.738   4.379   0.000   6.117
  240        1.737   4.380   0.000   6.117
  241        1.738   4.377   0.000   6.115
  242        1.738   4.387   0.000   6.126
  243        1.738   4.388   0.000   6.126
  244        1.738   4.380   0.000   6.118
  245        1.738   4.379   0.000   6.117
  246        1.738   4.378   0.000   6.116
  247        1.738   4.386   0.000   6.125
  248        1.738   4.380   0.000   6.119
  249        1.738   4.386   0.000   6.124
  250        1.739   4.379   0.000   6.117
  251        1.738   4.380   0.000   6.118
  252        1.737   4.380   0.000   6.118
  253        1.738   4.380   0.000   6.118
  254        1.739   4.387   0.000   6.126
  255        1.738   4.377   0.000   6.115
  256        1.739   4.385   0.000   6.124
  257        1.738   4.379   0.000   6.117
--------------------------------------------------
tot        345.5731195.595 112.6391653.808
 


 magnetization (x)
 
# of ion       s       p       d       tot
------------------------------------------
    1        0.000   0.000   0.000   0.000
    2       -0.000   0.000  -0.000  -0.000
    3       -0.000  -0.000   0.000   0.000
    4       -0.000   0.000  -0.000  -0.000
    5       -0.000  -0.000   0.000   0.000
    6        0.000   0.000   0.000   0.000
    7        0.000   0.002   0.112   0.115
    8        0.000   0.000   0.000   0.000
    9       -0.000  -0.000   0.005   0.005
   10       -0.000  -0.000   0.000   0.000
   11       -0.000  -0.000  -0.000  -0.000
   12       -0.000   0.000   0.000   0.000
   13       -0.000  -0.000   0.000   0.000
   14        0.000   0.000   0.002   0.002
   15        0.000   0.000   0.004   0.004
   16        0.000   0.000   0.002   0.002
   17        0.000   0.000   0.000   0.000
   18        0.000   0.000   0.000   0.000
   19       -0.000  -0.000   0.000  -0.000
   20       -0.000  -0.000  -0.000  -0.000
   21        0.000   0.000   0.000   0.000
   22        0.000   0.000   0.000   0.000
   23        0.005   0.007   0.865   0.877
   24        0.000   0.000   0.000   0.000
   25       -0.000  -0.000   0.000   0.000
   26        0.000   0.000   0.000   0.000
   27        0.000   0.000   0.000   0.000
   28       -0.000  -0.000   0.000  -0.000
   29       -0.000   0.000  -0.000  -0.000
   30        0.000   0.000   0.007   0.008
   31       -0.000   0.000   0.008   0.008
   32        0.000   0.000   0.000   0.000
   33        0.000   0.000   0.000   0.000
   34       -0.000  -0.000   0.000   0.000
   35       -0.000  -0.000   0.000   0.000
   36       -0.000  -0.000   0.000   0.000
   37       -0.000   0.000   0.000   0.000
   38        0.000   0.000   0.000   0.000
   39       -0.000  -0.000   0.000   0.000
   40       -0.000  -0.000   0.000   0.000
   41       -0.000   0.000   0.000   0.000
   42       -0.000  -0.000   0.000   0.000
   43       -0.000  -0.000  -0.000  -0.000
   44       -0.000  -0.000  -0.000  -0.000
   45       -0.000  -0.000  -0.000  -0.000
   46       -0.000  -0.000  -0.000  -0.000
   47       -0.000  -0.000  -0.000  -0.000
   48       -0.000  -0.000   0.000   0.000
   49       -0.000  -0.000   0.000   0.000
   50        0.000   0.000   0.000   0.000
   51       -0.000  -0.000   0.001   0.000
   52        0.000   0.000   0.000   0.000
   53        0.000   0.000   0.000   0.000
   54       -0.000  -0.000   0.000   0.000
   55       -0.000  -0.000   0.001   0.000
   56       -0.000   0.000  -0.000  -0.000
   57       -0.000  -0.000   0.000   0.000
   58       -0.000  -0.000   0.000   0.000
   59        0.000   0.000   0.000   0.000
   60       -0.000  -0.000  -0.000  -0.000
   61       -0.000   0.000   0.000   0.000
   62       -0.000   0.000   0.000   0.000
   63       -0.000  -0.000   0.000   0.000
   64       -0.000  -0.000  -0.000  -0.000
   65       -0.000  -0.000   0.000   0.000
   66        0.000  -0.000   0.000  -0.000
   67        0.000  -0.000   0.000  -0.000
   68       -0.000  -0.000   0.000  -0.000
   69        0.000  -0.000   0.000  -0.000
   70        0.000  -0.000   0.000  -0.000
   71       -0.000  -0.000   0.000  -0.000
   72        0.000  -0.000   0.000  -0.000
   73       -0.000  -0.000   0.000  -0.000
   74       -0.000  -0.000   0.000  -0.000
   75       -0.000  -0.000   0.000  -0.000
   76       -0.000  -0.000   0.000  -0.000
   77       -0.000  -0.000   0.000  -0.000
   78        0.000  -0.000   0.000  -0.000
   79       -0.000  -0.000   0.000  -0.000
   80       -0.000  -0.000   0.000  -0.000
   81       -0.000  -0.000   0.000  -0.000
   82       -0.000  -0.000   0.000  -0.000
   83       -0.000  -0.000   0.000  -0.000
   84       -0.000  -0.000   0.000  -0.000
   85       -0.000  -0.000   0.000  -0.000
   86       -0.000  -0.000   0.000  -0.000
   87        0.000  -0.000   0.000  -0.000
   88        0.000  -0.000   0.000  -0.000
   89        0.000  -0.000   0.000  -0.000
   90       -0.000  -0.000   0.000  -0.000
   91       -0.000  -0.000   0.000  -0.000
   92       -0.000  -0.000   0.000  -0.000
   93       -0.001  -0.017   0.000  -0.018
   94        0.000  -0.000   0.000  -0.000
   95       -0.000  -0.000   0.000  -0.000
   96       -0.000  -0.000   0.000  -0.000
   97        0.000  -0.000   0.000  -0.000
   98       -0.000  -0.000   0.000  -0.000
   99       -0.000  -0.000   0.000  -0.000
  100       -0.000  -0.000   0.000  -0.000
  101       -0.000  -0.000   0.000  -0.000
  102       -0.000  -0.000   0.000  -0.000
  103       -0.000  -0.000   0.000  -0.000
  104       -0.000  -0.000   0.000  -0.000
  105       -0.000  -0.000   0.000  -0.000
  106       -0.000  -0.000   0.000  -0.000
  107       -0.000  -0.000   0.000  -0.000
  108       -0.000  -0.000   0.000  -0.000
  109       -0.000  -0.000   0.000  -0.000
  110       -0.000  -0.000   0.000  -0.000
  111        0.000  -0.000   0.000  -0.000
  112       -0.002  -0.051   0.000  -0.053
  113       -0.000  -0.000   0.000  -0.000
  114       -0.000  -0.001   0.000  -0.001
  115       -0.000  -0.001   0.000  -0.001
  116        0.000  -0.000   0.000  -0.000
  117       -0.000  -0.000   0.000  -0.000
  118       -0.000   0.000   0.000   0.000
  119       -0.000  -0.000   0.000  -0.000
  120       -0.000  -0.000   0.000  -0.000
  121       -0.000  -0.000   0.000  -0.000
  122       -0.000  -0.000   0.000  -0.000
  123        0.000  -0.000   0.000  -0.000
  124       -0.000  -0.000   0.000  -0.000
  125       -0.000  -0.000   0.000  -0.000
  126       -0.000  -0.000   0.000  -0.000
  127       -0.000  -0.000   0.000  -0.000
  128       -0.000  -0.000   0.000  -0.000
  129       -0.000  -0.000   0.000  -0.000
  130       -0.000  -0.000   0.000  -0.000
  131       -0.000  -0.000   0.000  -0.000
  132        0.000   0.000   0.000   0.000
  133        0.000  -0.000   0.000  -0.000
  134       -0.000  -0.000   0.000  -0.001
  135       -0.000  -0.000   0.000  -0.000
  136        0.000   0.000   0.000   0.000
  137       -0.000  -0.000   0.000  -0.000
  138       -0.000  -0.000   0.000  -0.000
  139       -0.000  -0.000   0.000  -0.000
  140       -0.000  -0.000   0.000  -0.000
  141       -0.000  -0.000   0.000  -0.000
  142        0.000  -0.000   0.000  -0.000
  143        0.000  -0.000   0.000  -0.000
  144       -0.000   0.001   0.000   0.001
  145       -0.000   0.000   0.000   0.000
  146       -0.000  -0.000   0.000  -0.000
  147       -0.000  -0.000   0.000  -0.000
  148       -0.000   0.000   0.000   0.000
  149       -0.000   0.000   0.000  -0.000
  150       -0.000  -0.000   0.000  -0.000
  151        0.000  -0.000   0.000  -0.000
  152        0.000  -0.000   0.000  -0.000
  153       -0.000  -0.000   0.000  -0.000
  154       -0.000  -0.000   0.000  -0.000
  155       -0.000  -0.000   0.000  -0.000
  156       -0.000  -0.000   0.000  -0.000
  157       -0.000  -0.000   0.000  -0.000
  158       -0.000  -0.000   0.000  -0.000
  159       -0.000  -0.000   0.000  -0.000
  160       -0.000  -0.000   0.000  -0.000
  161       -0.000  -0.000   0.000  -0.000
  162        0.000  -0.000   0.000  -0.000
  163       -0.000  -0.000   0.000  -0.000
  164       -0.000  -0.000   0.000  -0.000
  165       -0.000  -0.000   0.000  -0.000
  166       -0.000  -0.000   0.000  -0.000
  167       -0.000  -0.000   0.000  -0.000
  168       -0.000  -0.000   0.000  -0.000
  169       -0.000  -0.000   0.000  -0.000
  170       -0.000  -0.000   0.000  -0.000
  171       -0.000  -0.000   0.000  -0.000
  172       -0.000  -0.000   0.000  -0.000
  173       -0.000  -0.000   0.000  -0.000
  174       -0.000  -0.000   0.000  -0.000
  175       -0.000  -0.001   0.000  -0.001
  176       -0.000  -0.000   0.000  -0.000
  177       -0.000  -0.000   0.000  -0.000
  178       -0.000  -0.000   0.000  -0.000
  179       -0.000  -0.000   0.000  -0.000
  180       -0.000  -0.000   0.000  -0.000
  181       -0.000  -0.000   0.000  -0.000
  182       -0.000  -0.000   0.000  -0.000
  183       -0.000  -0.000   0.000  -0.000
  184       -0.000  -0.000   0.000  -0.000
  185       -0.000  -0.000   0.000  -0.000
  186       -0.000  -0.000   0.000  -0.000
  187       -0.000  -0.000   0.000  -0.000
  188        0.000  -0.000   0.000  -0.000
  189       -0.000  -0.000   0.000  -0.000
  190       -0.000  -0.000   0.000  -0.000
  191       -0.000  -0.001   0.000  -0.001
  192       -0.000  -0.000   0.000  -0.000
  193       -0.000  -0.000   0.000  -0.000
  194       -0.000   0.000   0.000   0.000
  195       -0.000  -0.000   0.000  -0.000
  196       -0.000  -0.000   0.000  -0.000
  197       -0.000  -0.000   0.000  -0.000
  198       -0.000  -0.000   0.000  -0.000
  199       -0.000  -0.004   0.000  -0.004
  200       -0.000  -0.000   0.000  -0.000
  201       -0.000  -0.000   0.000  -0.000
  202       -0.000  -0.000   0.000  -0.000
  203       -0.000  -0.000   0.000  -0.000
  204       -0.000  -0.000   0.000  -0.000
  205       -0.000  -0.000   0.000  -0.000
  206       -0.000  -0.000   0.000  -0.000
  207       -0.000  -0.000   0.000  -0.000
  208       -0.000  -0.000   0.000  -0.000
  209        0.000  -0.000   0.000  -0.000
  210        0.000  -0.000   0.000  -0.000
  211       -0.000  -0.000   0.000  -0.000
  212        0.000  -0.000   0.000  -0.000
  213        0.000  -0.000   0.000  -0.000
  214       -0.000   0.000   0.000   0.000
  215       -0.000  -0.000   0.000  -0.000
  216       -0.000  -0.000   0.000  -0.000
  217        0.000   0.000   0.000   0.000
  218        0.000  -0.000   0.000  -0.000
  219        0.000  -0.000   0.000  -0.000
  220        0.000  -0.000   0.000  -0.000
  221        0.000  -0.000   0.000  -0.000
  222       -0.000  -0.000   0.000  -0.000
  223        0.000  -0.000   0.000  -0.000
  224       -0.000   0.000   0.000   0.000
  225       -0.000  -0.000   0.000  -0.001
  226       -0.000  -0.000   0.000  -0.000
  227       -0.000  -0.000   0.000  -0.000
  228       -0.000  -0.000   0.000  -0.000
  229        0.000  -0.000   0.000  -0.000
  230        0.000   0.000   0.000   0.000
  231        0.000  -0.000   0.000  -0.000
  232        0.000  -0.000   0.000  -0.000
  233       -0.000  -0.000   0.000  -0.000
  234       -0.000  -0.000   0.000  -0.000
  235       -0.000  -0.000   0.000  -0.000
  236        0.000  -0.000   0.000  -0.000
  237       -0.000  -0.000   0.000  -0.000
  238       -0.000  -0.000   0.000  -0.000
  239       -0.000  -0.000   0.000  -0.000
  240       -0.000  -0.000   0.000  -0.000
  241       -0.000  -0.000   0.000  -0.000
  242        0.000  -0.000   0.000  -0.000
  243       -0.000  -0.000   0.000  -0.000
  244       -0.000  -0.000   0.000  -0.000
  245       -0.000  -0.000   0.000  -0.000
  246       -0.000  -0.000   0.000  -0.000
  247        0.000  -0.000   0.000  -0.000
  248       -0.000  -0.000   0.000  -0.000
  249       -0.000   0.000   0.000   0.000
  250        0.000  -0.000   0.000  -0.000
  251       -0.000  -0.000   0.000  -0.000
  252        0.000  -0.000   0.000  -0.000
  253       -0.000  -0.000   0.000  -0.000
  254       -0.000  -0.000   0.000  -0.000
  255       -0.000  -0.000   0.000  -0.000
  256       -0.000  -0.000   0.000  -0.000
  257        0.000  -0.000   0.000  -0.000
--------------------------------------------------
tot          0.002  -0.072   1.009   0.938
 

 total amount of memory used by VASP MPI-rank0   291505. kBytes
=======================================================================

   base      :      30000. kBytes
   nonlr-proj:      49470. kBytes
   fftplans  :      27976. kBytes
   grid      :      34041. kBytes
   one-center:       1026. kBytes
   wavefun   :     148992. kBytes
 
  
  
 General timing and accounting informations for this job:
 ========================================================
  
                  Total CPU time used (sec):      913.977
                            User time (sec):      578.688
                          System time (sec):      335.290
                         Elapsed time (sec):      943.843
  
                   Maximum memory used (kb):      622572.
                   Average memory used (kb):           0.
  
                          Minor page faults:        89445
                          Major page faults:           10
                 Voluntary context switches:        16735
