LTO                                     
           1
     7.759938    0.000000   -0.000000
    -0.000000    7.658911    0.004802
    -0.000000    0.004719    7.756862
   Ti   O    F 
   8   8  16
Direct configuration=     1
   0.00037229  0.98741232  0.98650555
   0.00037228  0.01258762  0.51349434
   0.98723530  0.51269664  0.00043939
   0.98723529  0.48730327  0.49956060
   0.49962778  0.01258761  0.01349442
   0.49962777  0.98741243  0.48650566
   0.51276473  0.48730331  0.99956062
   0.51276472  0.51269675  0.50043943
   0.75000002  0.49999995  0.00000001
   0.75000001  0.50000009  0.50000000
   0.00120418  0.25000148  0.49815940
   0.00120427  0.74999850  0.00184042
   0.49879583  0.25000147  0.99815958
   0.49879571  0.74999853  0.50184061
   0.99948355  0.00000005  0.74999997
   0.50051650  0.99999999  0.25000002
   0.25000001  0.00000004  0.99999994
   0.25000001  0.00000010  0.50000004
   0.24999998  0.49999984  1.00000000
   0.24999999  0.50000006  0.50000001
   0.75000005  0.99999987  0.00000002
   0.75000004  0.00000004  0.49999998
   0.00396387  0.24988275  0.00452923
   0.00396393  0.75011719  0.49547062
   0.49603603  0.24988284  0.50452934
   0.49603597  0.75011719  0.99547077
   0.99940689  0.00000004  0.24999997
   0.00841253  0.49999995  0.24999998
   0.00814682  0.49999997  0.74999999
   0.50059322  0.00000004  0.75000002
   0.49185305  0.50000005  0.25000003
   0.49158737  0.49999999  0.75000002
