LTO                                     
           1
     7.868819   -0.000000    0.000000
     0.000000    7.649116   -0.000000
     0.000000   -0.000000    7.655142
   Ti   O    F 
   8   8  16
Direct configuration=     1
   1.00000000  0.98871082  0.98806512
   0.00000000  0.98809387  0.51186241
   1.00000000  0.51128905  0.98806507
   0.00000000  0.51190621  0.51186236
   0.50000000  0.98794703  0.01183784
   0.50000000  0.01256617  0.48824709
   0.50000000  0.51205266  0.01183763
   0.50000000  0.48743391  0.48824685
   1.00000000  0.74999990  0.00676991
   0.00000000  0.74999997  0.49319679
   0.50000000  0.25000034  0.50530284
   0.50000000  0.75000046  0.99444851
   1.00000000  0.00625560  0.75000860
   1.00000000  0.49374432  0.75000852
   0.50000000  0.99956637  0.25000731
   0.50000000  0.50043381  0.25000804
   0.25000797  0.00662664  0.99988713
   0.25002481  0.99943623  0.50012992
   0.25000788  0.49337292  0.99988704
   0.25002489  0.50056396  0.50012987
   0.74999203  0.00662663  0.99988713
   0.74997519  0.99943624  0.50012992
   0.74999212  0.49337293  0.99988704
   0.74997511  0.50056396  0.50012987
   0.99999999  0.24999993  0.00911313
   0.00000001  0.25000003  0.49110749
   0.50000001  0.24999986  0.98996899
   0.50000000  0.75000005  0.50996992
   0.00000000  0.00864746  0.25009113
   0.00000000  0.49135249  0.25009113
   0.50000000  0.99966783  0.74990784
   0.50000000  0.50033235  0.74990756
