 vasp.5.4.4.18Apr17-6-g9f103f2a35 (build Jul 16 2019 12:12:28) complex          
  
 executed on             LinuxIFC date 2020.02.03  20:47:43
 running on   96 total cores
 distrk:  each k-point on   96 cores,    1 groups
 distr:  one band on NCORES_PER_BAND=   8 cores,   12 groups


--------------------------------------------------------------------------------------------------------


 INCAR:
 POTCAR:    PAW_PBE Li_sv 10Sep2004               
 POTCAR:    PAW_PBE Ti_pv 07Sep2000               
 POTCAR:    PAW_PBE O 08Apr2002                   
 POTCAR:    PAW_PBE F 08Apr2002                   
 POTCAR:    PAW_PBE Li_sv 10Sep2004               
   VRHFIN =Li: 1s2s2p                                                           
   LEXCH  = PE                                                                  
   EATOM  =   202.7858 eV,   14.9043 Ry                                         
                                                                                
   TITEL  = PAW_PBE Li_sv 10Sep2004                                             
   LULTRA =        F    use ultrasoft PP ?                                      
   IUNSCR =        0    unscreen: 0-lin 1-nonlin 2-no                           
   RPACOR =    0.000    partial core radius                                     
   POMASS =    7.010; ZVAL   =    3.000    mass and valenz                      
   RCORE  =    1.700    outmost cutoff radius                                   
   RWIGS  =    2.050; RWIGS  =    1.085    wigner-seitz radius (au A)           
   ENMAX  =  499.034; ENMIN  =  374.276 eV                                      
   ICORE  =        2    local potential                                         
   LCOR   =        T    correct aug charges                                     
   LPAW   =        T    paw PP                                                  
   EAUG   =  628.945                                                            
   RMAX   =    1.732    core radius for proj-oper                               
   RAUG   =    1.300    factor for augmentation sphere                          
   RDEP   =    1.728    radius for radial grids                                 
   RDEPT  =    1.329    core radius for aug-charge                              
                                                                                
   Atomic configuration                                                         
    4 entries                                                                   
     n  l   j            E        occ.                                          
     1  0  0.50       -51.8549   2.0000                                         
     2  0  0.50        -2.8742   1.0000                                         
     2  1  0.50        -1.3606   0.0000                                         
     3  2  1.50        -1.3606   0.0000                                         
   Description                                                                  
     l       E           TYP  RCUT    TYP  RCUT                                 
     0    -51.8548813     23  1.400                                             
     0     -2.8742052     23  1.700                                             
     1     -1.3605826     23  1.400                                             
     2     -1.3605826     23  1.400                                             
  local pseudopotential read in
  atomic valenz-charges read in
  non local Contribution for L=           0  read in
    real space projection operators read in
  non local Contribution for L=           0  read in
    real space projection operators read in
  non local Contribution for L=           1  read in
    real space projection operators read in
    PAW grid and wavefunctions read in
 
   number of l-projection  operators is LMAX  =           3
   number of lm-projection operators is LMMAX =           5
 
 POTCAR:    PAW_PBE Ti_pv 07Sep2000               
   VRHFIN =Ti: d3 s1                                                            
   LEXCH  = PE                                                                  
   EATOM  =  1042.5995 eV,   76.6289 Ry                                         
                                                                                
   TITEL  = PAW_PBE Ti_pv 07Sep2000                                             
   LULTRA =        F    use ultrasoft PP ?                                      
   IUNSCR =        1    unscreen: 0-lin 1-nonlin 2-no                           
   RPACOR =    2.200    partial core radius                                     
   POMASS =   47.880; ZVAL   =   10.000    mass and valenz                      
   RCORE  =    2.500    outmost cutoff radius                                   
   RWIGS  =    2.500; RWIGS  =    1.323    wigner-seitz radius (au A)           
   ENMAX  =  222.335; ENMIN  =  166.751 eV                                      
   RCLOC  =    1.701    cutoff for local pot                                    
   LCOR   =        T    correct aug charges                                     
   LPAW   =        T    paw PP                                                  
   EAUG   =  482.848                                                            
   DEXC   =    0.000                                                            
   RMAX   =    2.564    core radius for proj-oper                               
   RAUG   =    1.300    factor for augmentation sphere                          
   RDEP   =    2.538    radius for radial grids                                 
   RDEPT  =    1.952    core radius for aug-charge                              
                                                                                
   Atomic configuration                                                         
    8 entries                                                                   
     n  l   j            E        occ.                                          
     1  0  0.50     -4865.3608   2.0000                                         
     2  0  0.50      -533.1368   2.0000                                         
     2  1  1.50      -440.5031   6.0000                                         
     3  0  0.50       -59.3186   2.0000                                         
     3  1  1.50       -35.7012   6.0000                                         
     3  2  2.50        -1.9157   3.0000                                         
     4  0  0.50        -3.7291   1.0000                                         
     4  3  2.50        -1.3606   0.0000                                         
   Description                                                                  
     l       E           TYP  RCUT    TYP  RCUT                                 
     1    -35.7012140     23  2.300                                             
     1     -1.3605826     23  2.300                                             
     2     -1.9156996     23  2.500                                             
     2     -0.4063033     23  2.500                                             
     0     -3.7290856     23  2.500                                             
     0     20.4087390     23  2.500                                             
  local pseudopotential read in
  partial core-charges read in
  partial kinetic energy density read in
  atomic valenz-charges read in
  non local Contribution for L=           1  read in
    real space projection operators read in
  non local Contribution for L=           1  read in
    real space projection operators read in
  non local Contribution for L=           2  read in
    real space projection operators read in
  non local Contribution for L=           2  read in
    real space projection operators read in
  non local Contribution for L=           0  read in
    real space projection operators read in
  non local Contribution for L=           0  read in
    real space projection operators read in
    PAW grid and wavefunctions read in
 
   number of l-projection  operators is LMAX  =           6
   number of lm-projection operators is LMMAX =          18
 
 POTCAR:    PAW_PBE O 08Apr2002                   
   VRHFIN =O: s2p4                                                              
   LEXCH  = PE                                                                  
   EATOM  =   432.3788 eV,   31.7789 Ry                                         
                                                                                
   TITEL  = PAW_PBE O 08Apr2002                                                 
   LULTRA =        F    use ultrasoft PP ?                                      
   IUNSCR =        1    unscreen: 0-lin 1-nonlin 2-no                           
   RPACOR =    1.200    partial core radius                                     
   POMASS =   16.000; ZVAL   =    6.000    mass and valenz                      
   RCORE  =    1.520    outmost cutoff radius                                   
   RWIGS  =    1.550; RWIGS  =    0.820    wigner-seitz radius (au A)           
   ENMAX  =  400.000; ENMIN  =  300.000 eV                                      
   ICORE  =        2    local potential                                         
   LCOR   =        T    correct aug charges                                     
   LPAW   =        T    paw PP                                                  
   EAUG   =  605.392                                                            
   DEXC   =    0.000                                                            
   RMAX   =    1.553    core radius for proj-oper                               
   RAUG   =    1.300    factor for augmentation sphere                          
   RDEP   =    1.550    radius for radial grids                                 
   RDEPT  =    1.329    core radius for aug-charge                              
                                                                                
   Atomic configuration                                                         
    4 entries                                                                   
     n  l   j            E        occ.                                          
     1  0  0.50      -514.6923   2.0000                                         
     2  0  0.50       -23.9615   2.0000                                         
     2  1  0.50        -9.0305   4.0000                                         
     3  2  1.50        -9.5241   0.0000                                         
   Description                                                                  
     l       E           TYP  RCUT    TYP  RCUT                                 
     0    -23.9615318     23  1.200                                             
     0     -9.5240782     23  1.200                                             
     1     -9.0304911     23  1.520                                             
     1      8.1634956     23  1.520                                             
     2     -9.5240782      7  1.500                                             
  local pseudopotential read in
  partial core-charges read in
  partial kinetic energy density read in
  kinetic energy density of atom read in
  atomic valenz-charges read in
  non local Contribution for L=           0  read in
    real space projection operators read in
  non local Contribution for L=           0  read in
    real space projection operators read in
  non local Contribution for L=           1  read in
    real space projection operators read in
  non local Contribution for L=           1  read in
    real space projection operators read in
    PAW grid and wavefunctions read in
 
   number of l-projection  operators is LMAX  =           4
   number of lm-projection operators is LMMAX =           8
 
 POTCAR:    PAW_PBE F 08Apr2002                   
   VRHFIN =F: s2p5                                                              
   LEXCH  = PE                                                                  
   EATOM  =   659.6475 eV,   48.4827 Ry                                         
                                                                                
   TITEL  = PAW_PBE F 08Apr2002                                                 
   LULTRA =        F    use ultrasoft PP ?                                      
   IUNSCR =        1    unscreen: 0-lin 1-nonlin 2-no                           
   RPACOR =    1.200    partial core radius                                     
   POMASS =   18.998; ZVAL   =    7.000    mass and valenz                      
   RCORE  =    1.520    outmost cutoff radius                                   
   RWIGS  =    1.500; RWIGS  =    0.794    wigner-seitz radius (au A)           
   ENMAX  =  400.000; ENMIN  =  300.000 eV                                      
   ICORE  =        2    local potential                                         
   LCOR   =        T    correct aug charges                                     
   LPAW   =        T    paw PP                                                  
   EAUG   =  613.614                                                            
   RMAX   =    1.555    core radius for proj-oper                               
   RAUG   =    1.300    factor for augmentation sphere                          
   RDEP   =    1.539    radius for radial grids                                 
   RDEPT  =    1.299    core radius for aug-charge                              
                                                                                
   Atomic configuration                                                         
    4 entries                                                                   
     n  l   j            E        occ.                                          
     1  0  0.50      -663.3661   2.0000                                         
     2  0  0.50       -29.8995   2.0000                                         
     2  1  0.50       -11.1114   5.0000                                         
     3  2  1.50       -10.8847   0.0000                                         
   Description                                                                  
     l       E           TYP  RCUT    TYP  RCUT                                 
     0    -29.8995018     23  1.200                                             
     0     -9.5240782     23  1.200                                             
     1    -11.1113914     23  1.520                                             
     1      1.3605826     23  1.520                                             
     2    -10.8846608      7  1.500                                             
  local pseudopotential read in
  partial core-charges read in
  partial kinetic energy density read in
  atomic valenz-charges read in
  non local Contribution for L=           0  read in
    real space projection operators read in
  non local Contribution for L=           0  read in
    real space projection operators read in
  non local Contribution for L=           1  read in
    real space projection operators read in
  non local Contribution for L=           1  read in
    real space projection operators read in
    PAW grid and wavefunctions read in
 
   number of l-projection  operators is LMAX  =           4
   number of lm-projection operators is LMMAX =           8
 
 Optimization of the real space projectors (new method)

 maximal supplied QI-value         = 22.11
 optimisation between [QCUT,QGAM] = [ 11.28, 22.77] = [ 35.61,145.23] Ry 
 Optimized for a Real-space Cutoff    1.31 Angstroem

   l    n(q)    QCUT    max X(q) W(low)/X(q) W(high)/X(q)  e(spline) 
   0      9    11.276    10.506    0.19E-04    0.17E-04    0.32E-07
   0      9    11.276     8.367    0.38E-04    0.40E-04    0.65E-07
   1      8    11.276     8.983    0.55E-04    0.98E-04    0.20E-06
 Optimization of the real space projectors (new method)

 maximal supplied QI-value         = 15.12
 optimisation between [QCUT,QGAM] = [ 11.34, 22.83] = [ 36.00,145.93] Ry 
 Optimized for a Real-space Cutoff    1.56 Angstroem

   l    n(q)    QCUT    max X(q) W(low)/X(q) W(high)/X(q)  e(spline) 
   1     10    11.338     4.216    0.27E-04    0.12E-04    0.66E-07
   1     10    11.338     5.422    0.81E-04    0.24E-04    0.19E-06
   2     10    11.338    72.084    0.64E-04    0.21E-03    0.51E-06
   2     10    11.338    65.965    0.63E-04    0.21E-03    0.50E-06
   0     11    11.338    41.531    0.33E-04    0.54E-04    0.13E-06
   0     11    11.338    16.290    0.26E-04    0.41E-04    0.11E-06
 Optimization of the real space projectors (new method)

 maximal supplied QI-value         = 24.76
 optimisation between [QCUT,QGAM] = [ 11.39, 22.77] = [ 36.31,145.25] Ry 
 Optimized for a Real-space Cutoff    1.20 Angstroem

   l    n(q)    QCUT    max X(q) W(low)/X(q) W(high)/X(q)  e(spline) 
   0      8    11.387    20.381    0.89E-04    0.31E-03    0.27E-06
   0      8    11.387    15.268    0.93E-04    0.32E-03    0.29E-06
   1      8    11.387     5.964    0.53E-04    0.28E-03    0.29E-06
   1      8    11.387     5.382    0.37E-04    0.22E-03    0.26E-06
 Optimization of the real space projectors (new method)

 maximal supplied QI-value         = 24.76
 optimisation between [QCUT,QGAM] = [ 11.39, 22.77] = [ 36.31,145.25] Ry 
 Optimized for a Real-space Cutoff    1.20 Angstroem

   l    n(q)    QCUT    max X(q) W(low)/X(q) W(high)/X(q)  e(spline) 
   0      8    11.387    14.049    0.69E-04    0.23E-03    0.18E-06
   0      8    11.387     8.945    0.88E-04    0.30E-03    0.26E-06
   1      8    11.387     7.086    0.62E-04    0.27E-03    0.27E-06
   1      8    11.387     6.747    0.46E-04    0.23E-03    0.25E-06

 ----------------------------------------------------------------------------- 
|                                                                             |
|  ADVICE TO THIS USER RUNNING 'VASP/VAMP'   (HEAR YOUR MASTER'S VOICE ...):  |
|                                                                             |
|      You enforced a specific xc-type in the INCAR file,                     |
|      a different type was found on the POTCAR file                          |
|          I HOPE YOU KNOW, WHAT YOU ARE  DOING                               |
|                                                                             |
 ----------------------------------------------------------------------------- 

  PAW_PBE Li_sv 10Sep2004               :
 energy of atom  1       EATOM= -202.7858
 kinetic energy error for atom=    0.0143 (will be added to EATOM!!)
  PAW_PBE Ti_pv 07Sep2000               :
 energy of atom  2       EATOM=-1042.5995
 kinetic energy error for atom=    0.0024 (will be added to EATOM!!)
  PAW_PBE O 08Apr2002                   :
 energy of atom  3       EATOM= -432.3788
 kinetic energy error for atom=    0.0224 (will be added to EATOM!!)
  PAW_PBE F 08Apr2002                   :
 energy of atom  4       EATOM= -659.6475
 kinetic energy error for atom=    0.0354 (will be added to EATOM!!)
 
 
 POSCAR: config 14                               
  positions in direct lattice
  velocities in cartesian coordinates
 exchange correlation table for  LEXCH =       14
   RHO(1)=    0.500       N(1)  =     2000
   RHO(2)=  100.500       N(2)  =     4000

 VTST: version 3.2, (02/03/18)

 CHAIN: initializing optimizer
 
 OPT: Using VASP QUASI-newton optimizer
 CHAIN: Read ICHAIN            0
 
 POSCAR: config 14                               
  positions in direct lattice
  velocities in cartesian coordinates
 


--------------------------------------------------------------------------------------------------------


 ion  position               nearest neighbor table
   1  0.089  0.871  0.362- 119 2.04 227 2.16  97 2.26
   2  0.995  0.996  0.995- 118 1.88  68 1.88 103 1.89 171 2.02 212 2.03 130 2.03
   3  0.001  0.996  0.497-  67 1.94 131 1.99 119 2.00 172 2.01 193 2.01 213 2.09
   4  0.006  0.496  0.997-  89 1.84 117 1.86 138 1.93 132 1.98 214 2.01 194 2.02
   5  0.994  0.503  0.507-  66 1.83 104 1.84 215 1.92 223 2.01 173 2.01 137 2.03
   6  0.494  0.994  0.000- 101 1.83 121 1.85 140 1.95 133 1.96 216 2.02 174 2.03
   7  0.499  0.008  0.499- 112 1.77 191 1.91 134 1.91 139 1.92 175 1.92 225 2.01
   8  0.504  0.495  0.996-  70 1.88 120 1.88  90 1.89 192 2.03 135 2.04 217 2.05
   9  0.492  0.498  0.495- 102 1.80  69 1.86 224 1.97 218 1.98 136 2.01 176 2.06
  10  0.004  0.005  0.257-  67 1.79  91 1.89 219 1.93 130 2.02 227 2.02 197 2.03
  11  0.001  0.009  0.758-  68 1.79 113 1.84 177 1.95 198 1.99 228 2.04 131 2.06
  12  0.993  0.494  0.252- 107 1.82 122 1.85 137 1.93 132 1.96 220 2.01 178 2.02
  13  0.993  0.499  0.742- 108 1.82  66 1.82 226 1.93 221 1.97 138 2.02 179 2.04
  14  0.506  0.008  0.251- 114 1.82  92 1.84 133 1.92 139 1.97 195 1.99 231 2.06
  15  0.493  0.005  0.752- 105 1.81 115 1.83 140 1.93 134 1.99 232 2.01 180 2.03
  16  0.493  0.497  0.257-  69 1.82 106 1.84 229 1.96 222 2.00 135 2.02 181 2.05
  17  0.501  0.504  0.759-  70 1.80 116 1.87 182 1.94 196 1.97 230 2.03 136 2.07
  18  0.996  0.258  0.001- 117 1.82 110 1.88 141 1.96 146 1.97 183 2.01 212 2.02
  19  0.998  0.249  0.491-  74 1.78 213 1.90 202 1.94 184 1.94 223 1.94 142 2.02
  20  0.999  0.759  0.003- 118 1.80  71 1.88 203 1.94 185 1.97 148 2.01 214 2.06
  21  0.001  0.761  0.504- 119 1.78  72 1.86 204 1.96 186 1.99 147 2.04 215 2.07
  22  0.495  0.258  0.002- 120 1.80 109 1.85 150 1.96 143 1.98 187 2.03 216 2.07
  23  0.508  0.244  0.498-  93 1.80 112 1.89 144 1.92 149 1.94 224 1.97 199 2.00
  24  0.507  0.756  0.999-  94 1.83 121 1.84 152 1.94 145 1.99 217 2.01 200 2.03
  25  0.508  0.751  0.509-  73 1.79  95 1.83 218 1.95 225 1.96 201 2.02 151 2.08
  26  0.999  0.258  0.256- 122 1.79  74 1.88 209 1.94 188 1.95 141 2.00 219 2.02
  27  0.007  0.243  0.747- 113 1.81  96 1.83 142 1.97 146 1.97 210 2.05 226 2.05
  28  0.006  0.748  0.241-  71 1.79  97 1.88 220 1.93 227 2.00 211 2.03 147 2.06
  29  0.994  0.752  0.741-  72 1.82 111 1.84 228 1.93 221 1.98 189 2.02 148 2.05
  30  0.509  0.242  0.252-  98 1.82 114 1.83 143 1.93 149 1.96 229 2.01 205 2.02
  31  0.507  0.243  0.751-  99 1.84 115 1.84 150 1.93 144 1.97 230 2.02 206 2.02
  32  0.506  0.752  0.253- 100 1.80 151 1.92 231 1.93 145 1.94 222 1.94 207 2.02
  33  0.502  0.742  0.744- 116 1.81  73 1.84 190 1.93 208 1.97 152 2.03 232 2.06
  34  0.256  0.998  0.007-  75 1.84 101 1.86 246 1.93 233 1.96 171 2.01 157 2.04
  35  0.249  0.993  0.507-  76 1.83 128 1.85 172 1.90 191 1.99 234 2.03 156 2.03
  36  0.244  0.508  0.998- 123 1.82  89 1.84 159 1.93 153 1.97 192 2.02 245 2.03
  37  0.254  0.493  0.507-  77 1.85 102 1.88 127 1.88 173 2.03 158 2.05 235 2.05
  38  0.757  0.001  0.994- 103 1.79  81 1.87 236 1.95 249 1.96 154 2.04 174 2.04
  39  0.753  0.007  0.495-  80 1.84 124 1.84 193 1.89 175 1.99 155 2.00 250 2.02
  40  0.742  0.501  0.005-  90 1.80  78 1.87 237 1.95 247 1.96 161 2.03 194 2.05
  41  0.756  0.497  0.505-  79 1.84 104 1.85 248 1.95 238 1.98 176 2.02 160 2.03
  42  0.243  0.000  0.244-  75 1.83  91 1.85 239 1.93 252 1.97 156 2.04 195 2.06
  43  0.257  0.997  0.745- 105 1.84  76 1.84 253 1.93 240 1.97 177 2.02 157 2.02
  44  0.256  0.493  0.252- 129 1.83 106 1.83 158 1.93 153 1.97 178 2.03 241 2.06
  45  0.247  0.506  0.741-  77 1.79 125 1.83 179 1.95 196 1.97 251 2.02 159 2.06
  46  0.744  1.000  0.256-  80 1.85  92 1.85 256 1.95 242 1.95 154 2.00 197 2.01
  47  0.749  0.007  0.756-  81 1.82 126 1.83 180 1.94 198 1.97 257 2.04 155 2.06
  48  0.756  0.500  0.242-  78 1.81 107 1.86 243 1.95 254 1.96 181 2.02 160 2.05
  49  0.757  0.498  0.742- 108 1.83  79 1.84 255 1.93 244 1.98 182 2.03 161 2.04
  50  0.257  0.251  0.006- 109 1.83  82 1.86 245 1.93 233 1.97 168 2.02 183 2.05
  51  0.252  0.256  0.505- 127 1.81  83 1.85 199 1.96 184 2.02 167 2.03 234 2.06
  52  0.252  0.742  0.995- 123 1.81  86 1.83 200 1.94 185 1.96 246 2.03 162 2.05
  53  0.251  0.755  0.494-  85 1.85 128 1.86 201 1.95 186 1.97 235 2.00 163 2.02
  54  0.757  0.251  0.007- 110 1.81  84 1.86 236 1.94 247 1.94 170 2.03 187 2.04
  55  0.745  0.242  0.497- 124 1.81  93 1.85 169 1.93 164 1.96 248 2.02 202 2.03
  56  0.742  0.749  0.993-  94 1.82  88 1.83 237 1.94 249 1.95 203 2.02 165 2.05
  57  0.743  0.751  0.493-  95 1.82  87 1.86 250 1.93 238 1.96 166 2.01 204 2.03
  58  0.252  0.257  0.244- 129 1.82  82 1.83 205 1.95 188 1.98 167 2.03 239 2.04
  59  0.244  0.252  0.744-  83 1.83  96 1.84 251 1.94 240 1.98 168 2.04 206 2.04
  60  0.243  0.748  0.257-  85 1.83  97 1.86 241 1.93 252 1.97 162 2.02 207 2.06
  61  0.249  0.741  0.757- 125 1.81  86 1.84 189 1.94 208 1.97 253 2.04 163 2.05
  62  0.742  0.252  0.242-  84 1.80  98 1.83 254 1.94 242 1.95 209 2.04 169 2.06
  63  0.744  0.242  0.751- 126 1.82  99 1.84 170 1.94 164 2.00 210 2.02 255 2.04
  64  0.745  0.750  0.257-  87 1.81 100 1.90 243 1.94 256 1.95 211 2.01 165 2.02
  65  0.759  0.751  0.756- 111 1.81  88 1.84 257 1.93 244 1.97 190 2.04 166 2.05
  66  0.008  0.495  0.624-  13 1.82   5 1.83
  67  0.994  0.011  0.372-  10 1.79   3 1.94
  68  0.997  0.010  0.874-  11 1.79   2 1.88
  69  0.499  0.491  0.375-  16 1.82   9 1.86
  70  0.494  0.495  0.875-  17 1.80   8 1.88
  71  0.006  0.752  0.125-  28 1.79  20 1.88
  72  0.006  0.759  0.624-  29 1.82  21 1.86
  73  0.506  0.750  0.625-  25 1.79  33 1.84
  74  0.992  0.241  0.376-  19 1.78  26 1.88
  75  0.250  0.001  0.126-  42 1.83  34 1.84
  76  0.251  1.000  0.626-  35 1.83  43 1.84
  77  0.239  0.493  0.626-  45 1.79  37 1.85
  78  0.750  0.490  0.125-  48 1.81  40 1.87
  79  0.746  0.493  0.624-  49 1.84  41 1.84
  80  0.754  0.001  0.375-  39 1.84  46 1.85
  81  0.749  0.000  0.874-  47 1.82  38 1.87
  82  0.245  0.251  0.126-  58 1.83  50 1.86
  83  0.250  0.251  0.625-  59 1.83  51 1.85
  84  0.741  0.261  0.126-  62 1.80  54 1.86
  85  0.258  0.745  0.375-  60 1.83  53 1.85
  86  0.256  0.750  0.876-  52 1.83  61 1.84
  87  0.757  0.750  0.373-  64 1.81  57 1.86
  88  0.753  0.751  0.875-  56 1.83  65 1.84
  89  0.125  0.505  0.994-   4 1.84  36 1.84
  90  0.626  0.509  0.998-  40 1.80   8 1.89
  91  0.126  0.985  0.260-  42 1.85  10 1.89
  92  0.624  0.995  0.253-  14 1.84  46 1.85
  93  0.625  0.244  0.492-  23 1.80  55 1.85
  94  0.625  0.741  0.999-  56 1.82  24 1.83
  95  0.625  0.746  0.492-  57 1.82  25 1.83
  96  0.125  0.252  0.751-  27 1.83  59 1.84
  97  0.124  0.768  0.264-  60 1.86  28 1.88   1 2.26
  98  0.626  0.252  0.263-  30 1.82  62 1.83
  99  0.626  0.253  0.750-  31 1.84  63 1.84
 100  0.623  0.758  0.255-  32 1.80  64 1.90
 101  0.376  0.998  0.996-   6 1.83  34 1.86
 102  0.375  0.494  0.504-   9 1.80  37 1.88
 103  0.873  0.001  0.004-  38 1.79   2 1.89
 104  0.875  0.492  0.499-   5 1.84  41 1.85
 105  0.376  0.997  0.754-  15 1.81  43 1.84
 106  0.374  0.503  0.249-  44 1.83  16 1.84
 107  0.876  0.505  0.252-  12 1.82  48 1.86
 108  0.875  0.508  0.746-  13 1.82  49 1.83
 109  0.376  0.250  0.005-  50 1.83  22 1.85
 110  0.874  0.250  0.006-  54 1.81  18 1.88
 111  0.875  0.744  0.745-  65 1.81  29 1.84
 112  0.495  0.122  0.492-   7 1.77  23 1.89
 113  0.997  0.126  0.737-  27 1.81  11 1.84
 114  0.502  0.125  0.265-  14 1.82  30 1.83
 115  0.502  0.124  0.750-  15 1.83  31 1.84
 116  0.502  0.625  0.752-  33 1.81  17 1.87
 117  0.002  0.375  0.998-  18 1.82   4 1.86
 118  0.003  0.875  0.995-  20 1.80   2 1.88
 119  0.024  0.871  0.477-  21 1.78   3 2.00   1 2.04
 120  0.505  0.374  0.009-  22 1.80   8 1.88
 121  0.506  0.875  0.006-  24 1.84   6 1.85
 122  0.999  0.374  0.254-  26 1.79  12 1.85
 123  0.257  0.625  0.005-  52 1.81  36 1.82
 124  0.758  0.125  0.506-  55 1.81  39 1.84
 125  0.248  0.624  0.748-  61 1.81  45 1.83
 126  0.751  0.125  0.743-  63 1.82  47 1.83
 127  0.243  0.372  0.492-  51 1.81  37 1.88
 128  0.236  0.875  0.495-  35 1.85  53 1.86
 129  0.249  0.374  0.258-  58 1.82  44 1.83
 130  0.004  0.996  0.126-  10 2.02   2 2.03
 131  0.007  0.988  0.626-   3 1.99  11 2.06
 132  0.001  0.502  0.125-  12 1.96   4 1.98
 133  0.498  0.010  0.127-  14 1.92   6 1.96
 134  0.501  0.998  0.623-   7 1.91  15 1.99
 135  0.503  0.509  0.128-  16 2.02   8 2.04
 136  0.508  0.502  0.625-   9 2.01  17 2.07
 137  0.003  0.505  0.376-  12 1.93   5 2.03
 138  0.995  0.505  0.873-   4 1.93  13 2.02
 139  0.497  0.986  0.377-   7 1.92  14 1.97
 140  0.511  0.997  0.875-  15 1.93   6 1.95
 141  0.009  0.253  0.127-  18 1.96  26 2.00
 142  0.002  0.265  0.621-  27 1.97  19 2.02
 143  0.510  0.237  0.127-  30 1.93  22 1.98
 144  0.499  0.245  0.623-  23 1.92  31 1.97
 145  0.500  0.743  0.127-  32 1.94  24 1.99
 146  0.994  0.244  0.874-  18 1.97  27 1.97
 147  0.992  0.741  0.373-  21 2.04  28 2.06
 148  0.998  0.745  0.874-  20 2.01  29 2.05
 149  0.490  0.265  0.376-  23 1.94  30 1.96
 150  0.498  0.254  0.875-  31 1.93  22 1.96
 151  0.489  0.757  0.376-  32 1.92  25 2.08
 152  0.493  0.755  0.874-  24 1.94  33 2.03
 153  0.244  0.493  0.125-  44 1.97  36 1.97
 154  0.746  0.001  0.126-  46 2.00  38 2.04
 155  0.743  0.995  0.623-  39 2.00  47 2.06
 156  0.257  0.001  0.376-  35 2.03  42 2.04
 157  0.246  0.996  0.875-  43 2.02  34 2.04
 158  0.248  0.513  0.376-  44 1.93  37 2.05
 159  0.260  0.500  0.874-  36 1.93  45 2.06
 160  0.747  0.507  0.374-  41 2.03  48 2.05
 161  0.753  0.507  0.874-  40 2.03  49 2.04
 162  0.245  0.756  0.127-  60 2.02  52 2.05
 163  0.246  0.754  0.625-  53 2.02  61 2.05
 164  0.749  0.262  0.623-  55 1.96  63 2.00
 165  0.749  0.750  0.126-  64 2.02  56 2.05
 166  0.745  0.750  0.624-  57 2.01  65 2.05
 167  0.255  0.241  0.375-  51 2.03  58 2.03
 168  0.254  0.249  0.875-  50 2.02  59 2.04
 169  0.764  0.242  0.374-  55 1.93  62 2.06
 170  0.754  0.244  0.876-  63 1.94  54 2.03
 171  0.126  0.003  0.999-  34 2.01   2 2.02
 172  0.129  0.021  0.493-  35 1.90   3 2.01
 173  0.124  0.509  0.492-   5 2.01  37 2.03
 174  0.625  0.004  0.005-   6 2.03  38 2.04
 175  0.624  0.001  0.498-   7 1.92  39 1.99
 176  0.625  0.504  0.497-  41 2.02   9 2.06
 177  0.127  0.000  0.751-  11 1.95  43 2.02
 178  0.124  0.500  0.250-  12 2.02  44 2.03
 179  0.123  0.494  0.763-  45 1.95  13 2.04
 180  0.624  0.995  0.745-  47 1.94  15 2.03
 181  0.625  0.495  0.250-  48 2.02  16 2.05
 182  0.626  0.493  0.756-  17 1.94  49 2.03
 183  0.125  0.248  0.994-  18 2.01  50 2.05
 184  0.123  0.236  0.497-  19 1.94  51 2.02
 185  0.125  0.744  0.995-  52 1.96  20 1.97
 186  0.126  0.732  0.492-  53 1.97  21 1.99
 187  0.626  0.247  0.993-  22 2.03  54 2.04
 188  0.124  0.245  0.259-  26 1.95  58 1.98
 189  0.124  0.754  0.756-  61 1.94  29 2.02
 190  0.627  0.755  0.755-  33 1.93  65 2.04
 191  0.377  0.990  0.501-   7 1.91  35 1.99
 192  0.373  0.494  0.008-  36 2.02   8 2.03
 193  0.872  0.984  0.512-  39 1.89   3 2.01
 194  0.875  0.497  0.999-   4 2.02  40 2.05
 195  0.377  0.002  0.252-  14 1.99  42 2.06
 196  0.375  0.498  0.741-  17 1.97  45 1.97
 197  0.874  0.004  0.242-  46 2.01  10 2.03
 198  0.874  0.994  0.740-  47 1.97  11 1.99
 199  0.379  0.255  0.501-  51 1.96  23 2.00
 200  0.376  0.758  0.008-  52 1.94  24 2.03
 201  0.377  0.757  0.507-  53 1.95  25 2.02
 202  0.874  0.264  0.506-  19 1.94  55 2.03
 203  0.873  0.756  0.004-  20 1.94  56 2.02
 204  0.874  0.762  0.505-  21 1.96  57 2.03
 205  0.378  0.249  0.245-  58 1.95  30 2.02
 206  0.376  0.249  0.750-  31 2.02  59 2.04
 207  0.376  0.743  0.244-  32 2.02  60 2.06
 208  0.375  0.754  0.744-  33 1.97  61 1.97
 209  0.874  0.247  0.242-  26 1.94  62 2.04
 210  0.874  0.254  0.745-  63 2.02  27 2.05
 211  0.875  0.743  0.244-  64 2.01  28 2.03
 212  0.002  0.127  0.008-  18 2.02   2 2.03
 213  0.984  0.130  0.516-  19 1.90   3 2.09
 214  0.992  0.626  0.000-   4 2.01  20 2.06
 215  0.990  0.627  0.502-   5 1.92  21 2.07
 216  0.503  0.124  0.995-   6 2.02  22 2.07
 217  0.488  0.627  0.998-  24 2.01   8 2.05
 218  0.495  0.626  0.494-  25 1.95   9 1.98
 219  0.002  0.128  0.238-  10 1.93  26 2.02
 220  0.009  0.624  0.248-  28 1.93  12 2.01
 221  0.011  0.625  0.747-  13 1.97  29 1.98
 222  0.506  0.626  0.258-  32 1.94  16 2.00
 223  0.011  0.375  0.491-  19 1.94   5 2.01
 224  0.506  0.372  0.509-   9 1.97  23 1.97
 225  0.504  0.878  0.501-  25 1.96   7 2.01
 226  0.995  0.375  0.757-  13 1.93  27 2.05
 227  0.990  0.875  0.264-  28 2.00  10 2.02   1 2.16
 228  1.000  0.877  0.758-  29 1.93  11 2.04
 229  0.497  0.372  0.238-  16 1.96  30 2.01
 230  0.496  0.373  0.743-  31 2.02  17 2.03
 231  0.491  0.876  0.243-  32 1.93  14 2.06
 232  0.502  0.875  0.750-  15 2.01  33 2.06
 233  0.248  0.125  0.996-  34 1.96  50 1.97
 234  0.264  0.124  0.499-  35 2.03  51 2.06
 235  0.258  0.626  0.508-  53 2.00  37 2.05
 236  0.746  0.126  0.005-  54 1.94  38 1.95
 237  0.763  0.626  0.005-  56 1.94  40 1.95
 238  0.757  0.625  0.503-  57 1.96  41 1.98
 239  0.249  0.125  0.252-  42 1.93  58 2.04
 240  0.251  0.124  0.755-  43 1.97  59 1.98
 241  0.241  0.625  0.241-  60 1.93  44 2.06
 242  0.751  0.126  0.246-  62 1.95  46 1.95
 243  0.742  0.625  0.245-  64 1.94  48 1.95
 244  0.739  0.625  0.746-  65 1.97  49 1.98
 245  0.247  0.376  0.996-  50 1.93  36 2.03
 246  0.244  0.873  0.002-  34 1.93  52 2.03
 247  0.746  0.375  0.986-  54 1.94  40 1.96
 248  0.744  0.372  0.488-  41 1.95  55 2.02
 249  0.744  0.875  0.006-  56 1.95  38 1.96
 250  0.742  0.876  0.501-  57 1.93  39 2.02
 251  0.254  0.376  0.758-  59 1.94  45 2.02
 252  0.264  0.875  0.254-  42 1.97  60 1.97
 253  0.247  0.873  0.750-  43 1.93  61 2.04
 254  0.755  0.375  0.265-  62 1.94  48 1.96
 255  0.755  0.374  0.759-  49 1.93  63 2.04
 256  0.760  0.875  0.245-  64 1.95  46 1.95
 257  0.751  0.875  0.745-  65 1.93  47 2.04
 

IMPORTANT INFORMATION: All symmetrisations will be switched off!
NOSYMM: (Re-)initialisation of all symmetry stuff for point group C_1.

 
 
 KPOINTS: Title                                   

Automatic generation of k-mesh.
Space group operators:
 irot       det(A)        alpha          n_x          n_y          n_z        tau_x        tau_y        tau_z
    1     1.000000     0.000001     1.000000     0.000000     0.000000     0.000000     0.000000     0.000000
 
 Subroutine IBZKPT returns following result:
 ===========================================
 
 Found      4 irreducible k-points:
 
 Following reciprocal coordinates:
            Coordinates               Weight
  0.250000  0.250000  0.250000      2.000000
 -0.250000  0.250000  0.250000      2.000000
  0.250000 -0.250000  0.250000      2.000000
 -0.250000 -0.250000  0.250000      2.000000
 
 Following cartesian coordinates:
            Coordinates               Weight
  0.016206  0.016206  0.016206      2.000000
 -0.016206  0.016206  0.016206      2.000000
  0.016206 -0.016206  0.016206      2.000000
 -0.016206 -0.016206  0.016206      2.000000
 


--------------------------------------------------------------------------------------------------------




 Dimension of arrays:
   k-points           NKPTS =      4   k-points in BZ     NKDIM =      4   number of bands    NBANDS=   1164
   number of dos      NEDOS =   3001   number of ions     NIONS =    257
   non local maximal  LDIM  =      6   non local SUM 2l+1 LMDIM =     18
   total plane-waves  NPLWV = ******
   max r-space proj   IRMAX =   7595   max aug-charges    IRDMAX= 146383
   dimension x,y,z NGX =   120 NGY =  120 NGZ =  120
   dimension x,y,z NGXF=   240 NGYF=  240 NGZF=  240
   support grid    NGXF=   480 NGYF=  480 NGZF=  480
   ions per type =               1  64  64 128
   NGX,Y,Z   is equivalent  to a cutoff of  12.93, 12.93, 12.93 a.u.
   NGXF,Y,Z  is equivalent  to a cutoff of  25.86, 25.86, 25.86 a.u.

 SYSTEM =  LTO                                     
 POSCAR =  config 14                               

 Startparameter for this run:
   NWRITE =      2    write-flag & timer
   PREC   = accura    normal or accurate (medium, high low for compatibility)
   ISTART =      1    job   : 0-new  1-cont  2-samecut
   ICHARG =      0    charge: 1-file 2-atom 10-const
   ISPIN  =      2    spin polarized calculation?
   LNONCOLLINEAR =      F non collinear calculations
   LSORBIT =      F    spin-orbit coupling
   INIWAV =      1    electr: 0-lowe 1-rand  2-diag
   LASPH  =      T    aspherical Exc in radial PAW
   METAGGA=      F    non-selfconsistent MetaGGA calc.

 Electronic Relaxation 1
   ENCUT  =  500.0 eV  36.75 Ry    6.06 a.u.  28.13 28.13 28.13*2*pi/ulx,y,z
   ENINI  =  500.0     initial cutoff
   ENAUG  =  628.9 eV  augmentation charge cutoff
   NELM   =     60;   NELMIN=  2; NELMDL=  0     # of ELM steps 
   EDIFF  = 0.1E-05   stopping-criterion for ELM
   LREAL  =      T    real-space projection
   NLSPLINE    = F    spline interpolate recip. space projectors
   LCOMPAT=      F    compatible to vasp.4.4
   GGA_COMPAT  = T    GGA compatible to vasp.4.4-vasp.4.6
   LMAXPAW     = -100 max onsite density
   LMAXMIX     =    4 max onsite mixed and CHGCAR
   VOSKOWN=      0    Vosko Wilk Nusair interpolation
   ROPT   =   -0.00010  -0.00010  -0.00010  -0.00010
 Ionic relaxation
   EDIFFG = -.5E-01   stopping-criterion for IOM
   NSW    =    100    number of steps for IOM
   NBLOCK =      1;   KBLOCK =    100    inner block; outer block 
   IBRION =      1    ionic relax: 0-MD 1-quasi-New 2-CG
   NFREE  =      0    steps in history (QN), initial steepest desc. (CG)
   ISIF   =      2    stress and relaxation
   IWAVPR =     11    prediction:  0-non 1-charg 2-wave 3-comb
   ISYM   =      0    0-nonsym 1-usesym 2-fastsym
   LCORR  =      T    Harris-Foulkes like correction to forces

   POTIM  = 0.5000    time-step for ionic-motion
   TEIN   =    0.0    initial temperature
   TEBEG  =    0.0;   TEEND  =   0.0 temperature during run
   SMASS  =  -3.00    Nose mass-parameter (am)
   estimated Nose-frequenzy (Omega)   =  0.10E-29 period in steps =****** mass=  -0.544E-26a.u.
   SCALEE = 1.0000    scale energy and forces
   NPACO  =    256;   APACO  = 16.0  distance and # of slots for P.C.
   PSTRESS=    0.0 pullay stress

  Mass of Ions in am
   POMASS =   7.01 47.88 16.00 19.00
  Ionic Valenz
   ZVAL   =   3.00 10.00  6.00  7.00
  Atomic Wigner-Seitz radii
   RWIGS  =  -1.00 -1.00 -1.00 -1.00
  virtual crystal weights 
   VCA    =   1.00  1.00  1.00  1.00
   NELECT =    1923.0000    total number of electrons
   NUPDOWN=       1.0000    fix difference up-down

 DOS related values:
   EMIN   =  10.00;   EMAX   =-10.00  energy-range for DOS
   EFERMI =   0.00
   ISMEAR =     0;   SIGMA  =   0.01  broadening in eV -4-tet -1-fermi 0-gaus

 Electronic relaxation 2 (details)
   IALGO  =     38    algorithm
   LDIAG  =      T    sub-space diagonalisation (order eigenvalues)
   LSUBROT=      F    optimize rotation matrix (better conditioning)
   TURBO    =      0    0=normal 1=particle mesh
   IRESTART =      0    0=no restart 2=restart with 2 vectors
   NREBOOT  =      0    no. of reboots
   NMIN     =      0    reboot dimension
   EREF     =   0.00    reference energy to select bands
   IMIX   =      4    mixing-type and parameters
     AMIX     =   0.40;   BMIX     =  1.00
     AMIX_MAG =   1.60;   BMIX_MAG =  1.00
     AMIN     =   0.10
     WC   =   100.;   INIMIX=   1;  MIXPRE=   1;  MAXMIX= -45

 Intra band minimization:
   WEIMIN = 0.0010     energy-eigenvalue tresh-hold
   EBREAK =  0.21E-09  absolut break condition
   DEPER  =   0.30     relativ break condition  

   TIME   =   0.40     timestep for ELM

  volume/ion in A,a.u.               =      14.28        96.39
  Fermi-wavevector in a.u.,A,eV,Ry     =   1.319690  2.493853 23.695660  1.741582
  Thomas-Fermi vector in A             =   2.449570
 
 Write flags
   LWAVE        =      T    write WAVECAR
   LDOWNSAMPLE  =      F    k-point downsampling of WAVECAR
   LCHARG       =      T    write CHGCAR
   LVTOT        =      F    write LOCPOT, total local potential
   LVHAR        =      F    write LOCPOT, Hartree potential only
   LELF         =      F    write electronic localiz. function (ELF)
   LORBIT       =     11    0 simple, 1 ext, 2 COOP (PROOUT), +10 PAW based schemes


 Dipole corrections
   LMONO  =      F    monopole corrections only (constant potential shift)
   LDIPOL =      F    correct potential (dipole corrections)
   IDIPOL =      0    1-x, 2-y, 3-z, 4-all directions 
   EPSILON=  1.0000000 bulk dielectric constant

 LDA+U is selected, type is set to LDAUTYPE =  2
   angular momentum for each species LDAUL =    -1    2   -1   -1
   U (eV)           for each species LDAUU =   0.0  4.2  0.0  0.0
   J (eV)           for each species LDAUJ =   0.0  0.0  0.0  0.0
 Exchange correlation treatment:
   GGA     =    PS    GGA type
   LEXCH   =    14    internal setting for exchange type
   VOSKOWN=      0    Vosko Wilk Nusair interpolation
   LHFCALC =     F    Hartree Fock is set to
   LHFONE  =     F    Hartree Fock one center treatment
   AEXX    =    0.0000 exact exchange contribution

 Linear response parameters
   LEPSILON=     F    determine dielectric tensor
   LRPA    =     F    only Hartree local field effects (RPA)
   LNABLA  =     F    use nabla operator in PAW spheres
   LVEL    =     F    velocity operator in full k-point grid
   LINTERFAST=   F  fast interpolation
   KINTER  =     0    interpolate to denser k-point grid
   CSHIFT  =0.1000    complex shift for real part using Kramers Kronig
   OMEGAMAX=  -1.0    maximum frequency
   DEG_THRESHOLD= 0.2000000E-02 threshold for treating states as degnerate
   RTIME   =   -0.100 relaxation time in fs
  (WPLASMAI=    0.000 imaginary part of plasma frequency in eV, 0.658/RTIME)
   DFIELD  = 0.0000000 0.0000000 0.0000000 field for delta impulse in time
 
 Orbital magnetization related:
   ORBITALMAG=     F  switch on orbital magnetization
   LCHIMAG   =     F  perturbation theory with respect to B field
   DQ        =  0.001000  dq finite difference perturbation B field
   LLRAUG    =     F  two centre corrections for induced B field



--------------------------------------------------------------------------------------------------------


 quasi-Newton-method for relaxation of ions
 charge density and potential will be updated during run
 spin polarized calculation
 Variant of blocked Davidson
 Davidson routine will perform the subspace rotation
 perform sub-space diagonalisation
    after iterative eigenvector-optimisation
 modified Broyden-mixing scheme, WC =      100.0
 initial mixing is a Kerker type mixing with AMIX =  0.4000 and BMIX =      1.0000
 Hartree-type preconditioning will be used
 using additional bands          202
 real space projection scheme for non local part
 use partial core corrections
 calculate Harris-corrections to forces 
   (improved forces if not selfconsistent)
 use gradient corrections 
 use of overlap-Matrix (Vanderbilt PP)
 Gauss-broadening in eV      SIGMA  =   0.01


--------------------------------------------------------------------------------------------------------


  energy-cutoff  :      500.00
  volume of cell :     3671.03
      direct lattice vectors                 reciprocal lattice vectors
    15.426331000  0.000000000  0.000000000     0.064824228  0.000000000  0.000000000
     0.000000000 15.426331000  0.000000000     0.000000000  0.064824228  0.000000000
     0.000000000  0.000000000 15.426331000     0.000000000  0.000000000  0.064824228

  length of vectors
    15.426331000 15.426331000 15.426331000     0.064824228  0.064824228  0.064824228


 
 old parameters found on file WAVECAR:
  energy-cutoff  :      500.00
  volume of cell :     3671.03
      direct lattice vectors                 reciprocal lattice vectors
    15.426331000  0.000000000  0.000000000     0.064824228  0.000000000  0.000000000
     0.000000000 15.426331000  0.000000000     0.000000000  0.064824228  0.000000000
     0.000000000  0.000000000 15.426331000     0.000000000  0.000000000  0.064824228

  length of vectors

 
 k-points in units of 2pi/SCALE and weight: Title                                   
   0.01620606  0.01620606  0.01620606       0.250
  -0.01620606  0.01620606  0.01620606       0.250
   0.01620606 -0.01620606  0.01620606       0.250
  -0.01620606 -0.01620606  0.01620606       0.250
 
 k-points in reciprocal lattice and weights: Title                                   
   0.25000000  0.25000000  0.25000000       0.250
  -0.25000000  0.25000000  0.25000000       0.250
   0.25000000 -0.25000000  0.25000000       0.250
  -0.25000000 -0.25000000  0.25000000       0.250
 
 position of ions in fractional coordinates (direct lattice) 
   0.08946276  0.87066238  0.36244988
   0.99485369  0.99649839  0.99509409
   0.00120196  0.99649289  0.49716002
   0.00590313  0.49596288  0.99680536
   0.99395119  0.50276265  0.50722095
   0.49404180  0.99407293  0.00037471
   0.49943383  0.00794695  0.49922645
   0.50428927  0.49537038  0.99622062
   0.49188529  0.49770264  0.49533111
   0.00447978  0.00466543  0.25710905
   0.00111543  0.00868936  0.75773945
   0.99309054  0.49426462  0.25174647
   0.99282248  0.49900756  0.74156170
   0.50602831  0.00812974  0.25102419
   0.49280190  0.00521131  0.75176963
   0.49269046  0.49717619  0.25741135
   0.50097026  0.50410760  0.75862788
   0.99561265  0.25788674  0.00082579
   0.99809767  0.24926198  0.49143558
   0.99870178  0.75906899  0.00309633
   0.00084342  0.76054880  0.50385148
   0.49520340  0.25808708  0.00155693
   0.50822094  0.24442684  0.49845523
   0.50729458  0.75631631  0.99917837
   0.50811076  0.75102959  0.50870738
   0.99871308  0.25827197  0.25611987
   0.00659080  0.24278386  0.74662902
   0.00620759  0.74815439  0.24060895
   0.99384885  0.75244118  0.74122701
   0.50871097  0.24248757  0.25198457
   0.50690436  0.24315083  0.75052630
   0.50634476  0.75191989  0.25254119
   0.50244034  0.74193808  0.74377800
   0.25571666  0.99812361  0.00667127
   0.24855752  0.99347259  0.50695562
   0.24379249  0.50779671  0.99807129
   0.25368869  0.49297607  0.50666982
   0.75704842  0.00053957  0.99447856
   0.75294951  0.00654979  0.49465854
   0.74186463  0.50069046  0.00470440
   0.75587760  0.49689478  0.50509746
   0.24325370  0.00025939  0.24442103
   0.25726742  0.99742040  0.74475827
   0.25552958  0.49253643  0.25224030
   0.24699395  0.50574490  0.74102931
   0.74408766  0.99998018  0.25611007
   0.74852780  0.00687895  0.75597339
   0.75569690  0.49955010  0.24237878
   0.75733656  0.49823872  0.74225427
   0.25734824  0.25143622  0.00621625
   0.25219510  0.25646242  0.50540077
   0.25249336  0.74207856  0.99456104
   0.25135881  0.75474425  0.49434175
   0.75724891  0.25146242  0.00711798
   0.74463287  0.24174724  0.49749939
   0.74217945  0.74926429  0.99329737
   0.74282457  0.75096057  0.49337146
   0.25157781  0.25734745  0.24400652
   0.24391770  0.25166681  0.74388126
   0.24329402  0.74848758  0.25744272
   0.24880306  0.74135474  0.75747470
   0.74221842  0.25190145  0.24210577
   0.74431349  0.24238666  0.75057460
   0.74521270  0.75030401  0.25662095
   0.75853611  0.75073978  0.75598405
   0.00833313  0.49516334  0.62448879
   0.99411689  0.01102328  0.37244057
   0.99683245  0.00962649  0.87386513
   0.49943197  0.49078282  0.37513494
   0.49403869  0.49519675  0.87493343
   0.00595604  0.75248203  0.12484384
   0.00563558  0.75853537  0.62409731
   0.50602367  0.74987143  0.62468997
   0.99242315  0.24125878  0.37635612
   0.25008449  0.00093230  0.12589454
   0.25109574  0.99958309  0.62569797
   0.23862034  0.49283649  0.62592998
   0.75043849  0.49047232  0.12543174
   0.74567901  0.49277655  0.62394074
   0.75415939  0.00132883  0.37541764
   0.74883323  0.00038801  0.87376100
   0.24486024  0.25093730  0.12604393
   0.25011051  0.25098394  0.62513745
   0.74140303  0.26078831  0.12605837
   0.25812087  0.74463709  0.37529977
   0.25646498  0.74963109  0.87600633
   0.75654618  0.74995951  0.37344577
   0.75305122  0.75087435  0.87535774
   0.12460337  0.50519150  0.99449751
   0.62580126  0.50905656  0.99816430
   0.12554776  0.98542615  0.25998677
   0.62444238  0.99526020  0.25301715
   0.62491956  0.24365400  0.49233797
   0.62455377  0.74052035  0.99876717
   0.62513803  0.74618073  0.49158217
   0.12465896  0.25183598  0.75132775
   0.12424101  0.76802286  0.26407672
   0.62560228  0.25234452  0.26302674
   0.62558092  0.25309196  0.74952367
   0.62260347  0.75814330  0.25478266
   0.37562122  0.99833810  0.99607048
   0.37528560  0.49441871  0.50431908
   0.87298656  0.00083582  0.00365421
   0.87546468  0.49194826  0.49904697
   0.37597366  0.99687242  0.75392456
   0.37370833  0.50320715  0.24861589
   0.87560034  0.50508094  0.25191406
   0.87526259  0.50785218  0.74571219
   0.37591896  0.24950490  0.00531004
   0.87429214  0.25013304  0.00623616
   0.87522472  0.74441375  0.74510023
   0.49548204  0.12249170  0.49206529
   0.99710881  0.12629298  0.73721507
   0.50151070  0.12508940  0.26505874
   0.50169113  0.12380394  0.75033189
   0.50191641  0.62525494  0.75247506
   0.00164200  0.37549389  0.99768246
   0.00276751  0.87513806  0.99494871
   0.02418694  0.87062305  0.47749273
   0.50450875  0.37407117  0.00925399
   0.50556287  0.87514804  0.00631462
   0.99933093  0.37437422  0.25394995
   0.25680803  0.62504827  0.00526211
   0.75822499  0.12534380  0.50569328
   0.24796127  0.62446493  0.74759799
   0.75123953  0.12501119  0.74295435
   0.24328117  0.37244724  0.49166367
   0.23640530  0.87455797  0.49527659
   0.24916689  0.37439289  0.25837481
   0.00439146  0.99576436  0.12645943
   0.00744848  0.98814939  0.62604941
   0.00082185  0.50224958  0.12489966
   0.49785432  0.00982707  0.12667004
   0.50090021  0.99834742  0.62297716
   0.50276236  0.50897237  0.12762349
   0.50752468  0.50245459  0.62463562
   0.00324535  0.50503574  0.37584802
   0.99507921  0.50518566  0.87252534
   0.49740893  0.98632260  0.37655731
   0.51132865  0.99689539  0.87524664
   0.00862411  0.25315241  0.12724943
   0.00194364  0.26524742  0.62127638
   0.51030724  0.23688156  0.12712263
   0.49896767  0.24476847  0.62279658
   0.50042127  0.74348347  0.12742301
   0.99416144  0.24400871  0.87399302
   0.99245261  0.74099267  0.37324043
   0.99757323  0.74469856  0.87390246
   0.48960432  0.26491923  0.37572644
   0.49814357  0.25445443  0.87477460
   0.48859099  0.75706051  0.37570566
   0.49328572  0.75485056  0.87434317
   0.24436459  0.49262632  0.12518390
   0.74579420  0.00108581  0.12645721
   0.74271301  0.99520300  0.62326218
   0.25746383  0.00114485  0.37588277
   0.24590832  0.99644220  0.87495809
   0.24768911  0.51282685  0.37550357
   0.25957353  0.50022414  0.87393383
   0.74650304  0.50749519  0.37443600
   0.75278525  0.50685748  0.87398825
   0.24478698  0.75551047  0.12669146
   0.24599098  0.75357986  0.62540562
   0.74908658  0.26214160  0.62278410
   0.74855614  0.75036364  0.12586143
   0.74482001  0.74978934  0.62387640
   0.25462576  0.24085785  0.37469710
   0.25355817  0.24887987  0.87543656
   0.76370338  0.24247381  0.37361435
   0.75399273  0.24364003  0.87585762
   0.12583266  0.00325404  0.99906285
   0.12915442  0.02106743  0.49344705
   0.12355055  0.50882458  0.49248521
   0.62502130  0.00351991  0.00487502
   0.62388700  0.00119886  0.49766936
   0.62538994  0.50409228  0.49741288
   0.12679204  0.00045197  0.75139088
   0.12401989  0.50015730  0.24988691
   0.12333257  0.49370710  0.76317136
   0.62369465  0.99472153  0.74472955
   0.62517154  0.49492984  0.25030079
   0.62649694  0.49273817  0.75559447
   0.12506754  0.24837160  0.99374406
   0.12328370  0.23647849  0.49686113
   0.12522001  0.74370215  0.99519695
   0.12606600  0.73151322  0.49195204
   0.62613066  0.24714171  0.99297001
   0.12439180  0.24539919  0.25871816
   0.12397742  0.75380012  0.75588773
   0.62653931  0.75466514  0.75504248
   0.37716278  0.98956210  0.50085149
   0.37349438  0.49418594  0.00810758
   0.87212903  0.98367100  0.51157764
   0.87468799  0.49665064  0.99924233
   0.37684798  0.00231882  0.25207952
   0.37468410  0.49842179  0.74060490
   0.87379490  0.00396865  0.24167941
   0.87437747  0.99434767  0.74028671
   0.37899154  0.25465279  0.50073819
   0.37630942  0.75823287  0.00823895
   0.37711011  0.75715412  0.50651823
   0.87417835  0.26400956  0.50583368
   0.87272259  0.75582232  0.00447089
   0.87351485  0.76158429  0.50519096
   0.37796565  0.24906463  0.24536936
   0.37623568  0.24933039  0.75007160
   0.37624566  0.74279411  0.24421586
   0.37535943  0.75447765  0.74442465
   0.87409082  0.24745284  0.24240363
   0.87440176  0.25402075  0.74497855
   0.87466544  0.74297420  0.24411047
   0.00242929  0.12725561  0.00754294
   0.98410483  0.12955244  0.51603017
   0.99243028  0.62572004  0.00014443
   0.99029661  0.62690329  0.50174359
   0.50269141  0.12449406  0.99518534
   0.48827360  0.62732470  0.99792717
   0.49525578  0.62597390  0.49405383
   0.00225034  0.12834408  0.23844748
   0.00878141  0.62361190  0.24818793
   0.01071795  0.62532403  0.74702843
   0.50574711  0.62627822  0.25836686
   0.01138570  0.37462190  0.49070633
   0.50595063  0.37161291  0.50937207
   0.50431992  0.87754584  0.50132533
   0.99534795  0.37469204  0.75715760
   0.99003409  0.87460688  0.26399387
   0.99982782  0.87651417  0.75789794
   0.49741089  0.37174592  0.23834879
   0.49634501  0.37327120  0.74259203
   0.49108713  0.87587430  0.24345747
   0.50212992  0.87516474  0.75023697
   0.24773183  0.12463862  0.99571099
   0.26352059  0.12379628  0.49935884
   0.25760246  0.62571246  0.50763924
   0.74560180  0.12628695  0.00519593
   0.76260757  0.62555473  0.00533673
   0.75715208  0.62538804  0.50301231
   0.24861831  0.12515090  0.25234332
   0.25107003  0.12427730  0.75504582
   0.24086800  0.62459488  0.24063132
   0.75127287  0.12606078  0.24569766
   0.74158165  0.62542978  0.24475182
   0.73926464  0.62500944  0.74587753
   0.24727728  0.37597201  0.99591710
   0.24372601  0.87345664  0.00165025
   0.74587216  0.37512931  0.98612913
   0.74352829  0.37235918  0.48779572
   0.74360169  0.87488996  0.00563582
   0.74211527  0.87610324  0.50112470
   0.25432559  0.37585325  0.75847621
   0.26446638  0.87458469  0.25407776
   0.24690665  0.87310415  0.74984400
   0.75546704  0.37456097  0.26522048
   0.75505881  0.37395300  0.75891741
   0.75972503  0.87506446  0.24549939
   0.75117259  0.87538699  0.74546330
 
 position of ions in cartesian coordinates  (Angst):
   1.38008216 13.43112600  5.59127175
  15.34694225 15.37231401 15.35065074
   0.01854183 15.37222909  7.66935510
   0.09106358  7.65088749 15.37704950
  15.33301999  7.75578299  7.82455825
   7.62125236 15.33489806  0.00578036
   7.70443157  0.12259227  7.70123240
   7.77933318  7.64174741 15.36802900
   7.58798534  7.67772565  7.64114168
   0.06910654  0.07197044  3.96624938
   0.01720695  0.13404490 11.68913952
  15.31974339  7.62468965  3.88352430
  15.31560817  7.69785585 11.43957622
   7.80616027  0.12541213  3.87238226
   7.60212527  0.08039141 11.59704720
   7.60040618  7.66960447  3.97091270
   7.72813298  7.77653076 11.70284486
  15.35865033  3.97824617  0.01273886
  15.39698504  3.84519788  7.58104792
  15.40630422 11.70964954  0.04776503
   0.01301092 11.73247757  7.77257974
   7.63917161  3.98133671  0.02401775
   7.83998444  3.77060927  7.68933538
   7.82569413 11.66718575 15.41365631
   7.83828475 11.58563102  7.84748844
  15.40647850  3.98418890  3.95098990
   0.10167185  3.74526417 11.51774642
   0.09576030 11.54127719  3.71171323
  15.33144139 11.60740666 11.43441315
   7.84754385  3.74069349  3.88719735
   7.81967451  3.75092517 11.57786712
   7.81104180 11.59936512  3.89578394
   7.75081102 11.44538245 11.47376558
   3.94476979 15.39738518  0.10291319
   3.83433052 15.32563708  7.82046527
   3.76082372  7.83344018 15.39657804
   3.91348567  7.60481206  7.81605629
  11.67847951  0.00832356 15.34115548
  11.61524837  0.10103925  7.63076640
  11.44424930  7.72381681  0.07257159
  11.66041803  7.66526328  7.79180068
   3.75251207  0.00400146  3.77051972
   3.96869233 15.38653725 11.48888763
   3.94188385  7.59803006  3.89114241
   3.81021039  7.80178826 11.43136334
  11.47854256 15.42602530  3.95083876
  11.54703754  0.10611689 11.66189570
  11.65763050  7.70622517  3.73901521
  11.68292443  7.68599540 11.45026013
   3.96993919  3.87873830  0.09589393
   3.89044514  3.95627420  7.79647960
   3.89504613 11.44754945 15.34242779
   3.87754426 11.64293456  7.62587949
  11.68157228  3.87914252  0.10980432
  11.48695313  3.72927301  7.67459023
  11.44910579 11.55839888 15.32293396
  11.45905772 11.58456635  7.61091149
   3.88092251  3.96992692  3.76412536
   3.76275511  3.88229549 11.47535858
   3.75313408 11.54641716  3.97139654
   3.83811836 11.43638357 11.68505538
  11.44970707  3.88591507  3.73480374
  11.48202629  3.73913684 11.57861214
  11.49589780 11.57443808  3.95871976
  11.70142910 11.58116032 11.66206017
   0.12854957  7.63855352  9.63357084
  15.33557624  0.17004882  5.74539156
  15.37746734  0.14850140 13.48053268
   7.70440286  7.57097828  5.78695580
   7.62120441  7.63906895 13.49701268
   0.09187991 11.60803692  1.92588237
   0.08693636 11.70141773  9.62753176
   7.80608867 11.56776489  9.63667426
  15.30944797  3.72173785  5.80579407
   3.85788614  0.01438192  1.94209088
   3.87348607 15.41989956  9.65222403
   3.68103636  7.60265878  9.65580305
  11.57651249  7.56618829  1.93495158
  11.50309127  7.60173419  9.62511642
  11.63391236  0.02049903  5.79131676
  11.55174924  0.00598563 13.47892633
   3.77729519  3.87104189  1.94439535
   3.85828750  3.87176132  9.64357725
  11.43712859  4.02300680  1.94461820
   3.98185799 11.48701818  5.78949847
   3.95631365 11.56405726 13.51356359
  11.67073174 11.56912356  5.76089806
  11.61681742 11.58323619 13.50355818
   1.92217276  7.79325128 15.34144773
   9.65381743  7.85287504 15.39801291
   1.93674133 15.20151004  4.01064204
   9.63285490 15.35321323  3.90312629
   9.64021601  3.75868729  7.59496854
   9.63457317 11.42351200 15.40731301
   9.64358616 11.51083089  7.58330928
   1.92303044  3.88490522 11.59023051
   1.91658299 11.84777487  4.07373492
   9.65074790  3.89275007  4.05753760
   9.65041836  3.90428032 11.56240022
   9.60448721 11.69536956  3.93036161
   5.79445731 15.40069403 15.36571296
   5.78927982  7.62706663  7.77979308
  13.46697957  0.01289366  0.05637109
  13.50520800  7.58895673  7.69846377
   5.79989412 15.37808392 11.63028982
   5.76494835  7.76264005  3.83523101
  13.50730068  7.79154572  3.88610975
  13.50209050  7.83429579 11.50360302
   5.79905026  3.84894512  0.08191444
  13.48711993  3.85863501  0.09620114
  13.50150630 11.48357294 11.49416282
   7.64346989  1.88959754  7.59076204
  15.38173049  1.94823732 11.37252376
   7.73647012  1.92967046  4.08888382
   7.73925337  1.90984056 11.57486811
   7.74272874  9.64538960 11.60792942
   0.02533007  5.79249309 15.39057979
   0.04269251 13.50016946 15.34840808
   0.37311573 13.43051940  7.36596095
   7.78271891  5.77054576  0.14275515
   7.79898013 13.50032335  0.09741144
  15.41600971  5.77522062  3.91751600
   3.96160567  9.64220144  0.08117499
  11.69662964  1.93359497  7.80099200
   3.82513266  9.63320278 11.53269404
  11.58886967  1.92846398 11.46105978
   3.75293591  5.74549438  7.58456652
   3.64686640 13.49122070  7.64030062
   3.84373090  5.77550861  3.98577530
   0.06774415 15.36099065  1.95080506
   0.11490266 15.24351958  9.65764542
   0.01267815  7.74786824  1.92674355
   7.68006551  0.15159561  1.95405403
   7.72705240 15.40083777  9.61025187
   7.75577857  7.85157633  1.96876226
   7.82924378  7.75103084  9.63583588
   0.05006380  7.79084843  5.79795601
  15.35042123  7.79316127 13.45986468
   7.67319487 15.21533887  5.80889777
   7.88792506 15.37843831 13.50184440
   0.13303832  3.90521292  1.96299188
   0.02998328  4.09179456  9.58401508
   7.87216845  3.65421337  1.96103582
   7.69724046  3.77587941  9.60746611
   7.71966420 11.46922208  1.96566948
  15.33626341  3.76415908 13.48250568
  15.30990244 11.43079825  5.75773046
  15.38889480 11.48796644 13.48110854
   7.55279836  4.08673171  5.79608047
   7.68452763  3.92529829 13.49456255
   7.53716636 11.67866599  5.79575990
   7.60958887 11.64457462 13.48790719
   3.76964908  7.59941673  1.93112823
  11.50486814  0.01674999  1.95077078
  11.45733665 15.35233083  9.61464875
   3.97172228  0.01766081  5.79849202
   3.79346319 15.37144716 13.49739303
   3.82093427  7.91103670  5.79264229
   4.00426719  7.71662309 13.48159248
  11.51580298  7.82878881  5.77617364
  11.61271450  7.81895127 13.48243198
   3.77616491 11.65475463  1.95438435
   3.79473830 11.62497237  9.64771412
  11.55565747  4.04388301  9.60727367
  11.54747472 11.57535783  1.94158012
  11.48984008 11.56649852  9.62412381
   3.92794124  3.71555284  5.78020152
   3.91147223  3.83930320 13.50477416
  11.78114119  3.74048121  5.76349858
  11.63134137  3.75847178 13.51126953
   1.94113619  0.05019794 15.41187422
   1.99237880  0.32499317  7.61207746
   1.90593173  7.84929637  7.59723985
   9.64178553  0.05429930  0.07520372
   9.62428738  0.01849394  7.67721230
   9.64747228  7.77629444  7.67325579
   1.95593591  0.00697231 11.59120440
   1.91317185  7.71559203  3.85483822
   1.90256901  7.61608922 11.77293404
   9.62132018 15.34490351 11.48844462
   9.64410306  7.63495157  3.86122289
   9.66454915  7.60114203 11.65605045
   1.92933324  3.83146245 15.32982485
   1.90181520  3.64799540  7.66474420
   1.93168529 11.47259560 15.35223751
   1.94473586 11.28456506  7.58901496
   9.65889883  3.81248975 15.31788411
   1.91890909  3.78560908  3.99107203
   1.91251679 11.62837013 11.66057427
   9.66520276 11.64171424 11.64753520
   5.81823792 15.26531256  7.72630091
   5.76164801  7.62347596  0.12507023
  13.45375103 15.17443444  7.89176603
  13.49322644  7.66149720 15.41464288
   5.81338167  0.03577086  3.88866218
   5.78000092  7.68881948 11.42481633
  13.47944941  0.06122165  3.72822659
  13.48843623 15.33913623 11.41990789
   5.84644890  3.92835816  7.72455304
   5.80507370 11.69675123  0.12709678
   5.81742541 11.68011008  7.81371782
  13.48536465  4.07269884  7.80315783
  13.46290751 11.65956523  0.06896944
  13.47512925 11.74845136  7.79324299
   5.83062329  3.84215341  3.78514898
   5.80393610  3.84625313 11.57085279
   5.80409004 11.45858786  3.76735475
   5.79041883 11.63882199 11.48374101
  13.48401438  3.81728946  3.73939855
  13.48881092  3.91860813 11.49228570
  13.49287857 11.46136590  3.76572895
   0.03747507  1.96308713  0.11635991
  15.18112685  1.99851887  7.96045222
  15.30955799  9.65256442  0.00222805
  15.27664323  9.67081764  7.74006270
   7.75468404  1.92048661 15.35205840
   7.53227023  9.67731844 15.39435489
   7.63997957  9.65648064  7.62143797
   0.03471452  1.97987827  3.67836977
   0.13546490  9.62004366  3.82862914
   0.16533862  9.64645543 11.52390787
   7.80182228  9.66117516  3.98565273
   0.17563961  5.77904144  7.56979832
   7.80496190  5.73262379  7.85774216
   7.77980603 13.53731254  7.73361052
  15.35456695  5.78012341 11.68016378
  15.27259357 13.49197516  4.07245679
  15.42367491 13.52139775 11.69158453
   7.67322502  5.73467561  3.67684740
   7.65678235  5.75820503 11.45547053
   7.57567262 13.51152689  3.75565546
   7.74602236 13.50058092 11.57340379
   3.82159326  1.92271661 15.36016736
   4.06515581  1.90972242  7.70327473
   3.97386089  9.65244749  7.83101090
  11.50190012  1.94814432  0.08015412
  11.76423686  9.65001428  0.08232620
  11.68007868  9.64744295  7.75963432
   3.83526837  1.93061917  3.89273156
   3.87308937  1.91714275 11.64758674
   3.71570946  9.63520734  3.71205832
  11.58938403  1.94465526  3.79021336
  11.43988406  9.64808684  3.77562252
  11.40414106  9.64160243 11.50615370
   3.81458118  5.79986868 15.36334686
   3.75979804 13.47423128  0.02545736
  11.50607076  5.78686895 15.21235439
  11.46991358  5.74413596  7.52489818
  11.47104586 13.49634216  0.08694006
  11.44811582 13.51505863  7.73051557
   3.92331071  5.79803660 11.70050514
   4.07974587 13.49163293  3.91948765
   3.80886376 13.46879367 11.56734177
  11.65408455  5.77810146  4.09137890
  11.64778720  5.76872273 11.70731112
  11.71976982 13.49903395  3.78715480
  11.58783695 13.50400951 11.49976360
 


--------------------------------------------------------------------------------------------------------


 k-point  1 :   0.2500 0.2500 0.2500  plane waves:   93161
 k-point  2 :  -0.2500 0.2500 0.2500  plane waves:   93161
 k-point  3 :   0.2500-0.2500 0.2500  plane waves:   93161
 k-point  4 :  -0.2500-0.2500 0.2500  plane waves:   93161

 maximum and minimum number of plane-waves per node :     11686    11606

 maximum number of plane-waves:     93161
 maximum index in each direction: 
   IXMAX=   28   IYMAX=   28   IZMAX=   27
   IXMIN=  -28   IYMIN=  -28   IZMIN=  -28


 real space projection operators:
  total allocation   :     105586.65 KBytes
  max/ min on nodes  :      13248.50      13164.05


 parallel 3D FFT for wavefunctions:
    minimum data exchange during FFTs selected (reduces bandwidth)
 parallel 3D FFT for charge:
    minimum data exchange during FFTs selected (reduces bandwidth)


 total amount of memory used by VASP MPI-rank0   291492. kBytes
=======================================================================

   base      :      30000. kBytes
   nonlr-proj:      49457. kBytes
   fftplans  :      27976. kBytes
   grid      :      34041. kBytes
   one-center:       1026. kBytes
   wavefun   :     148992. kBytes
 
     INWAV:  cpu time   59.9984: real time   61.4649
 Broyden mixing: mesh for mixing (old mesh)
   NGX = 57   NGY = 57   NGZ = 57
  (NGX  =240   NGY  =240   NGZ  =240)
  gives a total of 185193 points

 charge density for first step will be calculated from the start-wavefunctions


--------------------------------------------------------------------------------------------------------


 Maximum index for non-local projection operator          969
 Maximum index for augmentation-charges         3295 (set IRDMAX)


--------------------------------------------------------------------------------------------------------


 initial charge from wavefunction
 First call to EWALD:  gamma=   0.115
 Maximum number of real-space cells 3x 3x 3
 Maximum number of reciprocal cells 3x 3x 3

    FEWALD:  cpu time    0.0317: real time    0.0356


--------------------------------------- Iteration      1(   1)  ---------------------------------------


    POTLOK:  cpu time    0.2906: real time    0.3116
    SETDIJ:  cpu time    1.4148: real time    1.4485
     EDDAV:  cpu time   85.8752: real time   86.6953
       DOS:  cpu time    0.0020: real time    0.0020
    CHARGE:  cpu time    5.2175: real time    5.2203
    MIXING:  cpu time    0.0543: real time    0.0544
    --------------------------------------------
      LOOP:  cpu time   92.8547: real time   93.7321

 eigenvalue-minimisations  : 12768
 total energy-change (2. order) :-0.1757778E+04  (-0.1997036E-06)
 number of electron    1923.0000023 magnetization       1.0000000
 augmentation part      496.9638293 magnetization       0.5828668

 Broyden mixing:
  rms(total) = 0.36068E-03    rms(broyden)= 0.32922E-03
  rms(prec ) = 0.34438E-03
  weight for this iteration     100.00

 Free energy of the ion-electron system (eV)
  ---------------------------------------------------
  alpha Z        PSCENC =      6118.73324990
  Ewald energy   TEWEN  =   -103355.00928916
  -Hartree energ DENC   =    -65270.07523336
  -exchange      EXHF   =         0.00000000
  -V(xc)+E(xc)   XCENC  =      8970.16853814
  PAW double counting   =    197939.60045504  -198945.72353412
  entropy T*S    EENTRO =        -0.00000000
  eigenvalues    EBANDS =    -25792.72481806
  atomic energy  EATOM  =    178577.25249613
  Solvation  Ediel_sol  =         0.00000000
  ---------------------------------------------------
  free energy    TOTEN  =     -1757.77813550 eV

  energy without entropy =    -1757.77813550  energy(sigma->0) =    -1757.77813550


--------------------------------------------------------------------------------------------------------




--------------------------------------- Iteration      1(   2)  ---------------------------------------


    POTLOK:  cpu time    0.4090: real time    0.4116
    SETDIJ:  cpu time    1.4710: real time    1.4719
     EDDAV:  cpu time   86.2882: real time   86.8003
       DOS:  cpu time    0.0019: real time    0.0019
    --------------------------------------------
      LOOP:  cpu time   88.1701: real time   88.6856

 eigenvalue-minimisations  : 12828
 total energy-change (2. order) :-0.3281457E-06  (-0.1987840E-06)
 number of electron    1923.0000023 magnetization       1.0000000
 augmentation part      496.9638293 magnetization       0.5828668

 Free energy of the ion-electron system (eV)
  ---------------------------------------------------
  alpha Z        PSCENC =      6118.73324990
  Ewald energy   TEWEN  =   -103355.00928916
  -Hartree energ DENC   =    -65270.08330539
  -exchange      EXHF   =         0.00000000
  -V(xc)+E(xc)   XCENC  =      8970.16866274
  PAW double counting   =    197939.47102317  -198945.59367839
  entropy T*S    EENTRO =        -0.00000000
  eigenvalues    EBANDS =    -25792.71729483
  atomic energy  EATOM  =    178577.25249613
  Solvation  Ediel_sol  =         0.00000000
  ---------------------------------------------------
  free energy    TOTEN  =     -1757.77813583 eV

  energy without entropy =    -1757.77813583  energy(sigma->0) =    -1757.77813583


--------------------------------------------------------------------------------------------------------




 average (electrostatic) potential at core
  the test charge radii are     0.7079  1.0397  0.7215  0.7167
  (the norm of the test charge is              1.0000)
       1 -63.1943       2 -58.4539       3 -56.7525       4 -58.7671       5 -58.8170
       6 -58.8028       7 -59.7426       8 -58.4616       9 -58.6802      10 -58.6687
      11 -58.5861      12 -58.9034      13 -58.8001      14 -59.0896      15 -58.8836
      16 -58.7575      17 -58.6753      18 -58.8288      19 -59.4731      20 -58.6663
      21 -58.4407      22 -58.6271      23 -59.4101      24 -58.8273      25 -58.8427
      26 -59.0964      27 -58.7017      28 -58.7598      29 -58.7512      30 -59.1214
      31 -58.9518      32 -59.4914      33 -58.7785      34 -58.7960      35 -58.8112
      36 -58.6845      37 -58.4148      38 -58.6890      39 -59.0654      40 -58.6899
      41 -58.8679      42 -58.7774      43 -58.8618      44 -58.7391      45 -58.5960
      46 -59.1010      47 -58.8092      48 -58.8375      49 -58.8257      50 -58.7414
      51 -58.6643      52 -58.6762      53 -58.8625      54 -58.8962      55 -59.1921
      56 -58.8257      57 -59.0275      58 -58.7517      59 -58.7413      60 -58.8831
      61 -58.7026      62 -58.9998      63 -58.8919      64 -59.1410      65 -58.8411
      66 -74.1131      67 -73.6861      68 -73.8108      69 -73.8664      70 -73.8021
      71 -73.9920      72 -73.8996      73 -74.2198      74 -74.5274      75 -73.9497
      76 -74.0173      77 -73.9056      78 -73.9655      79 -73.9743      80 -74.2175
      81 -74.0057      82 -73.9228      83 -73.8855      84 -74.3345      85 -73.9875
      86 -73.8966      87 -74.2103      88 -74.0538      89 -73.8628      90 -73.8120
      91 -73.9423      92 -74.2320      93 -74.5825      94 -74.1371      95 -74.2379
      96 -73.9446      97 -74.0105      98 -74.4036      99 -74.0620     100 -74.3780
     101 -73.9352     102 -73.8074     103 -73.8374     104 -73.9427     105 -74.2012
     106 -73.9389     107 -74.0384     108 -74.0993     109 -73.8939     110 -74.0232
     111 -74.1230     112 -74.8223     113 -74.0226     114 -74.4354     115 -74.0791
     116 -73.9655     117 -73.9134     118 -73.8092     119 -73.7003     120 -73.8206
     121 -73.9606     122 -74.3452     123 -74.0054     124 -74.4306     125 -74.0112
     126 -74.1714     127 -73.8081     128 -73.9571     129 -74.0885     130 -78.3040
     131 -78.4135     132 -79.1219     133 -79.6016     134 -79.8423     135 -78.2992
     136 -78.2687     137 -78.9753     138 -78.9157     139 -79.8796     140 -79.5153
     141 -79.0780     142 -79.0514     143 -79.5221     144 -79.6581     145 -79.3743
     146 -79.1264     147 -78.4191     148 -78.3950     149 -79.7292     150 -79.4242
     151 -79.2388     152 -79.0703     153 -78.9984     154 -78.5337     155 -78.5316
     156 -78.4317     157 -78.4056     158 -78.8025     159 -78.7633     160 -78.3713
     161 -78.3896     162 -78.4053     163 -78.3859     164 -79.3466     165 -78.5307
     166 -78.5618     167 -78.3771     168 -78.3265     169 -79.2078     170 -79.0873
     171 -78.3209     172 -79.1717     173 -78.3370     174 -78.2850     175 -79.8019
     176 -78.2725     177 -78.9226     178 -78.4130     179 -78.8672     180 -78.9830
     181 -78.4324     182 -78.8546     183 -78.3727     184 -79.3865     185 -79.0363
     186 -79.0667     187 -78.3756     188 -79.2910     189 -78.9546     190 -78.9653
     191 -79.7685     192 -78.2858     193 -79.2788     194 -78.2147     195 -78.5437
     196 -79.0050     197 -78.5899     198 -79.0995     199 -79.1007     200 -78.9147
     201 -79.0403     202 -79.3660     203 -78.8788     204 -78.9128     205 -79.0964
     206 -78.4349     207 -78.5283     208 -79.1422     209 -79.2327     210 -78.4857
     211 -78.7009     212 -78.2948     213 -79.1831     214 -78.2726     215 -78.9080
     216 -78.3106     217 -78.3464     218 -79.2777     219 -79.1227     220 -79.1583
     221 -79.1140     222 -79.3690     223 -79.3427     224 -79.2339     225 -79.2570
     226 -78.9394     227 -79.3061     228 -78.9059     229 -79.1161     230 -78.4887
     231 -79.2987     232 -78.4613     233 -79.0266     234 -78.2938     235 -78.3165
     236 -79.3564     237 -79.3422     238 -79.2754     239 -78.9533     240 -79.0849
     241 -78.9673     242 -79.5976     243 -79.5549     244 -79.1881     245 -78.8331
     246 -78.8701     247 -79.3668     248 -79.1078     249 -79.3463     250 -79.1549
     251 -78.8792     252 -79.1487     253 -78.9181     254 -79.5668     255 -78.9883
     256 -79.5923     257 -79.0139
 
 
 
 E-fermi :  -0.6753     XC(G=0):  -9.0449     alpha+bet : -7.7421


 spin component 1

 k-point     1 :       0.2500    0.2500    0.2500
  band No.  band energies     occupation 
      1     -43.8580      1.00000
      2     -35.7712      1.00000
      3     -35.7488      1.00000
      4     -35.5758      1.00000
      5     -35.4673      1.00000
      6     -35.4565      1.00000
      7     -35.4508      1.00000
      8     -35.4476      1.00000
      9     -35.4460      1.00000
     10     -35.3092      1.00000
     11     -35.2985      1.00000
     12     -35.2679      1.00000
     13     -35.2565      1.00000
     14     -35.1979      1.00000
     15     -35.1898      1.00000
     16     -35.1692      1.00000
     17     -35.1501      1.00000
     18     -35.1274      1.00000
     19     -35.1092      1.00000
     20     -35.1044      1.00000
     21     -35.0990      1.00000
     22     -35.0687      1.00000
     23     -35.0576      1.00000
     24     -35.0479      1.00000
     25     -35.0469      1.00000
     26     -35.0128      1.00000
     27     -35.0092      1.00000
     28     -35.0067      1.00000
     29     -34.9868      1.00000
     30     -34.9778      1.00000
     31     -34.9735      1.00000
     32     -34.9644      1.00000
     33     -34.9630      1.00000
     34     -34.9600      1.00000
     35     -34.9584      1.00000
     36     -34.9440      1.00000
     37     -34.9433      1.00000
     38     -34.9262      1.00000
     39     -34.9070      1.00000
     40     -34.9053      1.00000
     41     -34.9042      1.00000
     42     -34.9018      1.00000
     43     -34.8943      1.00000
     44     -34.8911      1.00000
     45     -34.8888      1.00000
     46     -34.8837      1.00000
     47     -34.8816      1.00000
     48     -34.8812      1.00000
     49     -34.8796      1.00000
     50     -34.8787      1.00000
     51     -34.8750      1.00000
     52     -34.8674      1.00000
     53     -34.8581      1.00000
     54     -34.8569      1.00000
     55     -34.8518      1.00000
     56     -34.8494      1.00000
     57     -34.8383      1.00000
     58     -34.8368      1.00000
     59     -34.8366      1.00000
     60     -34.8340      1.00000
     61     -34.8301      1.00000
     62     -34.8244      1.00000
     63     -34.8121      1.00000
     64     -34.8094      1.00000
     65     -34.8021      1.00000
     66     -34.8019      1.00000
     67     -34.7996      1.00000
     68     -34.7913      1.00000
     69     -34.7909      1.00000
     70     -34.7879      1.00000
     71     -34.7810      1.00000
     72     -34.7786      1.00000
     73     -34.7776      1.00000
     74     -34.7743      1.00000
     75     -34.7648      1.00000
     76     -34.7563      1.00000
     77     -34.7532      1.00000
     78     -34.7471      1.00000
     79     -34.7468      1.00000
     80     -34.7462      1.00000
     81     -34.7435      1.00000
     82     -34.7428      1.00000
     83     -34.7422      1.00000
     84     -34.7411      1.00000
     85     -34.7365      1.00000
     86     -34.7332      1.00000
     87     -34.7301      1.00000
     88     -34.7286      1.00000
     89     -34.7269      1.00000
     90     -34.7255      1.00000
     91     -34.7249      1.00000
     92     -34.7245      1.00000
     93     -34.7244      1.00000
     94     -34.7234      1.00000
     95     -34.7188      1.00000
     96     -34.7186      1.00000
     97     -34.7146      1.00000
     98     -34.7132      1.00000
     99     -34.7108      1.00000
    100     -34.7090      1.00000
    101     -34.7062      1.00000
    102     -34.7052      1.00000
    103     -34.7029      1.00000
    104     -34.6975      1.00000
    105     -34.6926      1.00000
    106     -34.6922      1.00000
    107     -34.6871      1.00000
    108     -34.6865      1.00000
    109     -34.6859      1.00000
    110     -34.6804      1.00000
    111     -34.6773      1.00000
    112     -34.6769      1.00000
    113     -34.6755      1.00000
    114     -34.6728      1.00000
    115     -34.6725      1.00000
    116     -34.6684      1.00000
    117     -34.6668      1.00000
    118     -34.6610      1.00000
    119     -34.6605      1.00000
    120     -34.6602      1.00000
    121     -34.6576      1.00000
    122     -34.6540      1.00000
    123     -34.6493      1.00000
    124     -34.6489      1.00000
    125     -34.6458      1.00000
    126     -34.6430      1.00000
    127     -34.6429      1.00000
    128     -34.6415      1.00000
    129     -34.6339      1.00000
    130     -34.6330      1.00000
    131     -34.6309      1.00000
    132     -34.6301      1.00000
    133     -34.6296      1.00000
    134     -34.6266      1.00000
    135     -34.6248      1.00000
    136     -34.6209      1.00000
    137     -34.6187      1.00000
    138     -34.6125      1.00000
    139     -34.6088      1.00000
    140     -34.6074      1.00000
    141     -34.6072      1.00000
    142     -34.6067      1.00000
    143     -34.6036      1.00000
    144     -34.6025      1.00000
    145     -34.6005      1.00000
    146     -34.5999      1.00000
    147     -34.5903      1.00000
    148     -34.5894      1.00000
    149     -34.5862      1.00000
    150     -34.5845      1.00000
    151     -34.5832      1.00000
    152     -34.5709      1.00000
    153     -34.5620      1.00000
    154     -34.5618      1.00000
    155     -34.5588      1.00000
    156     -34.5548      1.00000
    157     -34.5512      1.00000
    158     -34.5465      1.00000
    159     -34.5428      1.00000
    160     -34.5424      1.00000
    161     -34.5314      1.00000
    162     -34.5289      1.00000
    163     -34.5239      1.00000
    164     -34.5216      1.00000
    165     -34.5191      1.00000
    166     -34.5142      1.00000
    167     -34.5074      1.00000
    168     -34.5058      1.00000
[...]
   81        1.574   3.461   0.000   5.034
   82        1.574   3.461   0.000   5.035
   83        1.574   3.461   0.000   5.035
   84        1.576   3.471   0.000   5.047
   85        1.575   3.462   0.000   5.037
   86        1.575   3.466   0.000   5.041
   87        1.576   3.462   0.000   5.038
   88        1.575   3.465   0.000   5.040
   89        1.575   3.462   0.000   5.037
   90        1.575   3.457   0.000   5.033
   91        1.569   3.464   0.000   5.033
   92        1.574   3.461   0.000   5.036
   93        1.576   3.470   0.000   5.047
   94        1.576   3.471   0.000   5.048
   95        1.576   3.474   0.000   5.050
   96        1.575   3.464   0.000   5.039
   97        1.568   3.469   0.000   5.037
   98        1.576   3.474   0.000   5.050
   99        1.575   3.464   0.000   5.039
  100        1.575   3.456   0.000   5.031
  101        1.574   3.459   0.000   5.033
  102        1.575   3.460   0.000   5.035
  103        1.576   3.460   0.000   5.035
  104        1.574   3.461   0.000   5.035
  105        1.577   3.473   0.000   5.049
  106        1.575   3.463   0.000   5.038
  107        1.575   3.462   0.000   5.037
  108        1.576   3.473   0.000   5.049
  109        1.575   3.463   0.000   5.037
  110        1.575   3.460   0.000   5.035
  111        1.576   3.472   0.000   5.049
  112        1.577   3.465   0.000   5.042
  113        1.576   3.471   0.000   5.047
  114        1.576   3.474   0.000   5.051
  115        1.574   3.465   0.000   5.040
  116        1.575   3.463   0.000   5.038
  117        1.575   3.462   0.000   5.037
  118        1.576   3.461   0.000   5.037
  119        1.569   3.478   0.000   5.047
  120        1.575   3.459   0.000   5.034
  121        1.575   3.463   0.000   5.037
  122        1.577   3.473   0.000   5.050
  123        1.577   3.474   0.000   5.051
  124        1.576   3.469   0.000   5.045
  125        1.576   3.475   0.000   5.051
  126        1.576   3.470   0.000   5.046
  127        1.575   3.458   0.000   5.032
  128        1.572   3.456   0.000   5.028
  129        1.576   3.471   0.000   5.047
  130        1.737   4.369   0.000   6.106
  131        1.736   4.376   0.000   6.113
  132        1.737   4.380   0.000   6.117
  133        1.738   4.387   0.000   6.126
  134        1.738   4.385   0.000   6.123
  135        1.737   4.368   0.000   6.105
  136        1.736   4.366   0.000   6.103
  137        1.738   4.379   0.000   6.118
  138        1.738   4.380   0.000   6.119
  139        1.740   4.387   0.000   6.126
  140        1.739   4.388   0.000   6.127
  141        1.738   4.379   0.000   6.117
  142        1.738   4.377   0.000   6.115
  143        1.738   4.385   0.000   6.123
  144        1.739   4.386   0.000   6.125
  145        1.738   4.381   0.000   6.120
  146        1.737   4.379   0.000   6.116
  147        1.737   4.371   0.000   6.107
  148        1.736   4.369   0.000   6.106
  149        1.739   4.383   0.000   6.123
  150        1.738   4.387   0.000   6.125
  151        1.738   4.374   0.000   6.112
  152        1.738   4.378   0.000   6.116
  153        1.737   4.381   0.000   6.118
  154        1.737   4.371   0.000   6.108
  155        1.737   4.371   0.000   6.108
  156        1.737   4.370   0.000   6.107
  157        1.737   4.369   0.000   6.106
  158        1.738   4.375   0.000   6.113
  159        1.738   4.375   0.000   6.113
  160        1.737   4.367   0.000   6.104
  161        1.736   4.369   0.000   6.105
  162        1.736   4.367   0.000   6.103
  163        1.736   4.367   0.000   6.104
  164        1.738   4.378   0.000   6.115
  165        1.737   4.369   0.000   6.106
  166        1.736   4.369   0.000   6.105
  167        1.737   4.369   0.000   6.106
  168        1.737   4.369   0.000   6.106
  169        1.738   4.375   0.000   6.114
  170        1.738   4.378   0.000   6.116
  171        1.737   4.370   0.000   6.107
  172        1.739   4.384   0.000   6.123
  173        1.737   4.369   0.000   6.106
  174        1.737   4.369   0.000   6.106
  175        1.738   4.385   0.000   6.124
  176        1.736   4.366   0.000   6.102
  177        1.738   4.380   0.000   6.118
  178        1.737   4.371   0.000   6.108
  179        1.738   4.375   0.000   6.113
  180        1.738   4.380   0.000   6.118
  181        1.736   4.368   0.000   6.104
  182        1.738   4.377   0.000   6.115
  183        1.737   4.368   0.000   6.105
  184        1.737   4.376   0.000   6.113
  185        1.737   4.382   0.000   6.119
  186        1.738   4.377   0.000   6.115
  187        1.737   4.370   0.000   6.106
  188        1.738   4.382   0.000   6.120
  189        1.738   4.381   0.000   6.119
  190        1.738   4.379   0.000   6.117
  191        1.739   4.387   0.000   6.126
  192        1.737   4.369   0.000   6.106
  193        1.739   4.384   0.000   6.123
  194        1.737   4.368   0.000   6.104
  195        1.737   4.370   0.000   6.107
  196        1.737   4.381   0.000   6.118
  197        1.737   4.370   0.000   6.107
  198        1.737   4.379   0.000   6.117
  199        1.738   4.381   0.000   6.119
  200        1.738   4.379   0.000   6.117
  201        1.738   4.379   0.000   6.116
  202        1.738   4.377   0.000   6.115
  203        1.738   4.379   0.000   6.117
  204        1.737   4.376   0.000   6.112
  205        1.737   4.379   0.000   6.116
  206        1.737   4.368   0.000   6.105
  207        1.737   4.365   0.000   6.102
  208        1.737   4.381   0.000   6.118
  209        1.738   4.378   0.000   6.116
  210        1.737   4.369   0.000   6.106
  211        1.737   4.370   0.000   6.106
  212        1.737   4.369   0.000   6.105
  213        1.739   4.372   0.000   6.110
  214        1.736   4.367   0.000   6.104
  215        1.738   4.376   0.000   6.114
  216        1.736   4.367   0.000   6.104
  217        1.737   4.366   0.000   6.103
  218        1.737   4.382   0.000   6.119
  219        1.739   4.381   0.000   6.119
  220        1.738   4.382   0.000   6.121
  221        1.737   4.379   0.000   6.117
  222        1.737   4.379   0.000   6.117
  223        1.738   4.378   0.000   6.115
  224        1.738   4.382   0.000   6.120
  225        1.738   4.382   0.000   6.120
  226        1.738   4.377   0.000   6.115
  227        1.737   4.382   0.000   6.119
  228        1.738   4.378   0.000   6.116
  229        1.738   4.377   0.000   6.115
  230        1.737   4.369   0.000   6.106
  231        1.738   4.375   0.000   6.113
  232        1.737   4.370   0.000   6.106
  233        1.738   4.381   0.000   6.119
  234        1.736   4.367   0.000   6.104
  235        1.737   4.368   0.000   6.105
  236        1.738   4.387   0.000   6.126
  237        1.739   4.385   0.000   6.124
  238        1.737   4.380   0.000   6.117
  239        1.738   4.378   0.000   6.115
  240        1.737   4.380   0.000   6.118
  241        1.738   4.374   0.000   6.112
  242        1.738   4.387   0.000   6.125
  243        1.738   4.387   0.000   6.125
  244        1.738   4.380   0.000   6.117
  245        1.738   4.378   0.000   6.116
  246        1.738   4.378   0.000   6.116
  247        1.738   4.385   0.000   6.123
  248        1.738   4.378   0.000   6.116
  249        1.738   4.386   0.000   6.124
  250        1.738   4.381   0.000   6.119
  251        1.738   4.379   0.000   6.118
  252        1.738   4.380   0.000   6.118
  253        1.738   4.380   0.000   6.118
  254        1.739   4.386   0.000   6.125
  255        1.738   4.377   0.000   6.115
  256        1.739   4.385   0.000   6.124
  257        1.738   4.379   0.000   6.117
--------------------------------------------------
tot        345.5051195.276 112.4581653.239
 


 magnetization (x)
 
# of ion       s       p       d       tot
------------------------------------------
    1       -0.000   0.000   0.000  -0.000
    2       -0.000  -0.000  -0.000  -0.000
    3        0.005   0.007   0.891   0.902
    4        0.000   0.000   0.000   0.000
    5        0.000   0.000   0.001   0.001
    6        0.000  -0.000  -0.000  -0.000
    7        0.000   0.000   0.001   0.001
    8        0.000   0.000   0.000   0.000
    9        0.000   0.000   0.000   0.000
   10       -0.000  -0.000  -0.002  -0.003
   11       -0.000  -0.000   0.000  -0.000
   12        0.000  -0.000   0.000   0.000
   13       -0.000  -0.000   0.000   0.000
   14        0.000  -0.000  -0.000  -0.000
   15       -0.000  -0.000   0.000   0.000
   16        0.000  -0.000   0.000   0.000
   17        0.000   0.000  -0.000  -0.000
   18       -0.000  -0.000   0.000   0.000
   19        0.000   0.000   0.014   0.014
   20       -0.000  -0.000   0.000  -0.000
   21        0.000   0.001   0.047   0.048
   22        0.000   0.000   0.000   0.000
   23        0.000   0.000   0.001   0.001
   24        0.000   0.000   0.000   0.000
   25        0.000   0.000   0.000   0.000
   26       -0.000  -0.000  -0.000  -0.000
   27       -0.000  -0.000   0.000   0.000
   28       -0.000  -0.000   0.000   0.000
   29       -0.000  -0.000   0.000   0.000
   30       -0.000  -0.000   0.000   0.000
   31       -0.000  -0.000  -0.000  -0.000
   32        0.000   0.000   0.000   0.000
   33       -0.000  -0.000  -0.000  -0.000
   34        0.000  -0.000  -0.000  -0.000
   35        0.000   0.000   0.007   0.008
   36        0.000   0.000   0.000   0.000
   37        0.000   0.000   0.000   0.000
   38       -0.000  -0.000  -0.000  -0.000
   39        0.000   0.000   0.013   0.013
   40        0.000   0.000   0.000   0.000
   41        0.000   0.000   0.000   0.000
   42        0.000  -0.000  -0.000  -0.000
   43       -0.000  -0.000   0.000   0.000
   44       -0.000   0.000   0.000   0.000
   45       -0.000  -0.000   0.000  -0.000
   46       -0.000  -0.000  -0.000  -0.000
   47       -0.000  -0.000   0.000   0.000
   48        0.000  -0.000   0.000   0.000
   49       -0.000  -0.000  -0.000  -0.000
   50       -0.000   0.000   0.000   0.000
   51        0.000  -0.000   0.000   0.000
   52       -0.000  -0.000   0.000   0.000
   53        0.000   0.000   0.003   0.003
   54       -0.000  -0.000  -0.000  -0.000
   55        0.000   0.000   0.004   0.004
   56        0.000  -0.000  -0.000  -0.000
   57        0.000   0.000   0.001   0.001
   58       -0.000  -0.000   0.000   0.000
   59       -0.000  -0.000   0.000   0.000
   60       -0.000  -0.000  -0.000  -0.000
   61       -0.000  -0.000   0.000   0.000
   62       -0.000  -0.000   0.000   0.000
   63       -0.000  -0.000   0.000   0.000
   64       -0.000  -0.000   0.000   0.000
   65       -0.000  -0.000  -0.000  -0.000
   66       -0.000  -0.000   0.000  -0.000
   67       -0.001  -0.014   0.000  -0.015
   68       -0.000  -0.000   0.000  -0.000
   69       -0.000  -0.000   0.000  -0.000
   70       -0.000  -0.000   0.000  -0.000
   71       -0.000  -0.000   0.000  -0.000
   72       -0.000  -0.002   0.000  -0.002
   73       -0.000  -0.000   0.000  -0.000
   74       -0.000  -0.001   0.000  -0.001
   75       -0.000  -0.000   0.000  -0.000
   76       -0.000  -0.000   0.000  -0.000
   77       -0.000  -0.000   0.000  -0.000
   78       -0.000  -0.000   0.000  -0.000
   79       -0.000  -0.000   0.000  -0.000
   80       -0.000  -0.001   0.000  -0.001
   81       -0.000  -0.000   0.000  -0.000
   82       -0.000  -0.000   0.000  -0.000
   83       -0.000  -0.000   0.000  -0.000
   84       -0.000  -0.000   0.000  -0.000
   85       -0.000  -0.000   0.000  -0.000
   86       -0.000  -0.000   0.000  -0.000
   87       -0.000  -0.000   0.000  -0.000
   88       -0.000  -0.000   0.000  -0.000
   89       -0.000  -0.000   0.000  -0.000
   90       -0.000  -0.000   0.000  -0.000
   91       -0.000  -0.000   0.000  -0.000
   92       -0.000  -0.000   0.000  -0.000
   93       -0.000  -0.000   0.000  -0.000
   94       -0.000  -0.000   0.000  -0.000
   95       -0.000  -0.000   0.000  -0.000
   96       -0.000  -0.000   0.000  -0.000
   97       -0.000  -0.000   0.000  -0.000
   98       -0.000  -0.000   0.000  -0.000
   99       -0.000  -0.000   0.000  -0.000
  100       -0.000  -0.000   0.000  -0.000
  101       -0.000  -0.000   0.000  -0.000
  102       -0.000  -0.000   0.000  -0.000
  103        0.000  -0.000   0.000  -0.000
  104       -0.000  -0.000   0.000  -0.000
  105       -0.000  -0.000   0.000  -0.000
  106       -0.000   0.000   0.000   0.000
  107       -0.000  -0.000   0.000  -0.000
  108       -0.000  -0.000   0.000  -0.000
  109       -0.000  -0.000   0.000  -0.000
  110       -0.000  -0.000   0.000  -0.000
  111       -0.000  -0.000   0.000  -0.000
  112       -0.000  -0.000   0.000  -0.000
  113       -0.000  -0.000   0.000  -0.000
  114       -0.000  -0.000   0.000  -0.000
  115       -0.000  -0.000   0.000  -0.000
  116       -0.000  -0.000   0.000  -0.000
  117       -0.000  -0.000   0.000  -0.000
  118        0.000   0.000   0.000   0.000
  119       -0.001  -0.019   0.000  -0.020
  120       -0.000  -0.000   0.000  -0.000
  121       -0.000  -0.000   0.000  -0.000
  122       -0.000  -0.000   0.000  -0.000
  123       -0.000  -0.000   0.000  -0.000
  124       -0.000  -0.002   0.000  -0.002
  125       -0.000  -0.000   0.000  -0.000
  126       -0.000  -0.000   0.000  -0.000
  127        0.000  -0.000   0.000  -0.000
  128       -0.000  -0.001   0.000  -0.001
  129       -0.000  -0.000   0.000  -0.000
  130       -0.000  -0.000   0.000  -0.000
  131       -0.000  -0.007   0.000  -0.007
  132       -0.000  -0.000   0.000  -0.000
  133       -0.000  -0.000   0.000  -0.000
  134       -0.000  -0.000   0.000  -0.000
  135        0.000  -0.000   0.000  -0.000
  136       -0.000  -0.000   0.000  -0.000
  137       -0.000  -0.000   0.000  -0.000
  138        0.000  -0.000   0.000  -0.000
  139       -0.000  -0.000   0.000  -0.000
  140       -0.000  -0.000   0.000  -0.000
  141       -0.000  -0.000   0.000  -0.000
  142       -0.000  -0.000   0.000  -0.000
  143        0.000   0.000   0.000   0.000
  144       -0.000  -0.000   0.000  -0.000
  145        0.000  -0.000   0.000  -0.000
  146       -0.000  -0.000   0.000  -0.000
  147       -0.000  -0.000   0.000  -0.000
  148       -0.000  -0.000   0.000  -0.000
  149       -0.000  -0.000   0.000  -0.000
  150       -0.000   0.000   0.000   0.000
  151       -0.000  -0.000   0.000  -0.000
  152       -0.000  -0.000   0.000  -0.000
  153       -0.000  -0.000   0.000  -0.000
  154       -0.000  -0.000   0.000  -0.000
  155       -0.000  -0.000   0.000  -0.000
  156       -0.000  -0.000   0.000  -0.000
  157       -0.000  -0.000   0.000  -0.000
  158       -0.000  -0.000   0.000  -0.000
  159       -0.000  -0.000   0.000  -0.000
  160       -0.000  -0.000   0.000  -0.000
  161       -0.000  -0.000   0.000  -0.000
  162       -0.000  -0.000   0.000  -0.000
  163        0.000  -0.000   0.000  -0.000
  164       -0.000  -0.000   0.000  -0.000
  165       -0.000  -0.000   0.000  -0.000
  166       -0.000  -0.000   0.000  -0.000
  167       -0.000  -0.000   0.000  -0.000
  168       -0.000  -0.000   0.000  -0.000
  169       -0.000  -0.000   0.000  -0.000
  170       -0.000  -0.000   0.000  -0.000
  171        0.000  -0.000   0.000  -0.000
  172       -0.000   0.001   0.000   0.001
  173        0.000  -0.000   0.000  -0.000
  174       -0.000  -0.000   0.000  -0.000
  175        0.000  -0.000   0.000  -0.000
  176       -0.000  -0.000   0.000  -0.000
  177       -0.000  -0.000   0.000  -0.000
  178        0.000  -0.000   0.000  -0.000
  179       -0.000  -0.000   0.000  -0.000
  180       -0.000  -0.000   0.000  -0.000
  181       -0.000  -0.000   0.000  -0.000
  182       -0.000  -0.000   0.000  -0.000
  183        0.000  -0.000   0.000  -0.000
  184       -0.000   0.000   0.000   0.000
  185        0.000  -0.000   0.000  -0.000
  186        0.000   0.000   0.000   0.000
  187       -0.000  -0.000   0.000  -0.000
  188       -0.000  -0.000   0.000  -0.000
  189       -0.000  -0.000   0.000  -0.000
  190       -0.000  -0.000   0.000  -0.000
  191        0.000  -0.000   0.000  -0.000
  192        0.000  -0.000   0.000  -0.000
  193       -0.000   0.000   0.000  -0.000
  194       -0.000  -0.000   0.000  -0.000
  195       -0.000  -0.000   0.000  -0.000
  196       -0.000  -0.000   0.000  -0.000
  197       -0.000  -0.000   0.000  -0.000
  198       -0.000  -0.000   0.000  -0.000
  199        0.000  -0.000   0.000  -0.000
  200       -0.000  -0.000   0.000  -0.000
  201       -0.000  -0.000   0.000  -0.000
  202       -0.000  -0.000   0.000  -0.000
  203       -0.000   0.000   0.000   0.000
  204       -0.000  -0.001   0.000  -0.001
  205       -0.000  -0.000   0.000  -0.000
  206       -0.000  -0.000   0.000  -0.000
  207       -0.000  -0.000   0.000  -0.000
  208       -0.000  -0.000   0.000  -0.000
  209       -0.000  -0.000   0.000  -0.000
  210       -0.000  -0.000   0.000  -0.000
  211       -0.000  -0.000   0.000  -0.000
  212       -0.000  -0.000   0.000  -0.000
  213       -0.000  -0.002   0.000  -0.002
  214       -0.000  -0.000   0.000  -0.000
  215        0.000  -0.000   0.000  -0.000
  216       -0.000   0.000   0.000   0.000
  217       -0.000  -0.000   0.000  -0.000
  218       -0.000  -0.000   0.000  -0.000
  219        0.000  -0.000   0.000  -0.000
  220       -0.000  -0.000   0.000  -0.000
  221       -0.000  -0.000   0.000  -0.000
  222       -0.000  -0.000   0.000  -0.000
  223       -0.000  -0.000   0.000  -0.000
  224       -0.000  -0.000   0.000  -0.000
  225       -0.000  -0.000   0.000  -0.000
  226       -0.000  -0.000   0.000  -0.000
  227       -0.000  -0.000   0.000  -0.000
  228       -0.000  -0.000   0.000  -0.000
  229       -0.000  -0.000   0.000  -0.000
  230       -0.000  -0.000   0.000  -0.000
  231       -0.000  -0.000   0.000  -0.000
  232       -0.000  -0.000   0.000  -0.000
  233       -0.000   0.000   0.000   0.000
  234        0.000   0.000   0.000   0.000
  235        0.000   0.000   0.000   0.000
  236        0.000   0.000   0.000   0.000
  237        0.000   0.000   0.000   0.000
  238        0.000  -0.000   0.000  -0.000
  239       -0.000   0.000   0.000   0.000
  240       -0.000  -0.000   0.000  -0.000
  241       -0.000  -0.000   0.000  -0.000
  242        0.000  -0.000   0.000  -0.000
  243       -0.000  -0.000   0.000  -0.000
  244       -0.000  -0.000   0.000  -0.000
  245       -0.000  -0.000   0.000  -0.000
  246       -0.000   0.000   0.000   0.000
  247       -0.000  -0.000   0.000  -0.000
  248        0.000   0.000   0.000   0.000
  249        0.000   0.000   0.000   0.000
  250        0.000  -0.000   0.000  -0.000
  251        0.000  -0.000   0.000  -0.000
  252       -0.000  -0.000   0.000  -0.000
  253       -0.000  -0.000   0.000  -0.000
  254       -0.000  -0.000   0.000  -0.000
  255       -0.000  -0.000   0.000  -0.000
  256        0.000  -0.000   0.000  -0.000
  257       -0.000  -0.000   0.000  -0.000
--------------------------------------------------
tot          0.002  -0.045   0.980   0.938
 

 total amount of memory used by VASP MPI-rank0   291492. kBytes
=======================================================================

   base      :      30000. kBytes
   nonlr-proj:      49457. kBytes
   fftplans  :      27976. kBytes
   grid      :      34041. kBytes
   one-center:       1026. kBytes
   wavefun   :     148992. kBytes
 
  
  
 General timing and accounting informations for this job:
 ========================================================
  
                  Total CPU time used (sec):      801.291
                            User time (sec):      472.906
                          System time (sec):      328.386
                         Elapsed time (sec):      830.034
  
                   Maximum memory used (kb):      621336.
                   Average memory used (kb):           0.
  
                          Minor page faults:        65282
                          Major page faults:            0
                 Voluntary context switches:        15590
