       N       E                     dE             d eps       ncg     rms          rms(c)
DAV:   1    -0.212533417596E+03   -0.21253E+03   -0.64178E-01  2560   0.529E+00    0.667E-02
DAV:   2    -0.212533495194E+03   -0.77598E-04   -0.23662E-05  2432   0.243E-02    0.373E-02
DAV:   3    -0.212533580693E+03   -0.85499E-04   -0.16552E-05  2608   0.262E-02    0.547E-03
DAV:   4    -0.212533581753E+03   -0.10599E-05   -0.11042E-06  1728   0.733E-03    0.199E-03
DAV:   5    -0.212533581818E+03   -0.64643E-07   -0.34317E-07  1280   0.395E-03
   1 F= -.21253358E+03 E0= -.21253358E+03  d E =-.212534E+03  mag=    -0.0000
