       N       E                     dE             d eps       ncg     rms          rms(c)
DAV:   1    -0.207421416428E+03   -0.20742E+03   -0.95938E-03 20480   0.623E-01    0.770E-02
DAV:   2    -0.207421372169E+03    0.44259E-04   -0.25163E-04 27216   0.769E-02    0.160E-01
DAV:   3    -0.207421453038E+03   -0.80868E-04   -0.16325E-04 27520   0.536E-02    0.208E-01
DAV:   4    -0.207421410334E+03    0.42703E-04   -0.33433E-05 26040   0.246E-02    0.691E-02
DAV:   5    -0.207421408361E+03    0.19737E-05   -0.57969E-06 23784   0.906E-03    0.183E-03
DAV:   6    -0.207421409442E+03   -0.10812E-05   -0.69021E-07 13656   0.331E-03    0.139E-03
DAV:   7    -0.207421409496E+03   -0.53795E-07   -0.10957E-07 11008   0.145E-03
   1 F= -.20742141E+03 E0= -.20742073E+03  d E =-.207421E+03  mag=    -1.1960
