 vasp.5.4.4.18Apr17-6-g9f103f2a35 (build Apr 30 2017 20:10:35) complex          
  
 executed on             LinuxIFC date 2017.08.06  23:43:34
 running on   64 total cores
 distrk:  each k-point on   64 cores,    1 groups
 distr:  one band on NCORES_PER_BAND=   8 cores,    8 groups


--------------------------------------------------------------------------------------------------------


 INCAR:
 POTCAR:   PAW_PBE Ti_pv 07Sep2000                
 POTCAR:   PAW_PBE O 08Apr2002                    
 POTCAR:    PAW_PBE F 08Apr2002                   
 POTCAR:   PAW_PBE Ti_pv 07Sep2000                
   VRHFIN =Ti: d3 s1                                                            
   LEXCH  = PE                                                                  
   EATOM  =  1042.3781 eV,   76.6126 Ry                                         
                                                                                
   TITEL  = PAW_PBE Ti_pv 07Sep2000                                             
   LULTRA =        F    use ultrasoft PP ?                                      
   IUNSCR =        1    unscreen: 0-lin 1-nonlin 2-no                           
   RPACOR =    2.200    partial core radius                                     
   POMASS =   47.880; ZVAL   =   10.000    mass and valenz                      
   RCORE  =    2.500    outmost cutoff radius                                   
   RWIGS  =    2.500; RWIGS  =    1.323    wigner-seitz radius (au A)           
   ENMAX  =  222.338; ENMIN  =  166.753 eV                                      
   RCLOC  =    1.701    cutoff for local pot                                    
   LCOR   =        T    correct aug charges                                     
   LPAW   =        T    paw PP                                                  
   EAUG   =  482.848                                                            
   DEXC   =    -.008                                                            
   RMAX   =    3.092    core radius for proj-oper                               
   RAUG   =    1.300    factor for augmentation sphere                          
   RDEP   =    2.538    radius for radial grids                                 
   QCUT   =   -4.042; QGAM   =    8.085    optimization parameters              
                                                                                
   Description                                                                  
     l     E      TYP  RCUT    TYP  RCUT                                        
     1   .000     23  2.300                                                     
     1  -.100     23  2.300                                                     
     2   .000     23  2.500                                                     
     2   .000     23  2.500                                                     
     0   .000     23  2.500                                                     
     0  1.500     23  2.500                                                     
     3   .000      7   .000                                                     
  local pseudopotential read in
  partial core-charges read in
  atomic valenz-charges read in
  non local Contribution for L=           1  read in
    real space projection operators read in
  non local Contribution for L=           1  read in
    real space projection operators read in
  non local Contribution for L=           2  read in
    real space projection operators read in
  non local Contribution for L=           2  read in
    real space projection operators read in
  non local Contribution for L=           0  read in
    real space projection operators read in
  non local Contribution for L=           0  read in
    real space projection operators read in
    PAW grid and wavefunctions read in
 
   number of l-projection  operators is LMAX  =           6
   number of lm-projection operators is LMMAX =          18
 
 POTCAR:   PAW_PBE O 08Apr2002                    
   VRHFIN =O: s2p4                                                              
   LEXCH  = PE                                                                  
   EATOM  =   432.3788 eV,   31.7789 Ry                                         
                                                                                
   TITEL  = PAW_PBE O 08Apr2002                                                 
   LULTRA =        F    use ultrasoft PP ?                                      
   IUNSCR =        0    unscreen: 0-lin 1-nonlin 2-no                           
   RPACOR =     .000    partial core radius                                     
   POMASS =   16.000; ZVAL   =    6.000    mass and valenz                      
   RCORE  =    1.520    outmost cutoff radius                                   
   RWIGS  =    1.550; RWIGS  =     .820    wigner-seitz radius (au A)           
   ENMAX  =  400.000; ENMIN  =  300.000 eV                                      
   ICORE  =        2    local potential                                         
   LCOR   =        T    correct aug charges                                     
   LPAW   =        T    paw PP                                                  
   EAUG   =  605.392                                                            
   DEXC   =     .000                                                            
   RMAX   =    2.264    core radius for proj-oper                               
   RAUG   =    1.300    factor for augmentation sphere                          
   RDEP   =    1.550    radius for radial grids                                 
   QCUT   =   -5.520; QGAM   =   11.041    optimization parameters              
                                                                                
   Description                                                                  
     l     E      TYP  RCUT    TYP  RCUT                                        
     0   .000     23  1.200                                                     
     0  -.700     23  1.200                                                     
     1   .000     23  1.520                                                     
     1   .600     23  1.520                                                     
     2   .000      7  1.500                                                     
  local pseudopotential read in
  atomic valenz-charges read in
  non local Contribution for L=           0  read in
    real space projection operators read in
  non local Contribution for L=           0  read in
    real space projection operators read in
  non local Contribution for L=           1  read in
    real space projection operators read in
  non local Contribution for L=           1  read in
    real space projection operators read in
    PAW grid and wavefunctions read in
 
   number of l-projection  operators is LMAX  =           4
   number of lm-projection operators is LMMAX =           8
 
 POTCAR:    PAW_PBE F 08Apr2002                   
   VRHFIN =F: s2p5                                                              
   LEXCH  = PE                                                                  
   EATOM  =   659.6475 eV,   48.4827 Ry                                         
                                                                                
   TITEL  = PAW_PBE F 08Apr2002                                                 
   LULTRA =        F    use ultrasoft PP ?                                      
   IUNSCR =        1    unscreen: 0-lin 1-nonlin 2-no                           
   RPACOR =    1.200    partial core radius                                     
   POMASS =   18.998; ZVAL   =    7.000    mass and valenz                      
   RCORE  =    1.520    outmost cutoff radius                                   
   RWIGS  =    1.500; RWIGS  =    0.794    wigner-seitz radius (au A)           
   ENMAX  =  400.000; ENMIN  =  300.000 eV                                      
   ICORE  =        2    local potential                                         
   LCOR   =        T    correct aug charges                                     
   LPAW   =        T    paw PP                                                  
   EAUG   =  613.614                                                            
   RMAX   =    1.555    core radius for proj-oper                               
   RAUG   =    1.300    factor for augmentation sphere                          
   RDEP   =    1.539    radius for radial grids                                 
   RDEPT  =    1.299    core radius for aug-charge                              
                                                                                
   Atomic configuration                                                         
    4 entries                                                                   
     n  l   j            E        occ.                                          
     1  0  0.50      -663.3661   2.0000                                         
     2  0  0.50       -29.8995   2.0000                                         
     2  1  0.50       -11.1114   5.0000                                         
     3  2  1.50       -10.8847   0.0000                                         
   Description                                                                  
     l       E           TYP  RCUT    TYP  RCUT                                 
     0    -29.8995018     23  1.200                                             
     0     -9.5240782     23  1.200                                             
     1    -11.1113914     23  1.520                                             
     1      1.3605826     23  1.520                                             
     2    -10.8846608      7  1.500                                             
  local pseudopotential read in
  partial core-charges read in
  partial kinetic energy density read in
  atomic valenz-charges read in
  non local Contribution for L=           0  read in
    real space projection operators read in
  non local Contribution for L=           0  read in
    real space projection operators read in
  non local Contribution for L=           1  read in
    real space projection operators read in
  non local Contribution for L=           1  read in
    real space projection operators read in
    PAW grid and wavefunctions read in
 
   number of l-projection  operators is LMAX  =           4
   number of lm-projection operators is LMMAX =           8
 
 Optimization of the real space projectors (new method)

 maximal supplied QI-value         = 15.12
 optimisation between [QCUT,QGAM] = [ 13.45, 27.06] = [ 50.69,205.06] Ry 
 Optimized for a Real-space Cutoff    1.49 Angstroem

   l    n(q)    QCUT    max X(q) W(low)/X(q) W(high)/X(q)  e(spline) 
   1     12    13.455     4.841    0.13E-05    0.83E-06    0.56E-07
   1     12    13.455     5.701    0.32E-04    0.25E-04    0.17E-06
   2     11    13.455     4.569    0.64E-05    0.34E-05    0.50E-07
   2     11    13.455    32.276    0.49E-04    0.38E-04    0.46E-06
   0     12    13.455    30.046    0.17E-04    0.41E-05    0.51E-07
   0     12    13.455    45.433    0.12E-04    0.27E-04    0.38E-06
 Optimization of the real space projectors (new method)

 maximal supplied QI-value         = 24.76
 optimisation between [QCUT,QGAM] = [ 13.37, 26.98] = [ 50.04,203.89] Ry 
 Optimized for a Real-space Cutoff    1.17 Angstroem

   l    n(q)    QCUT    max X(q) W(low)/X(q) W(high)/X(q)  e(spline) 
   0      9    13.368     4.192    0.20E-04    0.58E-05    0.56E-07
   0      9    13.368     8.473    0.60E-04    0.52E-04    0.21E-06
   1      9    13.368     2.474    0.22E-04    0.17E-04    0.28E-07
   1      9    13.368     3.912    0.94E-04    0.97E-04    0.20E-06
 Optimization of the real space projectors (new method)

 maximal supplied QI-value         = 24.76
 optimisation between [QCUT,QGAM] = [ 13.37, 26.98] = [ 50.04,203.89] Ry 
 Optimized for a Real-space Cutoff    1.17 Angstroem

   l    n(q)    QCUT    max X(q) W(low)/X(q) W(high)/X(q)  e(spline) 
   0      9    13.368    14.049    0.39E-04    0.34E-04    0.16E-06
   0      9    13.368     8.945    0.54E-04    0.47E-04    0.20E-06
   1      9    13.368     7.086    0.99E-04    0.10E-03    0.23E-06
   1      9    13.368     6.747    0.86E-04    0.89E-04    0.21E-06

 ----------------------------------------------------------------------------- 
|                                                                             |
|  ADVICE TO THIS USER RUNNING 'VASP/VAMP'   (HEAR YOUR MASTER'S VOICE ...):  |
|                                                                             |
|      You enforced a specific xc-type in the INCAR file,                     |
|      a different type was found on the POTCAR file                          |
|          I HOPE YOU KNOW, WHAT YOU ARE  DOING                               |
|                                                                             |
 ----------------------------------------------------------------------------- 

 PAW_PBE Ti_pv 07Sep2000                :
 energy of atom  1       EATOM=-1042.3781
 kinetic energy error for atom=    0.0006 (will be added to EATOM!!)
 PAW_PBE O 08Apr2002                    :
 energy of atom  2       EATOM= -432.3788
 kinetic energy error for atom=    0.0091 (will be added to EATOM!!)
  PAW_PBE F 08Apr2002                   :
 energy of atom  3       EATOM= -659.6475
 kinetic energy error for atom=    0.0140 (will be added to EATOM!!)
 
 
 POSCAR: TiOF2 2x2x2 config 0472                 
  positions in direct lattice
  velocities in cartesian coordinates
 exchange correlation table for  LEXCH =       14
   RHO(1)=    0.500       N(1)  =     2000
   RHO(2)=  100.500       N(2)  =     4000

 VTST: version 3.1, (03/28/14)

 CHAIN: initializing optimizer
 
 OPT: Using VASP QUASI-newton optimizer
 CHAIN: Read ICHAIN            0
 
 POSCAR: TiOF2 2x2x2 config 0472                 
  positions in direct lattice
  velocities in cartesian coordinates
 


--------------------------------------------------------------------------------------------------------


 ion  position               nearest neighbor table
   1  0.000  0.000  1.000-  21 1.90  17 1.90  30 1.93  29 1.93  26 2.00  24 2.00
   2  0.001  0.000  0.500-  18 1.91  22 1.91  30 1.92  29 1.92  25 1.97  27 1.97
   3  0.002  0.500  1.000-  19 1.86  23 1.86  24 1.88  26 1.88  32 1.89  31 1.89
   4  0.977  0.500  0.500-   9 1.72  25 1.93  27 1.93  31 1.97  32 1.97  20 2.05
   5  0.500  0.002  1.000-  14 1.92  13 1.92  10 1.93  11 1.97  21 2.05  17 2.05
   6  0.500  0.987  0.500-  12 1.84  13 1.92  14 1.92  28 2.03  18 2.04  22 2.04
   7  0.501  0.498  0.000-  15 1.91  16 1.91  10 1.92  11 1.96  19 2.08  23 2.09
   8  0.498  0.511  0.500-  12 1.86  16 1.93  15 1.93  28 2.03   9 2.06  20 2.06
   9  0.760  0.499  0.500-   4 1.72   8 2.06
  10  0.501  0.251  0.000-   7 1.92   5 1.93
  11  0.501  0.749  0.000-   7 1.96   5 1.97
  12  0.499  0.750  0.500-   6 1.84   8 1.86
  13  0.501  0.998  0.250-   6 1.92   5 1.92
  14  0.501  0.998  0.750-   6 1.92   5 1.92
  15  0.499  0.502  0.249-   7 1.91   8 1.93
  16  0.499  0.502  0.751-   7 1.91   8 1.93
  17  0.241  0.000  0.000-   1 1.90   5 2.05
  18  0.243  0.003  0.500-   2 1.91   6 2.04
  19  0.237  0.500  0.000-   3 1.86   7 2.08
  20  0.237  0.498  0.500-   4 2.05   8 2.06
  21  0.760  0.000  1.000-   1 1.90   5 2.05
  22  0.759  0.003  0.500-   2 1.91   6 2.04
  23  0.766  0.500  1.000-   3 1.86   7 2.09
  24  0.000  0.258  1.000-   3 1.88   1 2.00
  25  0.005  0.253  0.500-   4 1.93   2 1.97
  26  0.000  0.742  1.000-   3 1.88   1 2.00
  27  0.005  0.747  0.500-   4 1.93   2 1.97
  28  0.498  0.249  0.500-   8 2.03   6 2.03
  29  1.000  1.000  0.251-   2 1.92   1 1.93
  30  1.000  1.000  0.749-   2 1.92   1 1.93
  31  0.004  0.500  0.246-   3 1.89   4 1.97
  32  0.004  0.500  0.754-   3 1.89   4 1.97
 

IMPORTANT INFORMATION: All symmetrisations will be switched off!
NOSYMM: (Re-)initialisation of all symmetry stuff for point group C_1.

 
 
 KPOINTS: Title                                   

Automatic generation of k-mesh.
Space group operators:
 irot       det(A)        alpha          n_x          n_y          n_z        tau_x        tau_y        tau_z
    1     1.000000     0.000000     1.000000     0.000000     0.000000     0.000000     0.000000     0.000000
 
 Subroutine IBZKPT returns following result:
 ===========================================
 
 Found     32 irreducible k-points:
 
 Following reciprocal coordinates:
            Coordinates               Weight
  0.125000  0.125000  0.125000      2.000000
  0.375000  0.125000  0.125000      2.000000
 -0.375000  0.125000  0.125000      2.000000
 -0.125000  0.125000  0.125000      2.000000
  0.125000  0.375000  0.125000      2.000000
  0.375000  0.375000  0.125000      2.000000
 -0.375000  0.375000  0.125000      2.000000
 -0.125000  0.375000  0.125000      2.000000
  0.125000 -0.375000  0.125000      2.000000
  0.375000 -0.375000  0.125000      2.000000
 -0.375000 -0.375000  0.125000      2.000000
 -0.125000 -0.375000  0.125000      2.000000
  0.125000 -0.125000  0.125000      2.000000
  0.375000 -0.125000  0.125000      2.000000
 -0.375000 -0.125000  0.125000      2.000000
 -0.125000 -0.125000  0.125000      2.000000
  0.125000  0.125000  0.375000      2.000000
  0.375000  0.125000  0.375000      2.000000
 -0.375000  0.125000  0.375000      2.000000
 -0.125000  0.125000  0.375000      2.000000
  0.125000  0.375000  0.375000      2.000000
  0.375000  0.375000  0.375000      2.000000
 -0.375000  0.375000  0.375000      2.000000
 -0.125000  0.375000  0.375000      2.000000
  0.125000 -0.375000  0.375000      2.000000
  0.375000 -0.375000  0.375000      2.000000
 -0.375000 -0.375000  0.375000      2.000000
 -0.125000 -0.375000  0.375000      2.000000
  0.125000 -0.125000  0.375000      2.000000
  0.375000 -0.125000  0.375000      2.000000
 -0.375000 -0.125000  0.375000      2.000000
 -0.125000 -0.125000  0.375000      2.000000
 
 Following cartesian coordinates:
            Coordinates               Weight
  0.015840  0.016085  0.016254      2.000000
  0.047513  0.016091  0.016254      2.000000
 -0.047507  0.016073  0.016254      2.000000
 -0.015834  0.016079  0.016254      2.000000
  0.015845  0.048250  0.016254      2.000000
  0.047519  0.048256  0.016254      2.000000
 -0.047501  0.048238  0.016254      2.000000
 -0.015828  0.048244  0.016254      2.000000
  0.015828 -0.048244  0.016254      2.000000
  0.047501 -0.048238  0.016254      2.000000
 -0.047519 -0.048256  0.016254      2.000000
 -0.015845 -0.048250  0.016254      2.000000
  0.015834 -0.016079  0.016254      2.000000
  0.047507 -0.016073  0.016254      2.000000
 -0.047513 -0.016091  0.016254      2.000000
 -0.015840 -0.016085  0.016254      2.000000
  0.015839  0.016085  0.048762      2.000000
  0.047513  0.016091  0.048762      2.000000
 -0.047507  0.016073  0.048762      2.000000
 -0.015834  0.016079  0.048762      2.000000
  0.015845  0.048250  0.048762      2.000000
  0.047519  0.048256  0.048762      2.000000
 -0.047501  0.048238  0.048762      2.000000
 -0.015828  0.048244  0.048762      2.000000
  0.015828 -0.048244  0.048762      2.000000
  0.047501 -0.048238  0.048762      2.000000
 -0.047519 -0.048256  0.048762      2.000000
 -0.015846 -0.048250  0.048762      2.000000
  0.015834 -0.016079  0.048762      2.000000
  0.047507 -0.016073  0.048762      2.000000
 -0.047513 -0.016091  0.048762      2.000000
 -0.015840 -0.016085  0.048762      2.000000
 


--------------------------------------------------------------------------------------------------------




 Dimension of arrays:
   k-points           NKPTS =     32   k-points in BZ     NKDIM =     32   number of bands    NBANDS=    160
   number of dos      NEDOS =   3001   number of ions     NIONS =     32
   non local maximal  LDIM  =      6   non local SUM 2l+1 LMDIM =     18
   total plane-waves  NPLWV = 343000
   max r-space proj   IRMAX =  10080   max aug-charges    IRDMAX= 225972
   dimension x,y,z NGX =    70 NGY =   70 NGZ =   70
   dimension x,y,z NGXF=   140 NGYF=  140 NGZF=  140
   support grid    NGXF=   280 NGYF=  280 NGZF=  280
   ions per type =               8   8  16
   NGX,Y,Z   is equivalent  to a cutoff of  14.74, 14.97, 15.13 a.u.
   NGXF,Y,Z  is equivalent  to a cutoff of  29.49, 29.94, 30.26 a.u.

 SYSTEM =  LTO                                     
 POSCAR =  TiOF2 2x2x2 config 0472                 

 Startparameter for this run:
   NWRITE =      2    write-flag & timer
   PREC   = accura    normal or accurate (medium, high low for compatibility)
   ISTART =      1    job   : 0-new  1-cont  2-samecut
   ICHARG =      0    charge: 1-file 2-atom 10-const
   ISPIN  =      2    spin polarized calculation?
   LNONCOLLINEAR =      F non collinear calculations
   LSORBIT =      F    spin-orbit coupling
   INIWAV =      1    electr: 0-lowe 1-rand  2-diag
   LASPH  =      T    aspherical Exc in radial PAW
   METAGGA=      F    non-selfconsistent MetaGGA calc.

 Electronic Relaxation 1
   ENCUT  =  700.0 eV  51.45 Ry    7.17 a.u.  17.03 16.77 16.59*2*pi/ulx,y,z
   ENINI  =  700.0     initial cutoff
   ENAUG  =  613.6 eV  augmentation charge cutoff
   NELM   =     60;   NELMIN=  2; NELMDL=  0     # of ELM steps 
   EDIFF  = 0.1E-05   stopping-criterion for ELM
   LREAL  =      T    real-space projection
   NLSPLINE    = F    spline interpolate recip. space projectors
   LCOMPAT=      F    compatible to vasp.4.4
   GGA_COMPAT  = T    GGA compatible to vasp.4.4-vasp.4.6
   LMAXPAW     = -100 max onsite density
   LMAXMIX     =    4 max onsite mixed and CHGCAR
   VOSKOWN=      0    Vosko Wilk Nusair interpolation
   ROPT   =   -0.00010  -0.00010  -0.00010
 Ionic relaxation
   EDIFFG = -.1E-01   stopping-criterion for IOM
   NSW    =    100    number of steps for IOM
   NBLOCK =      1;   KBLOCK =    100    inner block; outer block 
   IBRION =      1    ionic relax: 0-MD 1-quasi-New 2-CG
   NFREE  =      0    steps in history (QN), initial steepest desc. (CG)
   ISIF   =      3    stress and relaxation
   IWAVPR =     11    prediction:  0-non 1-charg 2-wave 3-comb
   ISYM   =      0    0-nonsym 1-usesym 2-fastsym
   LCORR  =      T    Harris-Foulkes like correction to forces

   POTIM  = 0.5000    time-step for ionic-motion
   TEIN   =    0.0    initial temperature
   TEBEG  =    0.0;   TEEND  =   0.0 temperature during run
   SMASS  =  -3.00    Nose mass-parameter (am)
   estimated Nose-frequenzy (Omega)   =  0.10E-29 period in steps =****** mass=  -0.142E-26a.u.
   SCALEE = 1.0000    scale energy and forces
   NPACO  =    256;   APACO  = 16.0  distance and # of slots for P.C.
   PSTRESS=    0.0 pullay stress

  Mass of Ions in am
   POMASS =  47.88 16.00 19.00
  Ionic Valenz
   ZVAL   =  10.00  6.00  7.00
  Atomic Wigner-Seitz radii
   RWIGS  =  -1.00 -1.00 -1.00
  virtual crystal weights 
   VCA    =   1.00  1.00  1.00
   NELECT =     240.0000    total number of electrons
   NUPDOWN=      -1.0000    fix difference up-down

 DOS related values:
   EMIN   =  10.00;   EMAX   =-10.00  energy-range for DOS
   EFERMI =   0.00
   ISMEAR =     0;   SIGMA  =   0.01  broadening in eV -4-tet -1-fermi 0-gaus

 Electronic relaxation 2 (details)
   IALGO  =     38    algorithm
   LDIAG  =      T    sub-space diagonalisation (order eigenvalues)
   LSUBROT=      F    optimize rotation matrix (better conditioning)
   TURBO    =      0    0=normal 1=particle mesh
   IRESTART =      0    0=no restart 2=restart with 2 vectors
   NREBOOT  =      0    no. of reboots
   NMIN     =      0    reboot dimension
   EREF     =   0.00    reference energy to select bands
   IMIX   =      4    mixing-type and parameters
     AMIX     =   0.40;   BMIX     =  1.00
     AMIX_MAG =   1.60;   BMIX_MAG =  1.00
     AMIN     =   0.10
     WC   =   100.;   INIMIX=   1;  MIXPRE=   1;  MAXMIX= -45

 Intra band minimization:
   WEIMIN = 0.0010     energy-eigenvalue tresh-hold
   EBREAK =  0.16E-08  absolut break condition
   DEPER  =   0.30     relativ break condition  

   TIME   =   0.40     timestep for ELM

  volume/ion in A,a.u.               =      14.74        99.50
  Fermi-wavevector in a.u.,A,eV,Ry     =   1.306844  2.469576 23.236576  1.707840
  Thomas-Fermi vector in A             =   2.437618
 
 Write flags
   LWAVE        =      T    write WAVECAR
   LDOWNSAMPLE  =      F    k-point downsampling of WAVECAR
   LCHARG       =      T    write CHGCAR
   LVTOT        =      F    write LOCPOT, total local potential
   LVHAR        =      F    write LOCPOT, Hartree potential only
   LELF         =      F    write electronic localiz. function (ELF)
   LORBIT       =     11    0 simple, 1 ext, 2 COOP (PROOUT), +10 PAW based schemes


 Dipole corrections
   LMONO  =      F    monopole corrections only (constant potential shift)
   LDIPOL =      F    correct potential (dipole corrections)
   IDIPOL =      0    1-x, 2-y, 3-z, 4-all directions 
   EPSILON=  1.0000000 bulk dielectric constant

 LDA+U is selected, type is set to LDAUTYPE =  2
   angular momentum for each species LDAUL =     2   -1   -1
   U (eV)           for each species LDAUU =   4.2  0.0  0.0
   J (eV)           for each species LDAUJ =   0.0  0.0  0.0
 Exchange correlation treatment:
   GGA     =    PS    GGA type
   LEXCH   =    14    internal setting for exchange type
   VOSKOWN=      0    Vosko Wilk Nusair interpolation
   LHFCALC =     F    Hartree Fock is set to
   LHFONE  =     F    Hartree Fock one center treatment
   AEXX    =    0.0000 exact exchange contribution

 Linear response parameters
   LEPSILON=     F    determine dielectric tensor
   LRPA    =     F    only Hartree local field effects (RPA)
   LNABLA  =     F    use nabla operator in PAW spheres
   LVEL    =     F    velocity operator in full k-point grid
   LINTERFAST=   F  fast interpolation
   KINTER  =     0    interpolate to denser k-point grid
   CSHIFT  =0.1000    complex shift for real part using Kramers Kronig
   OMEGAMAX=  -1.0    maximum frequency
   DEG_THRESHOLD= 0.2000000E-02 threshold for treating states as degnerate
   RTIME   =   -0.100 relaxation time in fs
  (WPLASMAI=    0.000 imaginary part of plasma frequency in eV, 0.658/RTIME)
   DFIELD  = 0.0000000 0.0000000 0.0000000 field for delta impulse in time
 
 Orbital magnetization related:
   ORBITALMAG=     F  switch on orbital magnetization
   LCHIMAG   =     F  perturbation theory with respect to B field
   DQ        =  0.001000  dq finite difference perturbation B field
   LLRAUG    =     F  two centre corrections for induced B field



--------------------------------------------------------------------------------------------------------


 quasi-Newton-method for relaxation of ions
 charge density and potential will be updated during run
 spin polarized calculation
 Variant of blocked Davidson
 Davidson routine will perform the subspace rotation
 perform sub-space diagonalisation
    after iterative eigenvector-optimisation
 modified Broyden-mixing scheme, WC =      100.0
 initial mixing is a Kerker type mixing with AMIX =  0.4000 and BMIX =      1.0000
 Hartree-type preconditioning will be used
 using additional bands           40
 real space projection scheme for non local part
 use partial core corrections
 calculate Harris-corrections to forces 
   (improved forces if not selfconsistent)
 use gradient corrections 
 use of overlap-Matrix (Vanderbilt PP)
 Gauss-broadening in eV      SIGMA  =   0.01


--------------------------------------------------------------------------------------------------------


  energy-cutoff  :      700.00
  volume of cell :      471.81
      direct lattice vectors                 reciprocal lattice vectors
     7.893144544 -0.001464127  0.000004227     0.126692224  0.000024175 -0.000000033
    -0.001483108  7.772524842 -0.000005101     0.000023865  0.128658326  0.000000077
     0.000001994 -0.000004620  7.690467352    -0.000000070  0.000000085  0.130031109

  length of vectors
     7.893144680  7.772524983  7.690467352     0.126692226  0.128658328  0.130031109


 
 old parameters found on file WAVECAR:
  energy-cutoff  :      700.00
  volume of cell :      471.87
      direct lattice vectors                 reciprocal lattice vectors
     7.887702811 -0.001403898  0.000004383     0.126779629  0.000023246 -0.000000035
    -0.001423950  7.765911447  0.000015354     0.000022919  0.128767890 -0.000000261
     0.000002144  0.000015629  7.703346524    -0.000000072 -0.000000257  0.129813711

  length of vectors

 
 k-points in units of 2pi/SCALE and weight: Title                                   
   0.01583950  0.01608532  0.01625389       0.031
   0.04751256  0.01609137  0.01625389       0.031
  -0.04750661  0.01607324  0.01625391       0.031
  -0.01583355  0.01607928  0.01625390       0.031
   0.01584547  0.04824990  0.01625391       0.031
   0.04751852  0.04825595  0.01625391       0.031
  -0.04750064  0.04823782  0.01625393       0.031
  -0.01582759  0.04824386  0.01625392       0.031
   0.01582757 -0.04824384  0.01625386       0.031
   0.04750063 -0.04823780  0.01625385       0.031
  -0.04751854 -0.04825593  0.01625387       0.031
  -0.01584549 -0.04824988  0.01625386       0.031
   0.01583354 -0.01607926  0.01625387       0.031
   0.04750659 -0.01607321  0.01625387       0.031
  -0.04751258 -0.01609135  0.01625389       0.031
  -0.01583952 -0.01608530  0.01625388       0.031
   0.01583949  0.01608534  0.04876167       0.031
   0.04751254  0.01609139  0.04876166       0.031
  -0.04750663  0.01607326  0.04876169       0.031
  -0.01583357  0.01607930  0.04876168       0.031
   0.01584545  0.04824993  0.04876169       0.031
   0.04751851  0.04825597  0.04876168       0.031
  -0.04750066  0.04823784  0.04876171       0.031
  -0.01582760  0.04824388  0.04876170       0.031
   0.01582755 -0.04824382  0.04876163       0.031
   0.04750061 -0.04823777  0.04876162       0.031
  -0.04751856 -0.04825591  0.04876165       0.031
  -0.01584550 -0.04824986  0.04876164       0.031
   0.01583352 -0.01607924  0.04876165       0.031
   0.04750657 -0.01607319  0.04876164       0.031
  -0.04751259 -0.01609132  0.04876167       0.031
  -0.01583954 -0.01608528  0.04876166       0.031
 
 k-points in reciprocal lattice and weights: Title                                   
   0.12500000  0.12500000  0.12500000       0.031
   0.37500000  0.12500000  0.12500000       0.031
  -0.37500000  0.12500000  0.12500000       0.031
  -0.12500000  0.12500000  0.12500000       0.031
   0.12500000  0.37500000  0.12500000       0.031
   0.37500000  0.37500000  0.12500000       0.031
  -0.37500000  0.37500000  0.12500000       0.031
  -0.12500000  0.37500000  0.12500000       0.031
   0.12500000 -0.37500000  0.12500000       0.031
   0.37500000 -0.37500000  0.12500000       0.031
  -0.37500000 -0.37500000  0.12500000       0.031
  -0.12500000 -0.37500000  0.12500000       0.031
   0.12500000 -0.12500000  0.12500000       0.031
   0.37500000 -0.12500000  0.12500000       0.031
  -0.37500000 -0.12500000  0.12500000       0.031
  -0.12500000 -0.12500000  0.12500000       0.031
   0.12500000  0.12500000  0.37500000       0.031
   0.37500000  0.12500000  0.37500000       0.031
  -0.37500000  0.12500000  0.37500000       0.031
  -0.12500000  0.12500000  0.37500000       0.031
   0.12500000  0.37500000  0.37500000       0.031
   0.37500000  0.37500000  0.37500000       0.031
  -0.37500000  0.37500000  0.37500000       0.031
  -0.12500000  0.37500000  0.37500000       0.031
   0.12500000 -0.37500000  0.37500000       0.031
   0.37500000 -0.37500000  0.37500000       0.031
  -0.37500000 -0.37500000  0.37500000       0.031
  -0.12500000 -0.37500000  0.37500000       0.031
   0.12500000 -0.12500000  0.37500000       0.031
   0.37500000 -0.12500000  0.37500000       0.031
  -0.37500000 -0.12500000  0.37500000       0.031
  -0.12500000 -0.12500000  0.37500000       0.031
 
 position of ions in fractional coordinates (direct lattice) 
   0.00040088  0.00000097  0.99999996
   0.00123501  0.00014142  0.49999993
   0.00164181  0.50002789  0.99999981
   0.97740560  0.49966454  0.50000012
   0.50049117  0.00236594  0.99999987
   0.50043934  0.98716894  0.49999990
   0.50078385  0.49767351  0.00000037
   0.49836478  0.51050336  0.50000159
   0.75960868  0.49889871  0.50000193
   0.50086991  0.25062491  0.00000118
   0.50075948  0.74930623  0.00000066
   0.49859398  0.75032630  0.49999949
   0.50084731  0.99781602  0.25026092
   0.50084199  0.99781572  0.74974094
   0.49932415  0.50208694  0.24856406
   0.49932076  0.50208629  0.75143331
   0.24092284  0.00042262  0.00000458
   0.24305072  0.00296133  0.49999726
   0.23675804  0.49979755  0.00000261
   0.23710733  0.49808984  0.49999833
   0.75991661  0.00037468  0.99999499
   0.75886926  0.00347740  0.50000252
   0.76596601  0.49984822  0.99999730
   0.00033483  0.25786704  0.99999999
   0.00509919  0.25331096  0.49999993
   0.00042735  0.74219644  0.99999965
   0.00505455  0.74665813  0.49999973
   0.49775432  0.24893581  0.49999935
   0.99969934  0.99955974  0.25079721
   0.99971022  0.99956040  0.74920269
   0.00419738  0.50021623  0.24563094
   0.00420331  0.50021598  0.75436887
 
 position of ions in cartesian coordinates  (Angst):
   0.00316620  0.00000230  7.69046707
   0.00974887  0.00109504  3.84523314
   0.01221946  3.88647219  7.69046333
   7.71406360  3.88222167  3.84523617
   3.95044766  0.01765191  7.69046843
   3.94857699  7.67206006  3.84522999
   3.95202122  3.86744648  0.00000245
   3.93290911  3.96716810  3.84524541
   5.99496220  3.87658813  3.84524920
   3.95306692  1.94725498  0.00000995
   3.95145563  5.82326809  0.00000337
   3.93436255  5.83119748  3.84522801
   3.95178087  7.75481533  1.92462043
   3.95173986  7.75481068  5.76585526
   3.94049350  3.90175096  1.91157335
   3.94046777  3.90174362  5.77887288
   1.90163817  0.00293208  0.00003624
   1.91843106  0.02265883  3.84521363
   1.86802416  3.88434221  0.00001856
   1.87078467  3.87106622  3.84521927
   5.99813307  0.00179496  7.69043203
   5.98986062  0.02591476  3.84525622
   6.04514114  3.88395658  7.69044728
   0.00226238  2.00427284  7.69046599
   0.03987395  1.96885599  3.84523190
   0.00227437  5.76873500  7.69046091
   0.03878988  5.80340914  3.84522779
   3.92847859  1.93412866  3.84522949
   7.88928941  7.76763808  1.92874688
   7.88937630  7.76764086  5.76171798
   0.03238916  3.88793576  1.88901416
   0.03243698  3.88793147  5.80144664
 


--------------------------------------------------------------------------------------------------------


 k-point  1 :   0.1250 0.1250 0.1250  plane waves:   19834
 k-point  2 :   0.3750 0.1250 0.1250  plane waves:   19873
 k-point  3 :  -0.3750 0.1250 0.1250  plane waves:   19876
 k-point  4 :  -0.1250 0.1250 0.1250  plane waves:   19840
 k-point  5 :   0.1250 0.3750 0.1250  plane waves:   19846
 k-point  6 :   0.3750 0.3750 0.1250  plane waves:   19848
 k-point  7 :  -0.3750 0.3750 0.1250  plane waves:   19853
 k-point  8 :  -0.1250 0.3750 0.1250  plane waves:   19848
 k-point  9 :   0.1250-0.3750 0.1250  plane waves:   19848
 k-point 10 :   0.3750-0.3750 0.1250  plane waves:   19853
 k-point 11 :  -0.3750-0.3750 0.1250  plane waves:   19848
 k-point 12 :  -0.1250-0.3750 0.1250  plane waves:   19846
 k-point 13 :   0.1250-0.1250 0.1250  plane waves:   19840
 k-point 14 :   0.3750-0.1250 0.1250  plane waves:   19875
 k-point 15 :  -0.3750-0.1250 0.1250  plane waves:   19873
 k-point 16 :  -0.1250-0.1250 0.1250  plane waves:   19834
 k-point 17 :   0.1250 0.1250 0.3750  plane waves:   19821
 k-point 18 :   0.3750 0.1250 0.3750  plane waves:   19836
 k-point 19 :  -0.3750 0.1250 0.3750  plane waves:   19836
 k-point 20 :  -0.1250 0.1250 0.3750  plane waves:   19824
 k-point 21 :   0.1250 0.3750 0.3750  plane waves:   19832
 k-point 22 :   0.3750 0.3750 0.3750  plane waves:   19842
 k-point 23 :  -0.3750 0.3750 0.3750  plane waves:   19844
 k-point 24 :  -0.1250 0.3750 0.3750  plane waves:   19832
 k-point 25 :   0.1250-0.3750 0.3750  plane waves:   19832
 k-point 26 :   0.3750-0.3750 0.3750  plane waves:   19844
 k-point 27 :  -0.3750-0.3750 0.3750  plane waves:   19842
 k-point 28 :  -0.1250-0.3750 0.3750  plane waves:   19832
 k-point 29 :   0.1250-0.1250 0.3750  plane waves:   19824
 k-point 30 :   0.3750-0.1250 0.3750  plane waves:   19836
 k-point 31 :  -0.3750-0.1250 0.3750  plane waves:   19836
 k-point 32 :  -0.1250-0.1250 0.3750  plane waves:   19821

 maximum and minimum number of plane-waves per node :      2506     2437

 maximum number of plane-waves:     19876
 maximum index in each direction: 
   IXMAX=   17   IYMAX=   17   IZMAX=   16
   IXMIN=  -17   IYMIN=  -17   IZMIN=  -16


 real space projection operators:
  total allocation   :      18154.14 KBytes
  max/ min on nodes  :       2414.92       1885.09


 parallel 3D FFT for wavefunctions:
    minimum data exchange during FFTs selected (reduces bandwidth)
 parallel 3D FFT for charge:
    minimum data exchange during FFTs selected (reduces bandwidth)


 total amount of memory used by VASP MPI-rank0   108172. kBytes
=======================================================================

   base      :      30000. kBytes
   nonlr-proj:       8413. kBytes
   fftplans  :       8424. kBytes
   grid      :       8783. kBytes
   one-center:        124. kBytes
   wavefun   :      52428. kBytes
 
     INWAV:  cpu time   30.5774: real time   39.5115
 Broyden mixing: mesh for mixing (old mesh)
   NGX = 35   NGY = 33   NGZ = 33
  (NGX  =140   NGY  =140   NGZ  =140)
  gives a total of  38115 points

 charge density for first step will be calculated from the start-wavefunctions


--------------------------------------------------------------------------------------------------------


 Maximum index for non-local projection operator         1357
 Maximum index for augmentation-charges         7752 (set IRDMAX)


--------------------------------------------------------------------------------------------------------


 initial charge from wavefunction
 First call to EWALD:  gamma=   0.228
 Maximum number of real-space cells 3x 3x 3
 Maximum number of reciprocal cells 3x 3x 3

    FEWALD:  cpu time    0.0040: real time    0.0036


--------------------------------------- Iteration      1(   1)  ---------------------------------------


    POTLOK:  cpu time    0.1410: real time    0.2139
    SETDIJ:  cpu time    0.8369: real time    0.8430
     EDDAV:  cpu time   28.2427: real time   28.2775
       DOS:  cpu time    0.0050: real time    0.0052
    CHARGE:  cpu time    1.1818: real time    1.1790
    MIXING:  cpu time    0.0030: real time    0.0022
    --------------------------------------------
      LOOP:  cpu time   30.4104: real time   30.5209

 eigenvalue-minimisations  : 20480
 total energy-change (2. order) :-0.2074214E+03  (-0.9593791E-03)
 number of electron     240.0000003 magnetization      -1.1847836
 augmentation part       62.0561817 magnetization      -0.8611223

 Broyden mixing:
  rms(total) = 0.77050E-02    rms(broyden)= 0.77041E-02
  rms(prec ) = 0.11484E-01
  weight for this iteration     100.00

 Free energy of the ion-electron system (eV)
  ---------------------------------------------------
  alpha Z        PSCENC =       742.17993963
  Ewald energy   TEWEN  =    -12618.36236471
  -Hartree energ DENC   =     -8378.42070123
  -exchange      EXHF   =         0.00000000
  -V(xc)+E(xc)   XCENC  =      1118.91561008
  PAW double counting   =     17969.16223071   -18088.99087518
  entropy T*S    EENTRO =        -0.00131623
  eigenvalues    EBANDS =     -3254.25715576
  atomic energy  EATOM  =     22302.35321627
  Solvation  Ediel_sol  =         0.00000000
  ---------------------------------------------------
  free energy    TOTEN  =      -207.42141643 eV

  energy without entropy =     -207.42010019  energy(sigma->0) =     -207.42075831


--------------------------------------------------------------------------------------------------------




--------------------------------------- Iteration      1(   2)  ---------------------------------------


    POTLOK:  cpu time    0.1500: real time    0.1709
    SETDIJ:  cpu time    0.8399: real time    0.8370
     EDDAV:  cpu time   35.3966: real time   35.3878
       DOS:  cpu time    0.0050: real time    0.0051
    CHARGE:  cpu time    1.1738: real time    1.1716
    MIXING:  cpu time    0.0020: real time    0.0022
    --------------------------------------------
      LOOP:  cpu time   37.5673: real time   37.5746

 eigenvalue-minimisations  : 27216
 total energy-change (2. order) : 0.4425863E-04  (-0.2516342E-04)
 number of electron     240.0000003 magnetization      -1.1913231
 augmentation part       62.0653505 magnetization      -0.8449092

 Broyden mixing:
  rms(total) = 0.15970E-01    rms(broyden)= 0.15969E-01
  rms(prec ) = 0.21763E-01
  weight for this iteration     100.00

 eigenvalues of (default mixing * dielectric matrix)
  average eigenvalue GAMMA=   0.3104
  0.3104

 Free energy of the ion-electron system (eV)
  ---------------------------------------------------
  alpha Z        PSCENC =       742.17993963
  Ewald energy   TEWEN  =    -12618.36236471
  -Hartree energ DENC   =     -8378.29265555
  -exchange      EXHF   =         0.00000000
  -V(xc)+E(xc)   XCENC  =      1118.91188011
  PAW double counting   =     17968.90329102   -18088.76033537
  entropy T*S    EENTRO =        -0.00138914
  eigenvalues    EBANDS =     -3254.35295443
  atomic energy  EATOM  =     22302.35321627
  Solvation  Ediel_sol  =         0.00000000
  ---------------------------------------------------
  free energy    TOTEN  =      -207.42137217 eV

  energy without entropy =     -207.41998303  energy(sigma->0) =     -207.42067760


--------------------------------------------------------------------------------------------------------




--------------------------------------- Iteration      1(   3)  ---------------------------------------


    POTLOK:  cpu time    0.3260: real time    0.3416
    SETDIJ:  cpu time    0.8439: real time    0.8419
     EDDAV:  cpu time   35.3176: real time   35.3038
       DOS:  cpu time    0.0050: real time    0.0054
    CHARGE:  cpu time    1.1788: real time    1.1767
    MIXING:  cpu time    0.0030: real time    0.0022
    --------------------------------------------
      LOOP:  cpu time   37.6743: real time   37.6717

 eigenvalue-minimisations  : 27520
 total energy-change (2. order) :-0.8086847E-04  (-0.1632519E-04)
 number of electron     240.0000003 magnetization      -1.1945924
 augmentation part       62.0687381 magnetization      -0.8322938

 Broyden mixing:
  rms(total) = 0.20840E-01    rms(broyden)= 0.20839E-01
  rms(prec ) = 0.30603E-01
  weight for this iteration     100.00

 eigenvalues of (default mixing * dielectric matrix)
  average eigenvalue GAMMA=   0.2698
  0.2698  0.2698

 Free energy of the ion-electron system (eV)
  ---------------------------------------------------
  alpha Z        PSCENC =       742.17993963
  Ewald energy   TEWEN  =    -12618.36236471
  -Hartree energ DENC   =     -8378.33899481
  -exchange      EXHF   =         0.00000000
  -V(xc)+E(xc)   XCENC  =      1118.91194914
  PAW double counting   =     17969.02007876   -18088.85300569
  entropy T*S    EENTRO =        -0.00140944
  eigenvalues    EBANDS =     -3254.33086219
  atomic energy  EATOM  =     22302.35321627
  Solvation  Ediel_sol  =         0.00000000
  ---------------------------------------------------
  free energy    TOTEN  =      -207.42145304 eV

  energy without entropy =     -207.42004359  energy(sigma->0) =     -207.42074832


--------------------------------------------------------------------------------------------------------




--------------------------------------- Iteration      1(   4)  ---------------------------------------


    POTLOK:  cpu time    0.1490: real time    0.1600
    SETDIJ:  cpu time    0.8379: real time    0.8378
     EDDAV:  cpu time   33.8908: real time   33.8872
       DOS:  cpu time    0.0050: real time    0.0051
    CHARGE:  cpu time    1.1748: real time    1.1728
    MIXING:  cpu time    0.0020: real time    0.0022
    --------------------------------------------
      LOOP:  cpu time   36.0595: real time   36.0651

 eigenvalue-minimisations  : 26040
 total energy-change (2. order) : 0.4270330E-04  (-0.3343341E-05)
 number of electron     240.0000003 magnetization      -1.1957287
 augmentation part       62.0627608 magnetization      -0.8518868

 Broyden mixing:
  rms(total) = 0.69135E-02    rms(broyden)= 0.69123E-02
  rms(prec ) = 0.10218E-01
  weight for this iteration     100.00

 eigenvalues of (default mixing * dielectric matrix)
  average eigenvalue GAMMA=   0.3284
  0.3589  0.3132  0.3132

 Free energy of the ion-electron system (eV)
  ---------------------------------------------------
  alpha Z        PSCENC =       742.17993963
  Ewald energy   TEWEN  =    -12618.36236471
  -Hartree energ DENC   =     -8378.38204518
  -exchange      EXHF   =         0.00000000
  -V(xc)+E(xc)   XCENC  =      1118.91400329
  PAW double counting   =     17969.10076203   -18088.93116982
  entropy T*S    EENTRO =        -0.00138439
  eigenvalues    EBANDS =     -3254.29236746
  atomic energy  EATOM  =     22302.35321627
  Solvation  Ediel_sol  =         0.00000000
  ---------------------------------------------------
  free energy    TOTEN  =      -207.42141033 eV

  energy without entropy =     -207.42002594  energy(sigma->0) =     -207.42071814


--------------------------------------------------------------------------------------------------------




--------------------------------------- Iteration      1(   5)  ---------------------------------------


    POTLOK:  cpu time    0.1550: real time    0.1701
    SETDIJ:  cpu time    0.8419: real time    0.8396
     EDDAV:  cpu time   31.6452: real time   31.6308
       DOS:  cpu time    0.0060: real time    0.0054
    CHARGE:  cpu time    1.1858: real time    1.1844
    MIXING:  cpu time    0.0080: real time    0.0079
    --------------------------------------------
      LOOP:  cpu time   33.8419: real time   33.8382

 eigenvalue-minimisations  : 23784
 total energy-change (2. order) : 0.1973687E-05  (-0.5796932E-06)
 number of electron     240.0000003 magnetization      -1.1958715
 augmentation part       62.0597046 magnetization      -0.8614563

 Broyden mixing:
  rms(total) = 0.18318E-03    rms(broyden)= 0.14333E-03
  rms(prec ) = 0.18984E-03
  weight for this iteration     100.00
  WARNING: grid for Broyden might be to small

 eigenvalues of (default mixing * dielectric matrix)
  average eigenvalue GAMMA=   0.3770
  0.3253  0.3253  0.4287  0.4287

 Free energy of the ion-electron system (eV)
  ---------------------------------------------------
  alpha Z        PSCENC =       742.17993963
  Ewald energy   TEWEN  =    -12618.36236471
  -Hartree energ DENC   =     -8378.39858688
  -exchange      EXHF   =         0.00000000
  -V(xc)+E(xc)   XCENC  =      1118.91476194
  PAW double counting   =     17969.13452756   -18088.96417965
  entropy T*S    EENTRO =        -0.00135795
  eigenvalues    EBANDS =     -3254.27736458
  atomic energy  EATOM  =     22302.35321627
  Solvation  Ediel_sol  =         0.00000000
  ---------------------------------------------------
  free energy    TOTEN  =      -207.42140836 eV

  energy without entropy =     -207.42005041  energy(sigma->0) =     -207.42072938


--------------------------------------------------------------------------------------------------------




--------------------------------------- Iteration      1(   6)  ---------------------------------------


    POTLOK:  cpu time    0.1450: real time    0.1563
    SETDIJ:  cpu time    0.8399: real time    0.8378
     EDDAV:  cpu time   21.5007: real time   21.4883
       DOS:  cpu time    0.0050: real time    0.0054
    CHARGE:  cpu time    1.2028: real time    1.2006
    MIXING:  cpu time    0.0020: real time    0.0027
    --------------------------------------------
      LOOP:  cpu time   23.6954: real time   23.6912

 eigenvalue-minimisations  : 13656
 total energy-change (2. order) :-0.1081185E-05  (-0.6902129E-07)
 number of electron     240.0000003 magnetization      -1.1959346
 augmentation part       62.0597622 magnetization      -0.8613010

 Broyden mixing:
  rms(total) = 0.13904E-03    rms(broyden)= 0.13750E-03
  rms(prec ) = 0.18403E-03
  weight for this iteration     100.00

 eigenvalues of (default mixing * dielectric matrix)
  average eigenvalue GAMMA=   0.4814
  0.6926  0.6926  0.3223  0.3223  0.3772

 Free energy of the ion-electron system (eV)
  ---------------------------------------------------
  alpha Z        PSCENC =       742.17993963
  Ewald energy   TEWEN  =    -12618.36236471
  -Hartree energ DENC   =     -8378.39777698
  -exchange      EXHF   =         0.00000000
  -V(xc)+E(xc)   XCENC  =      1118.91470518
  PAW double counting   =     17969.13827447   -18088.96748699
  entropy T*S    EENTRO =        -0.00135865
  eigenvalues    EBANDS =     -3254.27855766
  atomic energy  EATOM  =     22302.35321627
  Solvation  Ediel_sol  =         0.00000000
  ---------------------------------------------------
  free energy    TOTEN  =      -207.42140944 eV

  energy without entropy =     -207.42005079  energy(sigma->0) =     -207.42073012


--------------------------------------------------------------------------------------------------------




--------------------------------------- Iteration      1(   7)  ---------------------------------------


    POTLOK:  cpu time    0.1750: real time    0.1860
    SETDIJ:  cpu time    0.8389: real time    0.8379
     EDDAV:  cpu time   19.0011: real time   18.9883
       DOS:  cpu time    0.0050: real time    0.0053
    --------------------------------------------
      LOOP:  cpu time   20.0200: real time   20.0175

 eigenvalue-minimisations  : 11008
 total energy-change (2. order) :-0.5379479E-07  (-0.1095722E-07)
 number of electron     240.0000003 magnetization      -1.1959346
 augmentation part       62.0597622 magnetization      -0.8613010

 Free energy of the ion-electron system (eV)
  ---------------------------------------------------
  alpha Z        PSCENC =       742.17993963
  Ewald energy   TEWEN  =    -12618.36236471
  -Hartree energ DENC   =     -8378.39768032
  -exchange      EXHF   =         0.00000000
  -V(xc)+E(xc)   XCENC  =      1118.91470497
  PAW double counting   =     17969.14065447   -18088.96971623
  entropy T*S    EENTRO =        -0.00135905
  eigenvalues    EBANDS =     -3254.27880452
  atomic energy  EATOM  =     22302.35321627
  Solvation  Ediel_sol  =         0.00000000
  ---------------------------------------------------
  free energy    TOTEN  =      -207.42140950 eV

  energy without entropy =     -207.42005044  energy(sigma->0) =     -207.42072997


--------------------------------------------------------------------------------------------------------




 average (electrostatic) potential at core
  the test charge radii are     1.0397  0.7215  0.7167
  (the norm of the test charge is              1.0000)
       1 -58.3679       2 -58.6278       3 -60.8597       4 -59.1719       5 -57.8586
       6 -58.0955       7 -57.8102       8 -58.0471       9 -74.3705      10 -73.2373
      11 -73.4606      12 -73.7207      13 -73.1087      14 -73.1087      15 -73.1361
      16 -73.1360      17 -79.4053      18 -79.4174      19 -80.0664      20 -78.3330
      21 -79.3992      22 -79.4210      23 -80.0544      24 -80.5524      25 -79.9297
      26 -80.5530      27 -79.9361      28 -78.0258      29 -79.9901      30 -79.9901
      31 -80.6775      32 -80.6775
 
 
 
 E-fermi :   0.4027     XC(G=0):  -8.8801     alpha+bet : -7.4894


 spin component 1

 k-point     1 :       0.1250    0.1250    0.1250
  band No.  band energies     occupation 
      1     -36.7843      1.00000
      2     -36.7787      1.00000
      3     -36.7497      1.00000
      4     -35.2866      1.00000
      5     -35.2725      1.00000
      6     -34.9884      1.00000
      7     -34.9533      1.00000
      8     -34.8244      1.00000
      9     -34.1638      1.00000
     10     -34.0857      1.00000
     11     -34.0190      1.00000
     12     -33.9940      1.00000
     13     -33.9860      1.00000
     14     -33.9349      1.00000
     15     -33.9232      1.00000
     16     -33.8999      1.00000
     17     -33.7530      1.00000
     18     -33.7257      1.00000
     19     -33.7130      1.00000
     20     -33.7062      1.00000
     21     -33.6074      1.00000
     22     -33.5622      1.00000
     23     -33.5431      1.00000
     24     -33.5279      1.00000
     25     -24.6523      1.00000
     26     -24.3945      1.00000
     27     -24.0445      1.00000
     28     -23.9651      1.00000
     29     -23.8955      1.00000
     30     -23.8556      1.00000
     31     -23.7468      1.00000
     32     -23.3773      1.00000
     33     -23.3304      1.00000
     34     -23.3102      1.00000
     35     -23.2401      1.00000
     36     -23.2363      1.00000
     37     -22.8281      1.00000
     38     -22.7939      1.00000
     39     -21.9918      1.00000
     40     -21.6626      1.00000
     41     -16.6542      1.00000
     42     -16.2934      1.00000
     43     -16.0940      1.00000
     44     -15.8706      1.00000
     45     -15.7089      1.00000
     46     -15.3244      1.00000
     47     -15.2128      1.00000
     48     -15.1830      1.00000
     49      -8.2464      1.00000
     50      -8.0350      1.00000
     51      -7.4537      1.00000
     52      -7.4331      1.00000
     53      -7.2265      1.00000
     54      -6.8197      1.00000
     55      -6.7432      1.00000
     56      -6.7070      1.00000
     57      -6.6998      1.00000
     58      -6.5413      1.00000
     59      -6.4600      1.00000
     60      -6.4469      1.00000
     61      -6.1413      1.00000
     62      -6.0167      1.00000
     63      -5.9136      1.00000
     64      -5.9018      1.00000
     65      -5.7144      1.00000
     66      -5.6593      1.00000
     67      -5.6273      1.00000
     68      -5.5916      1.00000
     69      -5.5811      1.00000
     70      -5.3820      1.00000
     71      -5.2382      1.00000
     72      -5.1928      1.00000
     73      -5.1436      1.00000
     74      -5.1186      1.00000
     75      -5.0949      1.00000
     76      -4.8227      1.00000
     77      -4.7954      1.00000
     78      -4.7782      1.00000
     79      -4.7251      1.00000
     80      -4.7099      1.00000
     81      -4.6780      1.00000
     82      -4.6455      1.00000
     83      -4.6092      1.00000
     84      -4.3671      1.00000
     85      -4.3595      1.00000
     86      -4.3213      1.00000
     87      -4.2774      1.00000
     88      -4.1818      1.00000
     89      -4.1737      1.00000
     90      -4.1120      1.00000
     91      -4.1041      1.00000
     92      -3.9401      1.00000
     93      -3.8499      1.00000
     94      -3.8394      1.00000
     95      -3.7942      1.00000
     96      -3.5920      1.00000
     97      -3.5028      1.00000
     98      -3.3547      1.00000
     99      -3.2475      1.00000
    100      -2.9274      1.00000
    101      -2.6288      1.00000
    102      -2.6061      1.00000
    103      -2.4284      1.00000
    104      -2.1745      1.00000
    105      -1.9071      1.00000
    106      -1.6887      1.00000
    107      -1.5595      1.00000
    108      -1.4246      1.00000
    109      -1.2845      1.00000
    110      -1.2121      1.00000
    111      -1.1375      1.00000
    112      -1.0482      1.00000
    113      -1.0281      1.00000
    114      -0.9715      1.00000
    115      -0.6085      1.00000
    116      -0.5788      1.00000
    117      -0.3910      1.00000
    118      -0.3230      1.00000
    119      -0.1007      1.00000
    120       0.6756      0.00000
    121       1.0753      0.00000
    122       1.1884      0.00000
    123       1.2145      0.00000
    124       2.2930      0.00000
    125       2.3493      0.00000
    126       2.3661      0.00000
    127       2.5326      0.00000
    128       2.6289      0.00000
    129       2.6625      0.00000
    130       2.9516      0.00000
    131       2.9641      0.00000
    132       3.1844      0.00000
    133       3.2974      0.00000
    134       3.3152      0.00000
    135       3.3849      0.00000
    136       3.3999      0.00000
    137       3.4496      0.00000
    138       3.5401      0.00000
    139       3.6682      0.00000
    140       3.6836      0.00000
    141       3.9557      0.00000
    142       4.1593      0.00000
    143       4.2783      0.00000
    144       4.3141      0.00000
    145       4.4013      0.00000
    146       4.4583      0.00000
    147       4.4707      0.00000
    148       4.5259      0.00000
    149       4.5648      0.00000
    150       4.5808      0.00000
    151       4.6118      0.00000
    152       4.6885      0.00000
    153       5.1151      0.00000
    154       5.1812      0.00000
    155       5.4872      0.00000
    156       5.8560      0.00000
    157       5.9936      0.00000
    158       6.2934      0.00000
    159       6.4865      0.00000
    160       6.8032      0.00000

 k-point     2 :       0.3750    0.1250    0.1250
  band No.  band energies     occupation 
      1     -36.7843      1.00000
      2     -36.7787      1.00000
      3     -36.7493      1.00000
      4     -35.2866      1.00000
      5     -35.2725      1.00000
      6     -34.9865      1.00000
      7     -34.9527      1.00000
      8     -34.8225      1.00000
      9     -34.1665      1.00000
     10     -34.0857      1.00000
     11     -34.0190      1.00000
     12     -33.9940      1.00000
     13     -33.9868      1.00000
     14     -33.9376      1.00000
     15     -33.9243      1.00000
     16     -33.8999      1.00000
     17     -33.7530      1.00000
     18     -33.7257      1.00000
     19     -33.7130      1.00000
     20     -33.7062      1.00000
     21     -33.6074      1.00000
     22     -33.5622      1.00000
     23     -33.5431      1.00000
     24     -33.5279      1.00000
     25     -24.6502      1.00000
     26     -24.3937      1.00000
     27     -24.0440      1.00000
     28     -23.9609      1.00000
     29     -23.8945      1.00000
     30     -23.7861      1.00000
     31     -23.7459      1.00000
     32     -23.4562      1.00000
     33     -23.3271      1.00000
     34     -23.3074      1.00000
     35     -23.1520      1.00000
     36     -23.1461      1.00000
     37     -22.9294      1.00000
     38     -22.8911      1.00000
     39     -21.9869      1.00000
     40     -21.6625      1.00000
     41     -16.6710      1.00000
     42     -16.2916      1.00000
     43     -16.0931      1.00000
     44     -15.8692      1.00000
     45     -15.7087      1.00000
     46     -15.3244      1.00000
     47     -15.2128      1.00000
     48     -15.1830      1.00000
     49      -8.2462      1.00000
     50      -8.0334      1.00000
     51      -7.4320      1.00000
     52      -7.2258      1.00000
     53      -7.1772      1.00000
     54      -6.8196      1.00000
     55      -6.7082      1.00000
     56      -6.5457      1.00000
     57      -6.4344      1.00000
     58      -6.4274      1.00000
     59      -6.4169      1.00000
     60      -6.3733      1.00000
     61      -6.3367      1.00000
     62      -6.0171      1.00000
     63      -5.9063      1.00000
     64      -5.9015      1.00000
     65      -5.8720      1.00000
     66      -5.7278      1.00000
     67      -5.6602      1.00000
     68      -5.6313      1.00000
     69      -5.5876      1.00000
     70      -5.5320      1.00000
     71      -5.2406      1.00000
     72      -5.2054      1.00000
     73      -5.1648      1.00000
     74      -5.1523      1.00000
     75      -5.0453      1.00000
     76      -4.9246      1.00000
     77      -4.8722      1.00000
     78      -4.8504      1.00000
     79      -4.7431      1.00000
     80      -4.7013      1.00000
     81      -4.6794      1.00000
     82      -4.6322      1.00000
     83      -4.5720      1.00000
     84      -4.5320      1.00000
     85      -4.4863      1.00000
     86      -4.3500      1.00000
     87      -4.3235      1.00000
     88      -4.1443      1.00000
     89      -4.1214      1.00000
     90      -4.1161      1.00000
     91      -4.0829      1.00000
     92      -3.8937      1.00000
     93      -3.8640      1.00000
     94      -3.8091      1.00000
     95      -3.7185      1.00000
     96      -3.6576      1.00000
     97      -3.5901      1.00000
     98      -3.3659      1.00000
     99      -3.3086      1.00000
    100      -2.9095      1.00000
    101      -2.6669      1.00000
    102      -2.6252      1.00000
    103      -2.4606      1.00000
    104      -2.2238      1.00000
    105      -1.9269      1.00000
    106      -1.6981      1.00000
    107      -1.5676      1.00000
    108      -1.4299      1.00000
    109      -1.2625      1.00000
    110      -1.2267      1.00000
    111      -1.1246      1.00000
    112      -1.0430      1.00000
    113      -1.0044      1.00000
    114      -0.9898      1.00000
    115      -0.6110      1.00000
    116      -0.6034      1.00000
    117      -0.3940      1.00000
    118      -0.3249      1.00000
    119      -0.1015      1.00000
    120       0.6755      0.00000
    121       1.0752      0.00000
    122       1.2355      0.00000
    123       1.2458      0.00000
    124       2.3107      0.00000
    125       2.3500      0.00000
    126       2.5589      0.00000
    127       2.7144      0.00000
    128       2.7286      0.00000
    129       2.9232      0.00000
    130       2.9642      0.00000
    131       3.0516      0.00000
    132       3.0832      0.00000
    133       3.1142      0.00000
    134       3.2482      0.00000
    135       3.2710      0.00000
    136       3.2763      0.00000
    137       3.5459      0.00000
    138       3.6302      0.00000
    139       3.6689      0.00000
    140       4.0421      0.00000
    141       4.2253      0.00000
    142       4.2576      0.00000
    143       4.2902      0.00000
    144       4.4409      0.00000
    145       4.4577      0.00000
    146       4.4914      0.00000
    147       4.5349      0.00000
    148       4.5458      0.00000
    149       4.5525      0.00000
    150       4.5729      0.00000
    151       4.5817      0.00000
    152       4.7070      0.00000
    153       5.0859      0.00000
    154       5.1239      0.00000
    155       5.3206      0.00000
    156       5.6767      0.00000
    157       6.0657      0.00000
    158       6.1418      0.00000
    159       6.3568      0.00000
    160       6.6240      0.00000

 k-point     3 :      -0.3750    0.1250    0.1250
  band No.  band energies     occupation 
      1     -36.7843      1.00000
      2     -36.7787      1.00000
      3     -36.7493      1.00000
      4     -35.2866      1.00000
      5     -35.2725      1.00000
      6     -34.9865      1.00000
      7     -34.9527      1.00000
      8     -34.8225      1.00000
      9     -34.1665      1.00000
     10     -34.0857      1.00000
     11     -34.0190      1.00000
     12     -33.9940      1.00000
     13     -33.9868      1.00000
     14     -33.9376      1.00000
     15     -33.9243      1.00000
     16     -33.8999      1.00000
     17     -33.7530      1.00000
     18     -33.7257      1.00000
     19     -33.7130      1.00000
     20     -33.7062      1.00000
     21     -33.6074      1.00000
     22     -33.5622      1.00000
     23     -33.5431      1.00000
     24     -33.5279      1.00000
     25     -24.6502      1.00000
     26     -24.3937      1.00000
     27     -24.0440      1.00000
     28     -23.9609      1.00000
     29     -23.8945      1.00000
     30     -23.7861      1.00000
     31     -23.7459      1.00000
     32     -23.4562      1.00000
     33     -23.3271      1.00000
     34     -23.3074      1.00000
     35     -23.1520      1.00000
     36     -23.1461      1.00000
     37     -22.9294      1.00000
     38     -22.8911      1.00000
     39     -21.9869      1.00000
     40     -21.6625      1.00000
     41     -16.6710      1.00000
     42     -16.2916      1.00000
     43     -16.0931      1.00000
     44     -15.8692      1.00000
     45     -15.7087      1.00000
     46     -15.3244      1.00000
     47     -15.2128      1.00000
     48     -15.1830      1.00000
     49      -8.2462      1.00000
     50      -8.0334      1.00000
     51      -7.4320      1.00000
     52      -7.2258      1.00000
     53      -7.1772      1.00000
     54      -6.8196      1.00000
     55      -6.7082      1.00000
     56      -6.5457      1.00000
     57      -6.4345      1.00000
     58      -6.4282      1.00000
     59      -6.4168      1.00000
     60      -6.3733      1.00000
     61      -6.3366      1.00000
     62      -6.0174      1.00000
     63      -5.9049      1.00000
     64      -5.9017      1.00000
     65      -5.8720      1.00000
     66      -5.7286      1.00000
     67      -5.6474      1.00000
     68      -5.6306      1.00000
     69      -5.5882      1.00000
     70      -5.5451      1.00000
     71      -5.2422      1.00000
     72      -5.2048      1.00000
     73      -5.1649      1.00000
     74      -5.1510      1.00000
     75      -5.0544      1.00000
     76      -4.9243      1.00000
     77      -4.8722      1.00000
     78      -4.8507      1.00000
     79      -4.7429      1.00000
     80      -4.7009      1.00000
     81      -4.6788      1.00000
     82      -4.6234      1.00000
     83      -4.5726      1.00000
     84      -4.5317      1.00000
     85      -4.4799      1.00000
     86      -4.3501      1.00000
     87      -4.3236      1.00000
     88      -4.1443      1.00000
     89      -4.1279      1.00000
     90      -4.1162      1.00000
     91      -4.0833      1.00000
     92      -3.8929      1.00000
     93      -3.8641      1.00000
     94      -3.8091      1.00000
     95      -3.7186      1.00000
     96      -3.6504      1.00000
     97      -3.5899      1.00000
     98      -3.3664      1.00000
     99      -3.3093      1.00000
    100      -2.9221      1.00000
    101      -2.6816      1.00000
    102      -2.6232      1.00000
    103      -2.4622      1.00000
    104      -2.1944      1.00000
    105      -1.9269      1.00000
    106      -1.6982      1.00000
    107      -1.5675      1.00000
    108      -1.4388      1.00000
    109      -1.2629      1.00000
    110      -1.2264      1.00000
    111      -1.1243      1.00000
    112      -1.0429      1.00000
    113      -1.0040      1.00000
    114      -0.9911      1.00000
    115      -0.6111      1.00000
    116      -0.6033      1.00000
    117      -0.3940      1.00000
    118      -0.3250      1.00000
    119      -0.1015      1.00000
    120       0.6754      0.00000
    121       1.0752      0.00000
    122       1.2355      0.00000
    123       1.2458      0.00000
    124       2.3098      0.00000
    125       2.3500      0.00000
    126       2.5709      0.00000
    127       2.7145      0.00000
    128       2.7287      0.00000
    129       2.9238      0.00000
    130       2.9642      0.00000
    131       3.0438      0.00000
    132       3.0580      0.00000
    133       3.1136      0.00000
    134       3.2488      0.00000
    135       3.2725      0.00000
    136       3.3019      0.00000
    137       3.5459      0.00000
    138       3.6243      0.00000
    139       3.6688      0.00000
    140       4.0424      0.00000
    141       4.2290      0.00000
    142       4.2536      0.00000
    143       4.2917      0.00000
    144       4.4310      0.00000
    145       4.4577      0.00000
    146       4.4926      0.00000
    147       4.5371      0.00000
    148       4.5461      0.00000
    149       4.5550      0.00000
    150       4.5714      0.00000
    151       4.5830      0.00000
    152       4.7075      0.00000
    153       5.0889      0.00000
    154       5.1244      0.00000
    155       5.3277      0.00000
    156       5.6716      0.00000
    157       6.0655      0.00000
    158       6.1384      0.00000
    159       6.3560      0.00000
    160       6.6229      0.00000

 k-point     4 :      -0.1250    0.1250    0.1250
  band No.  band energies     occupation 
      1     -36.7843      1.00000
      2     -36.7787      1.00000
      3     -36.7497      1.00000
      4     -35.2866      1.00000
      5     -35.2725      1.00000
      6     -34.9884      1.00000
      7     -34.9533      1.00000
      8     -34.8244      1.00000
      9     -34.1638      1.00000
     10     -34.0857      1.00000
     11     -34.0190      1.00000
     12     -33.9940      1.00000
     13     -33.9860      1.00000
     14     -33.9349      1.00000
     15     -33.9232      1.00000
     16     -33.8999      1.00000
     17     -33.7530      1.00000
     18     -33.7257      1.00000
     19     -33.7130      1.00000
     20     -33.7062      1.00000
     21     -33.6074      1.00000
     22     -33.5622      1.00000
     23     -33.5431      1.00000
     24     -33.5279      1.00000
     25     -24.6523      1.00000
     26     -24.3945      1.00000
     27     -24.0445      1.00000
     28     -23.9651      1.00000
     29     -23.8955      1.00000
     30     -23.8556      1.00000
     31     -23.7468      1.00000
     32     -23.3773      1.00000
     33     -23.3304      1.00000
     34     -23.3102      1.00000
     35     -23.2402      1.00000
     36     -23.2363      1.00000
     37     -22.8281      1.00000
     38     -22.7939      1.00000
     39     -21.9917      1.00000
     40     -21.6626      1.00000
     41     -16.6542      1.00000
     42     -16.2934      1.00000
     43     -16.0940      1.00000
     44     -15.8706      1.00000
     45     -15.7089      1.00000
     46     -15.3244      1.00000
     47     -15.2128      1.00000
     48     -15.1830      1.00000
     49      -8.2464      1.00000
     50      -8.0350      1.00000
     51      -7.4537      1.00000
     52      -7.4330      1.00000
     53      -7.2266      1.00000
     54      -6.8197      1.00000
     55      -6.7434      1.00000
     56      -6.7070      1.00000
     57      -6.6998      1.00000
     58      -6.5413      1.00000
     59      -6.4600      1.00000
     60      -6.4469      1.00000
     61      -6.1412      1.00000
     62      -6.0166      1.00000
     63      -5.9136      1.00000
     64      -5.9018      1.00000
     65      -5.7064      1.00000
     66      -5.6608      1.00000
     67      -5.6262      1.00000
     68      -5.5972      1.00000
     69      -5.5823      1.00000
     70      -5.3858      1.00000
     71      -5.2381      1.00000
     72      -5.1935      1.00000
     73      -5.1433      1.00000
     74      -5.1158      1.00000
     75      -5.0987      1.00000
     76      -4.8223      1.00000
     77      -4.7963      1.00000
     78      -4.7784      1.00000
     79      -4.7260      1.00000
     80      -4.7095      1.00000
     81      -4.6742      1.00000
     82      -4.6442      1.00000
     83      -4.6091      1.00000
     84      -4.3660      1.00000
     85      -4.3594      1.00000
     86      -4.3192      1.00000
     87      -4.2775      1.00000
     88      -4.1819      1.00000
     89      -4.1749      1.00000
     90      -4.1121      1.00000
     91      -4.1041      1.00000
     92      -3.9401      1.00000
     93      -3.8497      1.00000
     94      -3.8396      1.00000
     95      -3.7942      1.00000
     96      -3.5916      1.00000
     97      -3.4895      1.00000
     98      -3.3554      1.00000
     99      -3.2621      1.00000
    100      -2.9322      1.00000
    101      -2.6303      1.00000
    102      -2.6174      1.00000
    103      -2.4297      1.00000
    104      -2.1463      1.00000
    105      -1.9070      1.00000
    106      -1.6888      1.00000
    107      -1.5595      1.00000
    108      -1.4343      1.00000
    109      -1.2849      1.00000
    110      -1.2118      1.00000
    111      -1.1371      1.00000
    112      -1.0478      1.00000
    113      -1.0289      1.00000
    114      -0.9719      1.00000
    115      -0.6086      1.00000
    116      -0.5787      1.00000
    117      -0.3910      1.00000
    118      -0.3231      1.00000
    119      -0.1007      1.00000
    120       0.6756      0.00000
    121       1.0753      0.00000
    122       1.1884      0.00000
    123       1.2145      0.00000
    124       2.2900      0.00000
    125       2.3495      0.00000
    126       2.3748      0.00000
    127       2.5327      0.00000
    128       2.6290      0.00000
    129       2.6625      0.00000
    130       2.9517      0.00000
    131       2.9640      0.00000
    132       3.1577      0.00000
    133       3.2984      0.00000
    134       3.3450      0.00000
    135       3.3847      0.00000
    136       3.4006      0.00000
    137       3.4382      0.00000
    138       3.5402      0.00000
    139       3.6682      0.00000
    140       3.6831      0.00000
    141       3.9569      0.00000
    142       4.1587      0.00000
    143       4.2782      0.00000
    144       4.3161      0.00000
    145       4.4003      0.00000
    146       4.4583      0.00000
    147       4.4704      0.00000
    148       4.5258      0.00000
    149       4.5648      0.00000
    150       4.5809      0.00000
    151       4.6119      0.00000
    152       4.6890      0.00000
    153       5.1152      0.00000
    154       5.1827      0.00000
    155       5.4890      0.00000
    156       5.8557      0.00000
    157       5.9925      0.00000
    158       6.2928      0.00000
    159       6.4840      0.00000
    160       6.8025      0.00000

 k-point     5 :       0.1250    0.3750    0.1250
  band No.  band energies     occupation 
      1     -36.7843      1.00000
      2     -36.7781      1.00000
      3     -36.7497      1.00000
      4     -35.2866      1.00000
      5     -35.2705      1.00000
      6     -34.9884      1.00000
      7     -34.9534      1.00000
      8     -34.8244      1.00000
      9     -34.1638      1.00000
     10     -34.0857      1.00000
     11     -34.0221      1.00000
     12     -33.9865      1.00000
     13     -33.9796      1.00000
     14     -33.9348      1.00000
     15     -33.9233      1.00000
     16     -33.9141      1.00000
     17     -33.7530      1.00000
     18     -33.7277      1.00000
     19     -33.7130      1.00000
     20     -33.7062      1.00000
     21     -33.5959      1.00000
     22     -33.5622      1.00000
     23     -33.5548      1.00000
     24     -33.5279      1.00000
     25     -24.6283      1.00000
     26     -24.2882      1.00000
     27     -24.0743      1.00000
     28     -24.0389      1.00000
     29     -23.9043      1.00000
     30     -23.8535      1.00000
     31     -23.6468      1.00000
     32     -23.4677      1.00000
     33     -23.3772      1.00000
     34     -23.3107      1.00000
     35     -23.2358      1.00000
     36     -23.2344      1.00000
     37     -22.8281      1.00000
     38     -22.7939      1.00000
     39     -21.9909      1.00000
     40     -21.6569      1.00000
     41     -16.6556      1.00000
     42     -16.2368      1.00000
     43     -16.0626      1.00000
     44     -15.9133      1.00000
     45     -15.7019      1.00000
     46     -15.4161      1.00000
     47     -15.2064      1.00000
     48     -15.1880      1.00000
     49      -8.2428      1.00000
     50      -7.6813      1.00000
     51      -7.4485      1.00000
     52      -7.3864      1.00000
     53      -6.9563      1.00000
     54      -6.8841      1.00000
     55      -6.7407      1.00000
     56      -6.7086      1.00000
     57      -6.7048      1.00000
     58      -6.6867      1.00000
     59      -6.4595      1.00000
     60      -6.3828      1.00000
     61      -6.3483      1.00000
     62      -6.1661      1.00000
     63      -5.9887      1.00000
     64      -5.9158      1.00000
     65      -5.9126      1.00000
     66      -5.7318      1.00000
     67      -5.6356      1.00000
     68      -5.5481      1.00000
     69      -5.5251      1.00000
     70      -5.3807      1.00000
     71      -5.2850      1.00000
     72      -5.2084      1.00000
     73      -5.1358      1.00000
     74      -5.0114      1.00000
     75      -4.9886      1.00000
     76      -4.8521      1.00000
     77      -4.8189      1.00000
     78      -4.7959      1.00000
     79      -4.7837      1.00000
     80      -4.7480      1.00000
     81      -4.6236      1.00000
     82      -4.5925      1.00000
     83      -4.4729      1.00000
     84      -4.3666      1.00000
     85      -4.3455      1.00000
     86      -4.3069      1.00000
     87      -4.2704      1.00000
     88      -4.2320      1.00000
     89      -4.2062      1.00000
     90      -4.1044      1.00000
     91      -4.0845      1.00000
     92      -3.9397      1.00000
     93      -3.8410      1.00000
     94      -3.8170      1.00000
     95      -3.4651      1.00000
     96      -3.4315      1.00000
     97      -3.3310      1.00000
     98      -3.2861      1.00000
     99      -3.2154      1.00000
    100      -3.1891      1.00000
    101      -2.8000      1.00000
    102      -2.7252      1.00000
    103      -2.4855      1.00000
    104      -2.3049      1.00000
    105      -2.2225      1.00000
    106      -1.9430      1.00000
    107      -1.8782      1.00000
    108      -1.4449      1.00000
    109      -1.2400      1.00000
    110      -1.1281      1.00000
    111      -1.1084      1.00000
    112      -1.0544      1.00000
    113      -1.0295      1.00000
    114      -0.8921      1.00000
    115      -0.5558      1.00000
    116      -0.5413      1.00000
    117      -0.4393      1.00000
    118      -0.3413      1.00000
    119      -0.0643      1.00000
    120       0.4010      0.59588
    121       1.1193      0.00000
    122       1.1884      0.00000
    123       1.2869      0.00000
    124       2.3707      0.00000
    125       2.3951      0.00000
    126       2.5325      0.00000
    127       2.5626      0.00000
    128       2.6538      0.00000
    129       2.8930      0.00000
    130       2.9816      0.00000
    131       3.0389      0.00000
    132       3.2986      0.00000
    133       3.3340      0.00000
    134       3.3965      0.00000
    135       3.4509      0.00000
    136       3.5398      0.00000
    137       3.5991      0.00000
    138       3.6196      0.00000
    139       3.6476      0.00000
    140       3.8466      0.00000
    141       3.9498      0.00000
    142       4.0449      0.00000
    143       4.1374      0.00000
    144       4.1561      0.00000
    145       4.2649      0.00000
    146       4.3783      0.00000
    147       4.4182      0.00000
    148       4.5811      0.00000
    149       4.6119      0.00000
    150       4.7018      0.00000
    151       4.8178      0.00000
    152       4.9281      0.00000
    153       5.0701      0.00000
    154       5.2309      0.00000
    155       5.3641      0.00000
    156       5.8145      0.00000
    157       6.0185      0.00000
    158       6.2054      0.00000
    159       6.3882      0.00000
    160       6.9563      0.00000

 k-point     6 :       0.3750    0.3750    0.1250
  band No.  band energies     occupation 
      1     -36.7843      1.00000
      2     -36.7781      1.00000
      3     -36.7493      1.00000
      4     -35.2866      1.00000
      5     -35.2705      1.00000
      6     -34.9864      1.00000
      7     -34.9527      1.00000
      8     -34.8225      1.00000
      9     -34.1665      1.00000
     10     -34.0857      1.00000
     11     -34.0221      1.00000
[...]
  0.000   0.000   0.000   0.000   0.000  -0.000   0.000  -0.001  -0.000  -0.012  -0.000   0.000  -0.000   0.000   0.003  -0.000
 -0.000   0.000   0.000  -0.000   0.000   0.000   0.000   0.000   0.004  -0.000  -0.015   0.000   0.000   0.001  -0.000   0.001
  0.000  -0.000   0.000   0.000   0.000  -0.000   0.003   0.000  -0.000   0.000   0.000   0.006   0.000   0.000  -0.000  -0.000
 -0.000  -0.000   0.000  -0.000  -0.001   0.000   0.000  -0.504  -0.000  -0.000   0.000   0.000  -0.386  -0.000  -0.000   0.000
  0.000   0.000   0.000   0.000  -0.000  -0.000   0.000  -0.000   0.001   0.000   0.001   0.000  -0.000   0.018  -0.000  -0.008
 -0.000   0.000   0.000  -0.000   0.000  -0.000   0.000  -0.000   0.000   0.003  -0.000  -0.000  -0.000  -0.000   0.007   0.000
 -0.000  -0.000   0.000  -0.000   0.000   0.000   0.000   0.000   0.001  -0.000   0.001  -0.000   0.000  -0.008   0.000   0.024
 -0.000  -0.000  -0.000  -0.000  -0.000  -0.000  -0.000  -0.000  -0.005   0.000   0.006   0.000  -0.000   0.014  -0.000  -0.024
  0.000   0.000  -0.000   0.000  -0.000   0.000  -0.000   0.000  -0.016   0.000   0.022   0.000   0.000   0.024  -0.000  -0.032


------------------------ aborting loop because EDIFF is reached ----------------------------------------


 


 total charge     
 
# of ion       s       p       d       tot
------------------------------------------
    1        0.256   6.376   1.837   8.469
    2        0.268   6.395   1.804   8.467
    3        0.325   6.513   1.737   8.575
    4        0.311   6.466   1.866   8.642
    5        0.302   6.452   1.708   8.462
    6        0.303   6.445   1.735   8.483
    7        0.299   6.455   1.734   8.488
    8        0.304   6.437   1.695   8.436
    9        1.575   3.426   0.000   5.001
   10        1.570   3.385   0.000   4.955
   11        1.573   3.343   0.000   4.916
   12        1.572   3.430   0.000   5.002
   13        1.568   3.395   0.000   4.963
   14        1.568   3.395   0.000   4.963
   15        1.569   3.391   0.000   4.961
   16        1.569   3.391   0.000   4.961
   17        1.731   4.386   0.000   6.117
   18        1.730   4.386   0.000   6.116
   19        1.733   4.371   0.000   6.104
   20        1.727   4.367   0.000   6.094
   21        1.731   4.386   0.000   6.117
   22        1.730   4.385   0.000   6.115
   23        1.733   4.370   0.000   6.103
   24        1.731   4.391   0.000   6.122
   25        1.730   4.396   0.000   6.125
   26        1.731   4.391   0.000   6.122
   27        1.729   4.395   0.000   6.124
   28        1.729   4.365   0.000   6.094
   29        1.731   4.405   0.000   6.136
   30        1.731   4.405   0.000   6.136
   31        1.732   4.396   0.000   6.127
   32        1.732   4.396   0.000   6.127
--------------------------------------------------
tot         42.623 148.885  14.117 205.625
 


 magnetization (x)
 
# of ion       s       p       d       tot
------------------------------------------
    1       -0.004  -0.006  -0.799  -0.809
    2       -0.003  -0.006  -0.690  -0.699
    3       -0.000  -0.000  -0.044  -0.045
    4        0.000   0.000  -0.018  -0.018
    5       -0.001  -0.001  -0.021  -0.023
    6       -0.000   0.000  -0.010  -0.010
    7       -0.001  -0.002  -0.023  -0.025
    8       -0.000  -0.000  -0.010  -0.010
    9        0.000   0.003   0.000   0.003
   10       -0.002  -0.105   0.000  -0.106
   11        0.005   0.303   0.000   0.307
   12        0.000   0.013   0.000   0.013
   13        0.001   0.042   0.000   0.043
   14        0.001   0.042   0.000   0.043
   15        0.001   0.046   0.000   0.047
   16        0.001   0.046   0.000   0.047
   17        0.000   0.011   0.000   0.011
   18        0.000   0.009   0.000   0.009
   19        0.000   0.001   0.000   0.001
   20        0.000   0.000   0.000   0.000
   21        0.000   0.011   0.000   0.011
   22        0.000   0.009   0.000   0.009
   23        0.000   0.001   0.000   0.001
   24        0.000   0.004   0.000   0.004
   25        0.000   0.002   0.000   0.002
   26        0.000   0.004   0.000   0.004
   27        0.000   0.002   0.000   0.002
   28        0.000   0.004   0.000   0.004
   29        0.001   0.005   0.000   0.005
   30        0.001   0.005   0.000   0.005
   31        0.000  -0.000   0.000  -0.000
   32        0.000  -0.000   0.000  -0.000
--------------------------------------------------
tot          0.001   0.441  -1.615  -1.173
 
    CHARGE:  cpu time    1.2028: real time    1.2017
    FORLOC:  cpu time    0.0100: real time    0.0101
    FORNL :  cpu time    6.8020: real time    6.7894
    STRESS:  cpu time   20.5539: real time   20.5339
    FORCOR:  cpu time    0.1290: real time    0.1295
    FORHAR:  cpu time    0.0220: real time    0.0213
    MIXING:  cpu time    0.0010: real time    0.0018
    OFIELD:  cpu time    0.0010: real time    0.0001

  FORCE on cell =-STRESS in cart. coord.  units (eV):
  Direction    XX          YY          ZZ          XY          YZ          ZX
  --------------------------------------------------------------------------------------
  Alpha Z   742.17994   742.17994   742.17994
  Ewald   -4333.75121 -4183.83214 -4100.83440     0.03293    -0.00652     0.00516
  Hartree  2686.92889  2818.18676  2873.29455     0.04170    -0.00321     0.00232
  E(xc)   -1231.29734 -1231.64993 -1231.72638    -0.00081     0.00000     0.00001
  Local   -1983.55277 -2295.55680 -2447.60750    -0.06123     0.00963    -0.00660
  n-local  -974.59264  -968.49118  -964.92137    -0.07575    -0.00007     0.00020
  augment   741.92380   758.92095   764.10936    -0.00588    -0.00003    -0.00047
  Kinetic  4352.16836  4360.26544  4365.49630     0.06880     0.00031    -0.00073
  Fock        0.00000     0.00000     0.00000     0.00000     0.00000     0.00000
  -------------------------------------------------------------------------------------
  Total       0.00703     0.02304    -0.00950    -0.00025     0.00012    -0.00011
  in kB       0.02386     0.07823    -0.03227    -0.00084     0.00040    -0.00039
  external pressure =        0.02 kB  Pullay stress =        0.00 kB


 VOLUME and BASIS-vectors are now :
 -----------------------------------------------------------------------------
  energy-cutoff  :      700.00
  volume of cell :      471.81
      direct lattice vectors                 reciprocal lattice vectors
     7.893144544 -0.001464127  0.000004227     0.126692224  0.000024175 -0.000000033
    -0.001483108  7.772524842 -0.000005101     0.000023865  0.128658326  0.000000077
     0.000001994 -0.000004620  7.690467352    -0.000000070  0.000000085  0.130031109

  length of vectors
     7.893144680  7.772524983  7.690467352     0.126692226  0.128658328  0.130031109


 FORCES acting on ions
    electron-ion (+dipol)            ewald-force                    non-local-force                 convergence-correction
 -----------------------------------------------------------------------------------------------
   0.483E+00 0.485E+00 -.496E-03   -.502E+00 -.480E+00 0.471E-03   0.226E-01 -.556E-02 0.699E-05   -.210E-03 -.103E-04 0.162E-04
   0.743E+01 0.558E+01 -.120E-03   -.736E+01 -.549E+01 0.134E-03   -.643E-01 -.878E-01 -.234E-05   -.192E-03 -.106E-03 -.161E-04
   0.597E+01 -.660E+00 -.618E-04   -.596E+01 0.657E+00 0.128E-03   -.124E-01 0.449E-02 0.576E-05   -.172E-03 0.482E-05 -.580E-04
   0.189E+02 -.334E+01 -.350E-03   -.184E+02 0.330E+01 0.287E-03   -.491E+00 0.388E-01 0.113E-04   -.234E-03 0.128E-03 0.586E-04
   -.401E+00 0.198E+01 -.300E-02   0.441E+00 -.188E+01 0.251E-02   -.353E-01 -.980E-01 0.280E-04   0.258E-03 0.800E-03 0.479E-03
   -.921E+01 -.161E+01 -.447E-02   0.910E+01 0.511E+00 0.491E-02   0.105E+00 0.110E+01 0.620E-04   0.227E-03 -.856E-03 -.488E-03
   -.827E+01 -.179E+01 0.743E-02   0.818E+01 0.169E+01 -.668E-02   0.932E-01 0.933E-01 -.720E-04   0.191E-03 -.826E-03 -.615E-03
   -.198E+02 0.524E+01 0.626E-02   0.205E+02 -.411E+01 -.685E-02   -.645E+00 -.113E+01 -.132E-03   0.289E-04 0.785E-03 0.613E-03
   0.134E+03 0.420E+01 -.268E-02   -.145E+03 -.476E+01 0.275E-02   0.109E+02 0.562E+00 -.191E-03   -.744E-03 0.159E-03 0.113E-03
   -.219E+01 0.150E+01 -.641E-03   0.219E+01 -.170E+01 0.809E-03   -.859E-03 0.205E+00 -.173E-03   0.150E-03 0.248E-03 -.340E-04
   -.203E+01 -.189E+01 -.104E-03   0.201E+01 0.213E+01 0.146E-03   0.167E-01 -.246E+00 -.303E-04   0.158E-03 -.209E-03 -.335E-04
   -.387E+01 0.140E+02 0.135E-02   0.375E+01 -.148E+02 -.154E-02   0.115E+00 0.817E+00 0.174E-03   0.167E-03 -.225E-03 0.313E-04
   -.243E+01 -.167E+01 0.753E+01   0.245E+01 0.230E+01 -.799E+01   -.173E-01 -.638E+00 0.453E+00   0.159E-03 -.295E-04 -.339E-03
   -.242E+01 -.167E+01 -.752E+01   0.244E+01 0.230E+01 0.797E+01   -.167E-01 -.638E+00 -.452E+00   0.158E-03 -.326E-04 0.351E-03
   -.479E+01 0.989E+00 -.693E+01   0.475E+01 -.149E+01 0.716E+01   0.363E-01 0.508E+00 -.231E+00   0.142E-03 0.303E-05 -.344E-03
   -.478E+01 0.990E+00 0.691E+01   0.474E+01 -.149E+01 -.714E+01   0.367E-01 0.508E+00 0.230E+00   0.141E-03 0.197E-05 0.322E-03
   -.932E+02 0.828E+00 -.769E-02   0.101E+03 -.952E+00 0.843E-02   -.828E+01 0.130E+00 -.778E-03   0.287E-02 0.867E-04 0.761E-04
   -.808E+02 -.658E+01 0.566E-02   0.878E+02 0.808E+01 -.604E-02   -.696E+01 -.149E+01 0.455E-03   0.357E-02 -.156E-03 -.844E-04
   -.136E+03 -.950E+00 -.415E-02   0.149E+03 0.110E+01 0.483E-02   -.126E+02 -.159E+00 -.521E-03   0.141E-02 -.777E-04 -.131E-03
   -.716E+02 0.405E+01 0.439E-02   0.729E+02 -.494E+01 -.481E-02   -.128E+01 0.890E+00 0.269E-03   0.104E-02 0.204E-03 0.130E-03
   0.932E+02 0.928E+00 0.776E-02   -.101E+03 -.106E+01 -.876E-02   0.828E+01 0.137E+00 0.940E-03   -.292E-02 0.884E-04 0.791E-04
   0.826E+02 -.800E+01 -.642E-02   -.897E+02 0.956E+01 0.685E-02   0.706E+01 -.156E+01 -.314E-03   -.358E-02 -.173E-03 -.747E-04
   0.138E+03 -.101E+01 0.521E-02   -.151E+03 0.117E+01 -.554E-02   0.126E+02 -.164E+00 0.448E-03   -.144E-02 -.804E-04 -.126E-03
   0.302E+01 0.553E+02 -.459E-03   -.317E+01 -.624E+02 0.500E-03   0.151E+00 0.715E+01 -.215E-04   -.211E-03 0.181E-02 -.187E-04
   -.116E+02 0.878E+01 0.507E-03   0.151E+02 -.109E+02 -.529E-03   -.353E+01 0.213E+01 -.145E-05   -.130E-03 0.295E-02 0.176E-04
   0.282E+01 -.551E+02 0.490E-03   -.295E+01 0.623E+02 -.519E-03   0.134E+00 -.714E+01 0.515E-04   -.208E-03 -.181E-02 -.187E-04
   -.121E+02 -.938E+01 0.401E-04   0.156E+02 0.114E+02 -.133E-03   -.347E+01 -.199E+01 0.827E-04   -.148E-03 -.296E-02 0.176E-04
   -.513E+01 -.111E+02 0.106E-02   0.493E+01 0.112E+02 -.133E-02   0.196E+00 -.834E-01 0.244E-03   0.194E-03 0.279E-03 0.357E-04
   0.377E+01 0.170E+01 0.558E+01   -.399E+01 -.179E+01 -.613E+01   0.225E+00 0.904E-01 0.550E+00   -.224E-03 -.624E-04 -.122E-02
   0.375E+01 0.170E+01 -.558E+01   -.397E+01 -.179E+01 0.613E+01   0.223E+00 0.902E-01 -.550E+00   -.231E-03 -.626E-04 0.122E-02
   -.101E+02 -.115E+01 -.432E+02   0.133E+02 0.122E+01 0.482E+02   -.316E+01 -.639E-01 -.497E+01   -.179E-03 0.623E-04 -.510E-04
   -.101E+02 -.115E+01 0.432E+02   0.133E+02 0.122E+01 -.482E+02   -.316E+01 -.639E-01 0.497E+01   -.175E-03 0.621E-04 0.491E-04
 -----------------------------------------------------------------------------------------------
   0.345E+01 0.110E+01 0.390E-03   0.622E-13 0.208E-12 0.000E+00   -.344E+01 -.110E+01 -.268E-03   -.134E-03 0.610E-05 -.424E-04
 
 
 POSITION                                       TOTAL-FORCE (eV/Angst)
 -----------------------------------------------------------------------------------
      0.00317      0.00000      7.69047         0.003335     -0.000998     -0.000003
      0.00975      0.00110      3.84523         0.000052      0.000482     -0.000007
      0.01222      3.88647      7.69046        -0.004779      0.002078      0.000011
      7.71406      3.88222      3.84524        -0.006508      0.002059      0.000005
      3.95045      0.01765      7.69047         0.004626      0.000029      0.000016
      3.94858      7.67206      3.84523         0.001389     -0.001528      0.000004
      3.95202      3.86745      0.00000         0.003145     -0.001076      0.000063
      3.93291      3.96717      3.84525        -0.002471      0.001744     -0.000117
      5.99496      3.87659      3.84525        -0.004461      0.003542     -0.000011
      3.95307      1.94725      0.00001         0.004394     -0.000216     -0.000041
      3.95146      5.82327      0.00000         0.003804     -0.000472     -0.000024
      3.93436      5.83120      3.84523        -0.006649      0.000023      0.000010
      3.95178      7.75482      1.92462         0.004432     -0.004088     -0.000392
      3.95174      7.75481      5.76586         0.004449     -0.004072      0.000270
      3.94049      3.90175      1.91157        -0.004666      0.004574     -0.000224
      3.94047      3.90174      5.77887        -0.004656      0.004589      0.000394
      1.90164      0.00293      0.00004         0.003919      0.006244      0.000042
      1.91843      0.02266      3.84521        -0.000364     -0.002851     -0.000019
      1.86802      3.88434      0.00002         0.004733     -0.007140      0.000031
      1.87078      3.87107      3.84522        -0.006961      0.002332     -0.000021
      5.99813      0.00179      7.69043         0.004369      0.005481      0.000015
      5.98986      0.02591      3.84526         0.001530     -0.004716      0.000035
      6.04514      3.88396      7.69045         0.003485     -0.006525     -0.000008
      0.00226      2.00427      7.69047         0.003333     -0.003239     -0.000001
      0.03987      1.96886      3.84523        -0.009426     -0.002047     -0.000008
      0.00227      5.76873      7.69046         0.003687     -0.000325      0.000001
      0.03879      5.80341      3.84523        -0.008441      0.003801      0.000005
      3.92848      1.93413      3.84523        -0.006315      0.000022      0.000005
      7.88929      7.76764      1.92875         0.003155      0.000054      0.000335
      7.88938      7.76764      5.76172         0.003135      0.000057     -0.000341
      0.03239      3.88794      1.88901         0.002370      0.001090     -0.001014
      0.03244      3.88793      5.80145         0.002355      0.001091      0.000990
 -----------------------------------------------------------------------------------
    total drift:                                0.003998     -0.001754      0.000079


--------------------------------------------------------------------------------------------------------



  FREE ENERGIE OF THE ION-ELECTRON SYSTEM (eV)
  ---------------------------------------------------
  free  energy   TOTEN  =      -207.42140950 eV

  energy  without entropy=     -207.42005044  energy(sigma->0) =     -207.42072997
 


--------------------------------------------------------------------------------------------------------


    POTLOK:  cpu time    0.9759: real time    0.9749


--------------------------------------------------------------------------------------------------------


 stress matrix after NEB project (eV)
      0.00703     -0.00025     -0.00011
     -0.00025      0.02304      0.00012
     -0.00011      0.00012     -0.00950
  FORCES: max atom, RMS     0.009646    0.005616
  FORCE total and by dimension    0.031767    0.009426
  Stress total and by dimension    0.025896    0.023038
 Quasi-Newton relaxation of ions (Broydens 2nd method)
  g(Force)  = 0.487E-04   g(Stress)= 0.101E-05

 Reset! Starting new Quasi-Newton update for ions 


--------------------------------------------------------------------------------------------------------


  
 reached required accuracy - stopping structural energy minimisation
 writing wavefunctions
     LOOP+:  cpu time  281.0433: real time  283.8370
    4ORBIT:  cpu time    0.0000: real time    0.0000
 


 total charge     
 
# of ion       s       p       d       tot
------------------------------------------
    1        0.256   6.376   1.837   8.469
    2        0.268   6.395   1.804   8.467
    3        0.325   6.513   1.737   8.575
    4        0.311   6.466   1.866   8.642
    5        0.302   6.452   1.708   8.462
    6        0.303   6.445   1.735   8.483
    7        0.299   6.455   1.734   8.488
    8        0.304   6.437   1.695   8.436
    9        1.575   3.426   0.000   5.001
   10        1.570   3.385   0.000   4.955
   11        1.573   3.343   0.000   4.916
   12        1.572   3.430   0.000   5.002
   13        1.568   3.395   0.000   4.963
   14        1.568   3.395   0.000   4.963
   15        1.569   3.391   0.000   4.961
   16        1.569   3.391   0.000   4.961
   17        1.731   4.386   0.000   6.117
   18        1.730   4.386   0.000   6.116
   19        1.733   4.371   0.000   6.104
   20        1.727   4.367   0.000   6.094
   21        1.731   4.386   0.000   6.117
   22        1.730   4.385   0.000   6.115
   23        1.733   4.370   0.000   6.103
   24        1.731   4.391   0.000   6.122
   25        1.730   4.396   0.000   6.125
   26        1.731   4.391   0.000   6.122
   27        1.729   4.395   0.000   6.124
   28        1.729   4.365   0.000   6.094
   29        1.731   4.405   0.000   6.136
   30        1.731   4.405   0.000   6.136
   31        1.732   4.396   0.000   6.127
   32        1.732   4.396   0.000   6.127
--------------------------------------------------
tot         42.623 148.885  14.117 205.625
 


 magnetization (x)
 
# of ion       s       p       d       tot
------------------------------------------
    1       -0.004  -0.006  -0.799  -0.809
    2       -0.003  -0.006  -0.690  -0.699
    3       -0.000  -0.000  -0.044  -0.045
    4        0.000   0.000  -0.018  -0.018
    5       -0.001  -0.001  -0.021  -0.023
    6       -0.000   0.000  -0.010  -0.010
    7       -0.001  -0.002  -0.023  -0.025
    8       -0.000  -0.000  -0.010  -0.010
    9        0.000   0.003   0.000   0.003
   10       -0.002  -0.105   0.000  -0.106
   11        0.005   0.303   0.000   0.307
   12        0.000   0.013   0.000   0.013
   13        0.001   0.042   0.000   0.043
   14        0.001   0.042   0.000   0.043
   15        0.001   0.046   0.000   0.047
   16        0.001   0.046   0.000   0.047
   17        0.000   0.011   0.000   0.011
   18        0.000   0.009   0.000   0.009
   19        0.000   0.001   0.000   0.001
   20        0.000   0.000   0.000   0.000
   21        0.000   0.011   0.000   0.011
   22        0.000   0.009   0.000   0.009
   23        0.000   0.001   0.000   0.001
   24        0.000   0.004   0.000   0.004
   25        0.000   0.002   0.000   0.002
   26        0.000   0.004   0.000   0.004
   27        0.000   0.002   0.000   0.002
   28        0.000   0.004   0.000   0.004
   29        0.001   0.005   0.000   0.005
   30        0.001   0.005   0.000   0.005
   31        0.000  -0.000   0.000  -0.000
   32        0.000  -0.000   0.000  -0.000
--------------------------------------------------
tot          0.001   0.441  -1.615  -1.173
 

 total amount of memory used by VASP MPI-rank0   108172. kBytes
=======================================================================

   base      :      30000. kBytes
   nonlr-proj:       8413. kBytes
   fftplans  :       8424. kBytes
   grid      :       8783. kBytes
   one-center:        124. kBytes
   wavefun   :      52428. kBytes
 
  
  
 General timing and accounting informations for this job:
 ========================================================
  
                  Total CPU time used (sec):      331.406
                            User time (sec):      313.677
                          System time (sec):       17.728
                         Elapsed time (sec):      345.191
  
                   Maximum memory used (kb):      224808.
                   Average memory used (kb):           0.
  
                          Minor page faults:       126467
                          Major page faults:            2
                 Voluntary context switches:        72360
