LTO                                     
           1
     7.787278   -0.000398   -0.000373
    -0.000430    7.675958   -0.002107
    -0.000362   -0.002092    7.737527
   Ti   O    F 
   8   8  16
Direct configuration=     1
   0.97867885  0.00070707  0.00069197
   0.99972789  0.98094280  0.50048711
   0.00027380  0.50001916  0.97925891
   0.01668755  0.50222407  0.50336493
   0.49961984  0.00017933  0.00115530
   0.49978643  0.00081421  0.48101626
   0.50022675  0.50028497  0.00791840
   0.49088605  0.50012564  0.48389415
   0.24807020  0.49828486  0.49906688
   0.75726931  0.99978959  0.99822736
   0.99853050  0.75452808  0.49808745
   0.49862930  0.25011147  0.99863480
   0.49865380  0.75007335  0.99869270
   0.99854792  0.49828251  0.75250116
   0.49742231  0.99999107  0.25760228
   0.50159610  0.50048024  0.25511306
   0.23892407  0.99958912  0.99734598
   0.24778188  0.00537382  0.50378915
   0.24385792  0.50059678  0.00291308
   0.75214355  0.00486082  0.50386613
   0.75688393  0.50059470  0.00335306
   0.75209357  0.49738856  0.50012782
   0.00587973  0.25055866  0.00655341
   0.99623153  0.24366703  0.49683742
   0.00570035  0.75030733  0.00697300
   0.50508721  0.24810893  0.51378915
   0.50590142  0.75293843  0.51323926
   0.00425901  0.00547917  0.25186739
   0.00406487  0.00602101  0.74946054
   0.99636684  0.49736881  0.24578708
   0.49629268  0.99973136  0.74179258
   0.50392483  0.50057708  0.74659221
