 vasp.5.4.4.18Apr17-6-g9f103f2a35 (build Jul 16 2019 12:12:28) complex          
  
 executed on             LinuxIFC date 2020.01.06  12:37:08
 running on   96 total cores
 distrk:  each k-point on   96 cores,    1 groups
 distr:  one band on NCORES_PER_BAND=   8 cores,   12 groups


--------------------------------------------------------------------------------------------------------


 INCAR:
 POTCAR:    PAW_PBE Li_sv 10Sep2004               
 POTCAR:    PAW_PBE Ti_pv 07Sep2000               
 POTCAR:    PAW_PBE O 08Apr2002                   
 POTCAR:    PAW_PBE F 08Apr2002                   
 POTCAR:    PAW_PBE Li_sv 10Sep2004               
   VRHFIN =Li: 1s2s2p                                                           
   LEXCH  = PE                                                                  
   EATOM  =   202.7858 eV,   14.9043 Ry                                         
                                                                                
   TITEL  = PAW_PBE Li_sv 10Sep2004                                             
   LULTRA =        F    use ultrasoft PP ?                                      
   IUNSCR =        0    unscreen: 0-lin 1-nonlin 2-no                           
   RPACOR =    0.000    partial core radius                                     
   POMASS =    7.010; ZVAL   =    3.000    mass and valenz                      
   RCORE  =    1.700    outmost cutoff radius                                   
   RWIGS  =    2.050; RWIGS  =    1.085    wigner-seitz radius (au A)           
   ENMAX  =  499.034; ENMIN  =  374.276 eV                                      
   ICORE  =        2    local potential                                         
   LCOR   =        T    correct aug charges                                     
   LPAW   =        T    paw PP                                                  
   EAUG   =  628.945                                                            
   RMAX   =    1.732    core radius for proj-oper                               
   RAUG   =    1.300    factor for augmentation sphere                          
   RDEP   =    1.728    radius for radial grids                                 
   RDEPT  =    1.329    core radius for aug-charge                              
                                                                                
   Atomic configuration                                                         
    4 entries                                                                   
     n  l   j            E        occ.                                          
     1  0  0.50       -51.8549   2.0000                                         
     2  0  0.50        -2.8742   1.0000                                         
     2  1  0.50        -1.3606   0.0000                                         
     3  2  1.50        -1.3606   0.0000                                         
   Description                                                                  
     l       E           TYP  RCUT    TYP  RCUT                                 
     0    -51.8548813     23  1.400                                             
     0     -2.8742052     23  1.700                                             
     1     -1.3605826     23  1.400                                             
     2     -1.3605826     23  1.400                                             
  local pseudopotential read in
  atomic valenz-charges read in
  non local Contribution for L=           0  read in
    real space projection operators read in
  non local Contribution for L=           0  read in
    real space projection operators read in
  non local Contribution for L=           1  read in
    real space projection operators read in
    PAW grid and wavefunctions read in
 
   number of l-projection  operators is LMAX  =           3
   number of lm-projection operators is LMMAX =           5
 
 POTCAR:    PAW_PBE Ti_pv 07Sep2000               
   VRHFIN =Ti: d3 s1                                                            
   LEXCH  = PE                                                                  
   EATOM  =  1042.5995 eV,   76.6289 Ry                                         
                                                                                
   TITEL  = PAW_PBE Ti_pv 07Sep2000                                             
   LULTRA =        F    use ultrasoft PP ?                                      
   IUNSCR =        1    unscreen: 0-lin 1-nonlin 2-no                           
   RPACOR =    2.200    partial core radius                                     
   POMASS =   47.880; ZVAL   =   10.000    mass and valenz                      
   RCORE  =    2.500    outmost cutoff radius                                   
   RWIGS  =    2.500; RWIGS  =    1.323    wigner-seitz radius (au A)           
   ENMAX  =  222.335; ENMIN  =  166.751 eV                                      
   RCLOC  =    1.701    cutoff for local pot                                    
   LCOR   =        T    correct aug charges                                     
   LPAW   =        T    paw PP                                                  
   EAUG   =  482.848                                                            
   DEXC   =    0.000                                                            
   RMAX   =    2.564    core radius for proj-oper                               
   RAUG   =    1.300    factor for augmentation sphere                          
   RDEP   =    2.538    radius for radial grids                                 
   RDEPT  =    1.952    core radius for aug-charge                              
                                                                                
   Atomic configuration                                                         
    8 entries                                                                   
     n  l   j            E        occ.                                          
     1  0  0.50     -4865.3608   2.0000                                         
     2  0  0.50      -533.1368   2.0000                                         
     2  1  1.50      -440.5031   6.0000                                         
     3  0  0.50       -59.3186   2.0000                                         
     3  1  1.50       -35.7012   6.0000                                         
     3  2  2.50        -1.9157   3.0000                                         
     4  0  0.50        -3.7291   1.0000                                         
     4  3  2.50        -1.3606   0.0000                                         
   Description                                                                  
     l       E           TYP  RCUT    TYP  RCUT                                 
     1    -35.7012140     23  2.300                                             
     1     -1.3605826     23  2.300                                             
     2     -1.9156996     23  2.500                                             
     2     -0.4063033     23  2.500                                             
     0     -3.7290856     23  2.500                                             
     0     20.4087390     23  2.500                                             
  local pseudopotential read in
  partial core-charges read in
  partial kinetic energy density read in
  atomic valenz-charges read in
  non local Contribution for L=           1  read in
    real space projection operators read in
  non local Contribution for L=           1  read in
    real space projection operators read in
  non local Contribution for L=           2  read in
    real space projection operators read in
  non local Contribution for L=           2  read in
    real space projection operators read in
  non local Contribution for L=           0  read in
    real space projection operators read in
  non local Contribution for L=           0  read in
    real space projection operators read in
    PAW grid and wavefunctions read in
 
   number of l-projection  operators is LMAX  =           6
   number of lm-projection operators is LMMAX =          18
 
 POTCAR:    PAW_PBE O 08Apr2002                   
   VRHFIN =O: s2p4                                                              
   LEXCH  = PE                                                                  
   EATOM  =   432.3788 eV,   31.7789 Ry                                         
                                                                                
   TITEL  = PAW_PBE O 08Apr2002                                                 
   LULTRA =        F    use ultrasoft PP ?                                      
   IUNSCR =        1    unscreen: 0-lin 1-nonlin 2-no                           
   RPACOR =    1.200    partial core radius                                     
   POMASS =   16.000; ZVAL   =    6.000    mass and valenz                      
   RCORE  =    1.520    outmost cutoff radius                                   
   RWIGS  =    1.550; RWIGS  =    0.820    wigner-seitz radius (au A)           
   ENMAX  =  400.000; ENMIN  =  300.000 eV                                      
   ICORE  =        2    local potential                                         
   LCOR   =        T    correct aug charges                                     
   LPAW   =        T    paw PP                                                  
   EAUG   =  605.392                                                            
   DEXC   =    0.000                                                            
   RMAX   =    1.553    core radius for proj-oper                               
   RAUG   =    1.300    factor for augmentation sphere                          
   RDEP   =    1.550    radius for radial grids                                 
   RDEPT  =    1.329    core radius for aug-charge                              
                                                                                
   Atomic configuration                                                         
    4 entries                                                                   
     n  l   j            E        occ.                                          
     1  0  0.50      -514.6923   2.0000                                         
     2  0  0.50       -23.9615   2.0000                                         
     2  1  0.50        -9.0305   4.0000                                         
     3  2  1.50        -9.5241   0.0000                                         
   Description                                                                  
     l       E           TYP  RCUT    TYP  RCUT                                 
     0    -23.9615318     23  1.200                                             
     0     -9.5240782     23  1.200                                             
     1     -9.0304911     23  1.520                                             
     1      8.1634956     23  1.520                                             
     2     -9.5240782      7  1.500                                             
  local pseudopotential read in
  partial core-charges read in
  partial kinetic energy density read in
  kinetic energy density of atom read in
  atomic valenz-charges read in
  non local Contribution for L=           0  read in
    real space projection operators read in
  non local Contribution for L=           0  read in
    real space projection operators read in
  non local Contribution for L=           1  read in
    real space projection operators read in
  non local Contribution for L=           1  read in
    real space projection operators read in
    PAW grid and wavefunctions read in
 
   number of l-projection  operators is LMAX  =           4
   number of lm-projection operators is LMMAX =           8
 
 POTCAR:    PAW_PBE F 08Apr2002                   
   VRHFIN =F: s2p5                                                              
   LEXCH  = PE                                                                  
   EATOM  =   659.6475 eV,   48.4827 Ry                                         
                                                                                
   TITEL  = PAW_PBE F 08Apr2002                                                 
   LULTRA =        F    use ultrasoft PP ?                                      
   IUNSCR =        1    unscreen: 0-lin 1-nonlin 2-no                           
   RPACOR =    1.200    partial core radius                                     
   POMASS =   18.998; ZVAL   =    7.000    mass and valenz                      
   RCORE  =    1.520    outmost cutoff radius                                   
   RWIGS  =    1.500; RWIGS  =    0.794    wigner-seitz radius (au A)           
   ENMAX  =  400.000; ENMIN  =  300.000 eV                                      
   ICORE  =        2    local potential                                         
   LCOR   =        T    correct aug charges                                     
   LPAW   =        T    paw PP                                                  
   EAUG   =  613.614                                                            
   RMAX   =    1.555    core radius for proj-oper                               
   RAUG   =    1.300    factor for augmentation sphere                          
   RDEP   =    1.539    radius for radial grids                                 
   RDEPT  =    1.299    core radius for aug-charge                              
                                                                                
   Atomic configuration                                                         
    4 entries                                                                   
     n  l   j            E        occ.                                          
     1  0  0.50      -663.3661   2.0000                                         
     2  0  0.50       -29.8995   2.0000                                         
     2  1  0.50       -11.1114   5.0000                                         
     3  2  1.50       -10.8847   0.0000                                         
   Description                                                                  
     l       E           TYP  RCUT    TYP  RCUT                                 
     0    -29.8995018     23  1.200                                             
     0     -9.5240782     23  1.200                                             
     1    -11.1113914     23  1.520                                             
     1      1.3605826     23  1.520                                             
     2    -10.8846608      7  1.500                                             
  local pseudopotential read in
  partial core-charges read in
  partial kinetic energy density read in
  atomic valenz-charges read in
  non local Contribution for L=           0  read in
    real space projection operators read in
  non local Contribution for L=           0  read in
    real space projection operators read in
  non local Contribution for L=           1  read in
    real space projection operators read in
  non local Contribution for L=           1  read in
    real space projection operators read in
    PAW grid and wavefunctions read in
 
   number of l-projection  operators is LMAX  =           4
   number of lm-projection operators is LMMAX =           8
 
 Optimization of the real space projectors (new method)

 maximal supplied QI-value         = 22.11
 optimisation between [QCUT,QGAM] = [ 11.28, 22.77] = [ 35.61,145.23] Ry 
 Optimized for a Real-space Cutoff    1.31 Angstroem

   l    n(q)    QCUT    max X(q) W(low)/X(q) W(high)/X(q)  e(spline) 
   0      9    11.276    10.506    0.19E-04    0.17E-04    0.32E-07
   0      9    11.276     8.367    0.38E-04    0.40E-04    0.65E-07
   1      8    11.276     8.983    0.55E-04    0.98E-04    0.20E-06
 Optimization of the real space projectors (new method)

 maximal supplied QI-value         = 15.12
 optimisation between [QCUT,QGAM] = [ 11.34, 22.83] = [ 36.00,145.93] Ry 
 Optimized for a Real-space Cutoff    1.56 Angstroem

   l    n(q)    QCUT    max X(q) W(low)/X(q) W(high)/X(q)  e(spline) 
   1     10    11.338     4.216    0.27E-04    0.12E-04    0.66E-07
   1     10    11.338     5.422    0.81E-04    0.24E-04    0.19E-06
   2     10    11.338    72.084    0.64E-04    0.21E-03    0.51E-06
   2     10    11.338    65.965    0.63E-04    0.21E-03    0.50E-06
   0     11    11.338    41.531    0.33E-04    0.54E-04    0.13E-06
   0     11    11.338    16.290    0.26E-04    0.41E-04    0.11E-06
 Optimization of the real space projectors (new method)

 maximal supplied QI-value         = 24.76
 optimisation between [QCUT,QGAM] = [ 11.39, 22.77] = [ 36.31,145.25] Ry 
 Optimized for a Real-space Cutoff    1.20 Angstroem

   l    n(q)    QCUT    max X(q) W(low)/X(q) W(high)/X(q)  e(spline) 
   0      8    11.387    20.381    0.89E-04    0.31E-03    0.27E-06
   0      8    11.387    15.268    0.93E-04    0.32E-03    0.29E-06
   1      8    11.387     5.964    0.53E-04    0.28E-03    0.29E-06
   1      8    11.387     5.382    0.37E-04    0.22E-03    0.26E-06
 Optimization of the real space projectors (new method)

 maximal supplied QI-value         = 24.76
 optimisation between [QCUT,QGAM] = [ 11.39, 22.77] = [ 36.31,145.25] Ry 
 Optimized for a Real-space Cutoff    1.20 Angstroem

   l    n(q)    QCUT    max X(q) W(low)/X(q) W(high)/X(q)  e(spline) 
   0      8    11.387    14.049    0.69E-04    0.23E-03    0.18E-06
   0      8    11.387     8.945    0.88E-04    0.30E-03    0.26E-06
   1      8    11.387     7.086    0.62E-04    0.27E-03    0.27E-06
   1      8    11.387     6.747    0.46E-04    0.23E-03    0.25E-06

 ----------------------------------------------------------------------------- 
|                                                                             |
|  ADVICE TO THIS USER RUNNING 'VASP/VAMP'   (HEAR YOUR MASTER'S VOICE ...):  |
|                                                                             |
|      You enforced a specific xc-type in the INCAR file,                     |
|      a different type was found on the POTCAR file                          |
|          I HOPE YOU KNOW, WHAT YOU ARE  DOING                               |
|                                                                             |
 ----------------------------------------------------------------------------- 

  PAW_PBE Li_sv 10Sep2004               :
 energy of atom  1       EATOM= -202.7858
 kinetic energy error for atom=    0.0143 (will be added to EATOM!!)
  PAW_PBE Ti_pv 07Sep2000               :
 energy of atom  2       EATOM=-1042.5995
 kinetic energy error for atom=    0.0024 (will be added to EATOM!!)
  PAW_PBE O 08Apr2002                   :
 energy of atom  3       EATOM= -432.3788
 kinetic energy error for atom=    0.0224 (will be added to EATOM!!)
  PAW_PBE F 08Apr2002                   :
 energy of atom  4       EATOM= -659.6475
 kinetic energy error for atom=    0.0354 (will be added to EATOM!!)
 
 
 POSCAR: config 54                               
  positions in direct lattice
  velocities in cartesian coordinates
 exchange correlation table for  LEXCH =       14
   RHO(1)=    0.500       N(1)  =     2000
   RHO(2)=  100.500       N(2)  =     4000

 VTST: version 3.2, (02/03/18)

 CHAIN: initializing optimizer
 
 OPT: Using VASP QUASI-newton optimizer
 CHAIN: Read ICHAIN            0
 
 POSCAR: config 54                               
  positions in direct lattice
  velocities in cartesian coordinates
 


--------------------------------------------------------------------------------------------------------


 ion  position               nearest neighbor table
   1  0.872  0.448  0.377- 104 1.92 107 1.93 160 2.01 137 2.05  41 2.84  12 2.87  48 2.88
   2  0.995  0.995  0.994- 118 1.87  68 1.88 103 1.89 171 2.03 212 2.04 130 2.04
   3  0.000  0.993  0.494-  67 1.83 119 1.83 172 1.95 193 1.96 213 1.97 131 2.02
   4  0.005  0.495  0.998-  89 1.83 117 1.85 138 1.93 132 1.98 214 2.02 194 2.03
   5  0.996  0.503  0.510-  66 1.80 104 1.89 223 1.92 215 1.93 173 1.98 137 2.10
   6  0.494  0.994  0.999- 101 1.83 121 1.85 140 1.95 133 1.96 216 2.02 174 2.03
   7  0.500  0.008  0.500- 112 1.77 191 1.90 134 1.91 139 1.92 175 1.93 225 2.02
   8  0.504  0.495  0.996- 120 1.87  70 1.88  90 1.90 192 2.02 135 2.04 217 2.05
   9  0.492  0.499  0.495- 102 1.79  69 1.86 224 1.96 218 1.97 136 2.01 176 2.09
  10  0.007  0.003  0.256-  91 1.83  67 1.85 219 1.95 227 1.97 130 2.00 197 2.06
  11  0.001  0.007  0.757-  68 1.80 113 1.84 177 1.95 198 1.99 228 2.04 131 2.05
  12  0.997  0.491  0.247- 122 1.80 107 1.89 132 1.94 137 1.98 178 1.99 220 2.03   1 2.87
  13  0.992  0.500  0.744- 108 1.82  66 1.83 226 1.92 221 1.96 138 1.99 179 2.03
  14  0.506  0.009  0.250- 114 1.82  92 1.84 133 1.92 139 1.97 195 2.00 231 2.05
  15  0.493  0.005  0.752- 105 1.81 115 1.83 140 1.93 134 1.99 232 2.01 180 2.03
  16  0.494  0.496  0.258-  69 1.82 106 1.83 229 1.95 222 2.00 135 2.01 181 2.07
  17  0.501  0.504  0.758-  70 1.80 116 1.87 182 1.95 196 1.96 230 2.03 136 2.07
  18  0.995  0.257  0.004- 117 1.83 110 1.88 141 1.93 146 1.98 183 2.01 212 2.02
  19  0.999  0.248  0.494-  74 1.91 213 2.00 142 2.01 184 2.02 202 2.03 223 2.04
  20  0.998  0.758  0.006- 118 1.81  71 1.86 203 1.95 185 1.97 148 2.04 214 2.06
  21  0.998  0.757  0.506- 119 1.81  72 1.84 204 1.95 186 1.96 147 2.02 215 2.04
  22  0.494  0.257  0.002- 120 1.80 109 1.84 150 1.96 143 1.98 187 2.04 216 2.06
  23  0.509  0.245  0.498-  93 1.79 112 1.90 144 1.93 149 1.95 224 1.97 199 2.00
  24  0.507  0.756  0.999-  94 1.83 121 1.83 152 1.94 145 1.99 217 2.01 200 2.02
  25  0.507  0.752  0.509-  73 1.79  95 1.83 225 1.95 218 1.95 201 2.00 151 2.07
  26  0.999  0.258  0.257-  74 1.78 122 1.86 209 1.98 188 1.98 219 2.02 141 2.04
  27  0.006  0.242  0.750- 113 1.80  96 1.83 142 1.94 146 1.97 226 2.06 210 2.06
  28  0.007  0.747  0.243-  71 1.82  97 1.84 220 1.96 227 1.98 147 2.04 211 2.06
  29  0.993  0.750  0.743- 111 1.83  72 1.84 228 1.93 221 1.98 189 2.02 148 2.03
  30  0.508  0.241  0.252- 114 1.82  98 1.82 143 1.93 149 1.96 229 2.02 205 2.03
  31  0.507  0.243  0.751-  99 1.84 115 1.84 150 1.93 144 1.97 206 2.01 230 2.02
  32  0.507  0.751  0.252- 100 1.79 151 1.92 231 1.93 145 1.94 222 1.94 207 2.00
  33  0.502  0.742  0.744- 116 1.81  73 1.84 190 1.93 208 1.96 152 2.02 232 2.06
  34  0.256  0.999  0.006-  75 1.84 101 1.86 246 1.93 233 1.96 171 2.01 157 2.04
  35  0.250  0.994  0.507- 128 1.83  76 1.84 172 1.94 191 1.98 234 2.01 156 2.03
  36  0.243  0.508  0.998- 123 1.82  89 1.84 159 1.93 153 1.97 192 2.02 245 2.03
  37  0.254  0.493  0.506-  77 1.85 127 1.86 102 1.88 158 2.04 173 2.05 235 2.05
  38  0.757  0.000  0.994- 103 1.79  81 1.87 236 1.95 249 1.96 154 2.05 174 2.05
  39  0.751  0.007  0.494- 124 1.83  80 1.83 193 1.92 175 1.98 155 1.99 250 2.02
  40  0.742  0.500  0.004-  90 1.79  78 1.88 237 1.95 247 1.96 161 2.00 194 2.05
  41  0.754  0.498  0.510-  79 1.80 104 1.88 248 1.95 238 1.96 176 1.97 160 2.08   1 2.84
  42  0.245  0.002  0.244-  75 1.84  91 1.84 239 1.94 252 1.97 156 2.03 195 2.06
  43  0.257  0.998  0.744-  76 1.84 105 1.84 253 1.93 240 1.97 177 2.02 157 2.02
  44  0.256  0.491  0.252- 129 1.82 106 1.83 158 1.93 153 1.96 241 2.04 178 2.07
  45  0.248  0.506  0.741-  77 1.79 125 1.83 179 1.95 196 1.97 251 2.02 159 2.06
  46  0.745  0.001  0.256-  92 1.85  80 1.85 256 1.95 242 1.96 154 1.99 197 2.00
  47  0.748  0.006  0.756-  81 1.82 126 1.83 180 1.94 198 1.96 257 2.04 155 2.06
  48  0.756  0.498  0.239-  78 1.78 107 1.88 243 1.94 254 1.97 181 1.99 160 2.10   1 2.88
  49  0.758  0.498  0.746- 108 1.82  79 1.85 255 1.93 244 1.97 161 1.99 182 2.02
  50  0.257  0.251  0.006- 109 1.84  82 1.86 245 1.93 233 1.97 168 2.02 183 2.05
  51  0.252  0.256  0.505- 127 1.82  83 1.86 184 1.93 199 1.97 167 2.04 234 2.05
  52  0.252  0.742  0.994- 123 1.82  86 1.83 200 1.94 185 1.96 246 2.03 162 2.04
  53  0.251  0.755  0.493-  85 1.83 128 1.86 201 1.95 186 1.97 235 2.00 163 2.04
  54  0.756  0.251  0.007- 110 1.80  84 1.86 236 1.94 247 1.95 170 2.03 187 2.04
  55  0.744  0.242  0.498- 124 1.82  93 1.86 202 1.94 169 1.95 164 1.97 248 2.04
  56  0.742  0.749  0.994-  94 1.82  88 1.83 249 1.94 237 1.95 203 2.01 165 2.04
  57  0.742  0.752  0.494-  95 1.81  87 1.86 250 1.93 238 1.97 166 2.01 204 2.02
  58  0.251  0.258  0.244-  82 1.83 129 1.83 205 1.97 188 1.99 167 2.02 239 2.04
  59  0.243  0.251  0.744-  83 1.83  96 1.85 251 1.94 240 1.97 168 2.04 206 2.05
  60  0.244  0.747  0.256-  97 1.83  85 1.84 241 1.94 252 1.98 162 2.02 207 2.06
  61  0.248  0.742  0.757- 125 1.81  86 1.84 189 1.93 208 1.97 163 2.03 253 2.04
  62  0.741  0.250  0.242-  84 1.80  98 1.83 242 1.94 254 1.95 209 2.04 169 2.07
  63  0.744  0.242  0.751- 126 1.82  99 1.84 170 1.94 164 1.99 210 2.01 255 2.05
  64  0.746  0.749  0.256-  87 1.81 100 1.89 256 1.94 243 1.95 211 1.98 165 2.02
  65  0.757  0.750  0.757- 111 1.81  88 1.84 257 1.93 244 1.97 190 2.03 166 2.05
  66  0.001  0.509  0.626-   5 1.80  13 1.83
  67  0.996  0.002  0.375-   3 1.83  10 1.85
  68  0.000  0.999  0.873-  11 1.80   2 1.88
  69  0.505  0.493  0.375-  16 1.82   9 1.86
  70  0.499  0.497  0.875-  17 1.80   8 1.88
  71  0.996  0.743  0.126-  28 1.82  20 1.86
  72  0.999  0.743  0.625-  29 1.84  21 1.84
  73  0.498  0.752  0.625-  25 1.79  33 1.84
  74  0.986  0.259  0.372-  26 1.78  19 1.91
  75  0.255  0.003  0.125-  42 1.84  34 1.84
  76  0.255  0.003  0.625-  43 1.84  35 1.84
  77  0.243  0.495  0.625-  45 1.79  37 1.85
  78  0.756  0.489  0.124-  48 1.78  40 1.88
  79  0.752  0.492  0.626-  41 1.80  49 1.85
  80  0.750  0.001  0.376-  39 1.83  46 1.85
  81  0.746  0.000  0.873-  47 1.82  38 1.87
  82  0.242  0.249  0.126-  58 1.83  50 1.86
  83  0.248  0.250  0.625-  59 1.83  51 1.86
  84  0.736  0.260  0.126-  62 1.80  54 1.86
  85  0.252  0.746  0.374-  53 1.83  60 1.84
  86  0.249  0.752  0.875-  52 1.83  61 1.84
  87  0.750  0.749  0.374-  64 1.81  57 1.86
  88  0.745  0.750  0.875-  56 1.83  65 1.84
  89  0.124  0.504  0.000-   4 1.83  36 1.84
  90  0.626  0.507  0.003-  40 1.79   8 1.90
  91  0.125  0.006  0.251-  10 1.83  42 1.84
  92  0.625  0.006  0.249-  14 1.84  46 1.85
  93  0.624  0.252  0.488-  23 1.79  55 1.86
  94  0.625  0.741  0.006-  56 1.82  24 1.83
  95  0.625  0.755  0.499-  57 1.81  25 1.83
  96  0.124  0.251  0.755-  27 1.83  59 1.85
  97  0.125  0.746  0.249-  60 1.83  28 1.84
  98  0.625  0.239  0.265-  30 1.82  62 1.83
  99  0.625  0.252  0.755-  31 1.84  63 1.84
 100  0.623  0.747  0.248-  32 1.79  64 1.89
 101  0.376  1.000  0.992-   6 1.83  34 1.86
 102  0.376  0.501  0.500-   9 1.79  37 1.88
 103  0.873  0.002  1.000-  38 1.79   2 1.89
 104  0.875  0.494  0.493-  41 1.88   5 1.89   1 1.92
 105  0.376  0.996  0.757-  15 1.81  43 1.84
 106  0.375  0.491  0.253-  44 1.83  16 1.83
 107  0.875  0.488  0.258-  48 1.88  12 1.89   1 1.93
 108  0.875  0.507  0.754-  49 1.82  13 1.82
 109  0.376  0.248  0.008-  50 1.84  22 1.84
 110  0.873  0.249  0.010-  54 1.80  18 1.88
 111  0.875  0.744  0.752-  65 1.81  29 1.83
 112  0.505  0.122  0.495-   7 1.77  23 1.90
 113  0.996  0.126  0.747-  27 1.80  11 1.84
 114  0.490  0.125  0.261-  14 1.82  30 1.82
 115  0.501  0.123  0.748-  15 1.83  31 1.84
 116  0.502  0.625  0.750-  33 1.81  17 1.87
 117  1.000  0.376  0.008-  18 1.83   4 1.85
 118  0.001  0.875  0.004-  20 1.81   2 1.87
 119  0.003  0.874  0.501-  21 1.81   3 1.83
 120  0.503  0.374  0.007-  22 1.80   8 1.87
 121  0.504  0.875  0.004-  24 1.83   6 1.85
 122  0.012  0.376  0.238-  12 1.80  26 1.86
 123  0.255  0.625  0.002-  52 1.82  36 1.82
 124  0.746  0.124  0.505-  55 1.82  39 1.83
 125  0.248  0.624  0.750-  61 1.81  45 1.83
 126  0.751  0.124  0.742-  63 1.82  47 1.83
 127  0.248  0.374  0.493-  51 1.82  37 1.86
 128  0.248  0.875  0.500-  35 1.83  53 1.86
 129  0.238  0.375  0.256-  44 1.82  58 1.83
 130  0.999  0.005  0.127-  10 2.00   2 2.04
 131  0.003  0.997  0.625-   3 2.02  11 2.05
 132  0.992  0.515  0.124-  12 1.94   4 1.98
 133  0.494  0.006  0.126-  14 1.92   6 1.96
 134  0.496  0.995  0.623-   7 1.91  15 1.99
 135  0.500  0.507  0.128-  16 2.01   8 2.04
 136  0.505  0.501  0.624-   9 2.01  17 2.07
 137  0.998  0.487  0.375-  12 1.98   1 2.05   5 2.10
 138  0.002  0.495  0.873-   4 1.93  13 1.99
 139  0.504  0.989  0.376-   7 1.92  14 1.97
 140  0.515  0.999  0.875-  15 1.93   6 1.95
 141  0.011  0.242  0.127-  18 1.93  26 2.04
 142  0.004  0.255  0.624-  27 1.94  19 2.01
 143  0.514  0.239  0.127-  30 1.93  22 1.98
 144  0.504  0.248  0.623-  23 1.93  31 1.97
 145  0.493  0.745  0.127-  32 1.94  24 1.99
 146  0.991  0.254  0.876-  27 1.97  18 1.98
 147  0.997  0.752  0.375-  21 2.02  28 2.04
 148  0.004  0.753  0.874-  29 2.03  20 2.04
 149  0.486  0.262  0.375-  23 1.95  30 1.96
 150  0.494  0.252  0.875-  31 1.93  22 1.96
 151  0.496  0.754  0.375-  32 1.92  25 2.07
 152  0.502  0.752  0.874-  24 1.94  33 2.02
 153  0.249  0.494  0.125-  44 1.96  36 1.97
 154  0.749  0.001  0.126-  46 1.99  38 2.05
 155  0.747  0.993  0.623-  39 1.99  47 2.06
 156  0.252  0.001  0.375-  35 2.03  42 2.03
 157  0.243  0.995  0.875-  43 2.02  34 2.04
 158  0.244  0.512  0.375-  44 1.93  37 2.04
 159  0.254  0.498  0.874-  36 1.93  45 2.06
 160  0.753  0.501  0.375-   1 2.01  41 2.08  48 2.10
 161  0.746  0.508  0.874-  49 1.99  40 2.00
 162  0.255  0.754  0.125-  60 2.02  52 2.04
 163  0.252  0.751  0.625-  61 2.03  53 2.04
 164  0.742  0.263  0.623-  55 1.97  63 1.99
 165  0.755  0.749  0.126-  64 2.02  56 2.04
 166  0.751  0.749  0.624-  57 2.01  65 2.05
 167  0.262  0.244  0.374-  58 2.02  51 2.04
 168  0.256  0.251  0.876-  50 2.02  59 2.04
 169  0.766  0.244  0.373-  55 1.95  62 2.07
 170  0.757  0.242  0.876-  63 1.94  54 2.03
 171  0.126  0.002  0.003-  34 2.01   2 2.03
 172  0.125  0.009  0.499-  35 1.94   3 1.95
 173  0.123  0.508  0.494-   5 1.98  37 2.05
 174  0.625  0.002  0.008-   6 2.03  38 2.05
 175  0.624  0.988  0.503-   7 1.93  39 1.98
 176  0.627  0.499  0.500-  41 1.97   9 2.09
 177  0.127  0.000  0.747-  11 1.95  43 2.02
 178  0.124  0.513  0.247-  12 1.99  44 2.07
 179  0.123  0.493  0.757-  45 1.95  13 2.03
 180  0.624  0.995  0.740-  47 1.94  15 2.03
 181  0.627  0.505  0.248-  48 1.99  16 2.07
 182  0.627  0.493  0.751-  17 1.95  49 2.02
 183  0.125  0.251  0.991-  18 2.01  50 2.05
 184  0.129  0.238  0.490-  51 1.93  19 2.02
 185  0.125  0.745  0.003-  52 1.96  20 1.97
 186  0.124  0.744  0.499-  21 1.96  53 1.97
 187  0.626  0.248  0.989-  22 2.04  54 2.04
 188  0.125  0.235  0.261-  26 1.98  58 1.99
 189  0.124  0.753  0.748-  61 1.93  29 2.02
 190  0.626  0.753  0.747-  33 1.93  65 2.03
 191  0.378  1.000  0.495-   7 1.90  35 1.98
 192  0.373  0.495  0.004-   8 2.02  36 2.02
 193  0.874  0.997  0.508-  39 1.92   3 1.96
 194  0.874  0.498  0.992-   4 2.03  40 2.05
 195  0.377  0.991  0.256-  14 2.00  42 2.06
 196  0.375  0.498  0.745-  17 1.96  45 1.97
 197  0.874  0.995  0.247-  46 2.00  10 2.06
 198  0.874  0.993  0.743-  47 1.96  11 1.99
 199  0.380  0.248  0.505-  51 1.97  23 2.00
 200  0.377  0.756  0.999-  52 1.94  24 2.02
 201  0.377  0.747  0.499-  53 1.95  25 2.00
 202  0.869  0.256  0.511-  55 1.94  19 2.03
 203  0.872  0.754  0.997-  20 1.95  56 2.01
 204  0.873  0.748  0.501-  21 1.95  57 2.02
 205  0.378  0.262  0.240-  58 1.97  30 2.03
 206  0.376  0.250  0.747-  31 2.01  59 2.05
 207  0.377  0.752  0.250-  32 2.00  60 2.06
 208  0.375  0.755  0.752-  33 1.96  61 1.97
 209  0.873  0.262  0.237-  26 1.98  62 2.04
 210  0.874  0.254  0.743-  63 2.01  27 2.06
 211  0.874  0.753  0.251-  64 1.98  28 2.06
 212  0.003  0.127  0.998-  18 2.02   2 2.04
 213  0.992  0.120  0.507-   3 1.97  19 2.00
 214  0.993  0.625  0.991-   4 2.02  20 2.06
 215  0.996  0.626  0.488-   5 1.93  21 2.04
 216  0.504  0.124  0.997-   6 2.02  22 2.06
 217  0.490  0.627  0.999-  24 2.01   8 2.05
 218  0.504  0.626  0.497-  25 1.95   9 1.97
 219  0.988  0.128  0.249-  10 1.95  26 2.02
 220  0.993  0.622  0.260-  28 1.96  12 2.03
 221  0.010  0.625  0.760-  13 1.96  29 1.98
 222  0.496  0.625  0.255-  32 1.94  16 2.00
 223  0.010  0.380  0.505-   5 1.92  19 2.04
 224  0.499  0.372  0.507-   9 1.96  23 1.97
 225  0.494  0.877  0.498-  25 1.95   7 2.02
 226  0.995  0.375  0.748-  13 1.92  27 2.06
 227  0.000  0.875  0.248-  10 1.97  28 1.98
 228  0.000  0.875  0.746-  29 1.93  11 2.04
 229  0.511  0.372  0.241-  16 1.95  30 2.02
 230  0.497  0.373  0.744-  31 2.02  17 2.03
 231  0.502  0.876  0.246-  32 1.93  14 2.05
 232  0.503  0.875  0.753-  15 2.01  33 2.06
 233  0.246  0.125  0.994-  34 1.96  50 1.97
 234  0.258  0.123  0.497-  35 2.01  51 2.05
 235  0.251  0.626  0.505-  53 2.00  37 2.05
 236  0.743  0.126  0.005-  54 1.94  38 1.95
 237  0.761  0.625  0.005-  56 1.95  40 1.95
 238  0.749  0.624  0.502-  41 1.96  57 1.97
 239  0.263  0.126  0.253-  42 1.94  58 2.04
 240  0.251  0.124  0.757-  43 1.97  59 1.97
 241  0.257  0.623  0.241-  60 1.94  44 2.04
 242  0.764  0.126  0.245-  62 1.94  46 1.96
 243  0.755  0.624  0.246-  48 1.94  64 1.95
 244  0.740  0.624  0.746-  49 1.97  65 1.97
 245  0.249  0.376  0.998-  50 1.93  36 2.03
 246  0.245  0.874  0.003-  34 1.93  52 2.03
 247  0.747  0.375  0.985-  54 1.95  40 1.96
 248  0.749  0.373  0.488-  41 1.95  55 2.04
 249  0.745  0.875  0.006-  56 1.94  38 1.96
 250  0.755  0.876  0.501-  57 1.93  39 2.02
 251  0.254  0.376  0.757-  59 1.94  45 2.02
 252  0.250  0.875  0.251-  42 1.97  60 1.98
 253  0.247  0.873  0.747-  43 1.93  61 2.04
 254  0.741  0.374  0.265-  62 1.95  48 1.97
 255  0.754  0.374  0.761-  49 1.93  63 2.05
 256  0.748  0.875  0.246-  64 1.94  46 1.95
 257  0.750  0.875  0.746-  65 1.93  47 2.04
 

IMPORTANT INFORMATION: All symmetrisations will be switched off!
NOSYMM: (Re-)initialisation of all symmetry stuff for point group C_1.

 
 
 KPOINTS: Title                                   

Automatic generation of k-mesh.
Space group operators:
 irot       det(A)        alpha          n_x          n_y          n_z        tau_x        tau_y        tau_z
    1     1.000000     0.000001     1.000000     0.000000     0.000000     0.000000     0.000000     0.000000
 
 Subroutine IBZKPT returns following result:
 ===========================================
 
 Found      4 irreducible k-points:
 
 Following reciprocal coordinates:
            Coordinates               Weight
  0.250000  0.250000  0.250000      2.000000
 -0.250000  0.250000  0.250000      2.000000
  0.250000 -0.250000  0.250000      2.000000
 -0.250000 -0.250000  0.250000      2.000000
 
 Following cartesian coordinates:
            Coordinates               Weight
  0.016206  0.016206  0.016206      2.000000
 -0.016206  0.016206  0.016206      2.000000
  0.016206 -0.016206  0.016206      2.000000
 -0.016206 -0.016206  0.016206      2.000000
 


--------------------------------------------------------------------------------------------------------




 Dimension of arrays:
   k-points           NKPTS =      4   k-points in BZ     NKDIM =      4   number of bands    NBANDS=   1164
   number of dos      NEDOS =   3001   number of ions     NIONS =    257
   non local maximal  LDIM  =      6   non local SUM 2l+1 LMDIM =     18
   total plane-waves  NPLWV = ******
   max r-space proj   IRMAX =   7595   max aug-charges    IRDMAX= 146383
   dimension x,y,z NGX =   120 NGY =  120 NGZ =  120
   dimension x,y,z NGXF=   240 NGYF=  240 NGZF=  240
   support grid    NGXF=   480 NGYF=  480 NGZF=  480
   ions per type =               1  64  64 128
   NGX,Y,Z   is equivalent  to a cutoff of  12.93, 12.93, 12.93 a.u.
   NGXF,Y,Z  is equivalent  to a cutoff of  25.86, 25.86, 25.86 a.u.

 SYSTEM =  LTO                                     
 POSCAR =  config 54                               

 Startparameter for this run:
   NWRITE =      2    write-flag & timer
   PREC   = accura    normal or accurate (medium, high low for compatibility)
   ISTART =      1    job   : 0-new  1-cont  2-samecut
   ICHARG =      0    charge: 1-file 2-atom 10-const
   ISPIN  =      2    spin polarized calculation?
   LNONCOLLINEAR =      F non collinear calculations
   LSORBIT =      F    spin-orbit coupling
   INIWAV =      1    electr: 0-lowe 1-rand  2-diag
   LASPH  =      T    aspherical Exc in radial PAW
   METAGGA=      F    non-selfconsistent MetaGGA calc.

 Electronic Relaxation 1
   ENCUT  =  500.0 eV  36.75 Ry    6.06 a.u.  28.13 28.13 28.13*2*pi/ulx,y,z
   ENINI  =  500.0     initial cutoff
   ENAUG  =  628.9 eV  augmentation charge cutoff
   NELM   =     60;   NELMIN=  2; NELMDL=  0     # of ELM steps 
   EDIFF  = 0.1E-05   stopping-criterion for ELM
   LREAL  =      T    real-space projection
   NLSPLINE    = F    spline interpolate recip. space projectors
   LCOMPAT=      F    compatible to vasp.4.4
   GGA_COMPAT  = T    GGA compatible to vasp.4.4-vasp.4.6
   LMAXPAW     = -100 max onsite density
   LMAXMIX     =    4 max onsite mixed and CHGCAR
   VOSKOWN=      0    Vosko Wilk Nusair interpolation
   ROPT   =   -0.00010  -0.00010  -0.00010  -0.00010
 Ionic relaxation
   EDIFFG = -.5E-01   stopping-criterion for IOM
   NSW    =    100    number of steps for IOM
   NBLOCK =      1;   KBLOCK =    100    inner block; outer block 
   IBRION =      1    ionic relax: 0-MD 1-quasi-New 2-CG
   NFREE  =      0    steps in history (QN), initial steepest desc. (CG)
   ISIF   =      2    stress and relaxation
   IWAVPR =     11    prediction:  0-non 1-charg 2-wave 3-comb
   ISYM   =      0    0-nonsym 1-usesym 2-fastsym
   LCORR  =      T    Harris-Foulkes like correction to forces

   POTIM  = 0.5000    time-step for ionic-motion
   TEIN   =    0.0    initial temperature
   TEBEG  =    0.0;   TEEND  =   0.0 temperature during run
   SMASS  =  -3.00    Nose mass-parameter (am)
   estimated Nose-frequenzy (Omega)   =  0.10E-29 period in steps =****** mass=  -0.544E-26a.u.
   SCALEE = 1.0000    scale energy and forces
   NPACO  =    256;   APACO  = 16.0  distance and # of slots for P.C.
   PSTRESS=    0.0 pullay stress

  Mass of Ions in am
   POMASS =   7.01 47.88 16.00 19.00
  Ionic Valenz
   ZVAL   =   3.00 10.00  6.00  7.00
  Atomic Wigner-Seitz radii
   RWIGS  =  -1.00 -1.00 -1.00 -1.00
  virtual crystal weights 
   VCA    =   1.00  1.00  1.00  1.00
   NELECT =    1923.0000    total number of electrons
   NUPDOWN=       1.0000    fix difference up-down

 DOS related values:
   EMIN   =  10.00;   EMAX   =-10.00  energy-range for DOS
   EFERMI =   0.00
   ISMEAR =     0;   SIGMA  =   0.01  broadening in eV -4-tet -1-fermi 0-gaus

 Electronic relaxation 2 (details)
   IALGO  =     38    algorithm
   LDIAG  =      T    sub-space diagonalisation (order eigenvalues)
   LSUBROT=      F    optimize rotation matrix (better conditioning)
   TURBO    =      0    0=normal 1=particle mesh
   IRESTART =      0    0=no restart 2=restart with 2 vectors
   NREBOOT  =      0    no. of reboots
   NMIN     =      0    reboot dimension
   EREF     =   0.00    reference energy to select bands
   IMIX   =      4    mixing-type and parameters
     AMIX     =   0.40;   BMIX     =  1.00
     AMIX_MAG =   1.60;   BMIX_MAG =  1.00
     AMIN     =   0.10
     WC   =   100.;   INIMIX=   1;  MIXPRE=   1;  MAXMIX= -45

 Intra band minimization:
   WEIMIN = 0.0010     energy-eigenvalue tresh-hold
   EBREAK =  0.21E-09  absolut break condition
   DEPER  =   0.30     relativ break condition  

   TIME   =   0.40     timestep for ELM

  volume/ion in A,a.u.               =      14.28        96.39
  Fermi-wavevector in a.u.,A,eV,Ry     =   1.319690  2.493853 23.695660  1.741582
  Thomas-Fermi vector in A             =   2.449570
 
 Write flags
   LWAVE        =      T    write WAVECAR
   LDOWNSAMPLE  =      F    k-point downsampling of WAVECAR
   LCHARG       =      T    write CHGCAR
   LVTOT        =      F    write LOCPOT, total local potential
   LVHAR        =      F    write LOCPOT, Hartree potential only
   LELF         =      F    write electronic localiz. function (ELF)
   LORBIT       =     11    0 simple, 1 ext, 2 COOP (PROOUT), +10 PAW based schemes


 Dipole corrections
   LMONO  =      F    monopole corrections only (constant potential shift)
   LDIPOL =      F    correct potential (dipole corrections)
   IDIPOL =      0    1-x, 2-y, 3-z, 4-all directions 
   EPSILON=  1.0000000 bulk dielectric constant

 LDA+U is selected, type is set to LDAUTYPE =  2
   angular momentum for each species LDAUL =    -1    2   -1   -1
   U (eV)           for each species LDAUU =   0.0  4.2  0.0  0.0
   J (eV)           for each species LDAUJ =   0.0  0.0  0.0  0.0
 Exchange correlation treatment:
   GGA     =    PS    GGA type
   LEXCH   =    14    internal setting for exchange type
   VOSKOWN=      0    Vosko Wilk Nusair interpolation
   LHFCALC =     F    Hartree Fock is set to
   LHFONE  =     F    Hartree Fock one center treatment
   AEXX    =    0.0000 exact exchange contribution

 Linear response parameters
   LEPSILON=     F    determine dielectric tensor
   LRPA    =     F    only Hartree local field effects (RPA)
   LNABLA  =     F    use nabla operator in PAW spheres
   LVEL    =     F    velocity operator in full k-point grid
   LINTERFAST=   F  fast interpolation
   KINTER  =     0    interpolate to denser k-point grid
   CSHIFT  =0.1000    complex shift for real part using Kramers Kronig
   OMEGAMAX=  -1.0    maximum frequency
   DEG_THRESHOLD= 0.2000000E-02 threshold for treating states as degnerate
   RTIME   =   -0.100 relaxation time in fs
  (WPLASMAI=    0.000 imaginary part of plasma frequency in eV, 0.658/RTIME)
   DFIELD  = 0.0000000 0.0000000 0.0000000 field for delta impulse in time
 
 Orbital magnetization related:
   ORBITALMAG=     F  switch on orbital magnetization
   LCHIMAG   =     F  perturbation theory with respect to B field
   DQ        =  0.001000  dq finite difference perturbation B field
   LLRAUG    =     F  two centre corrections for induced B field



--------------------------------------------------------------------------------------------------------


 quasi-Newton-method for relaxation of ions
 charge density and potential will be updated during run
 spin polarized calculation
 Variant of blocked Davidson
 Davidson routine will perform the subspace rotation
 perform sub-space diagonalisation
    after iterative eigenvector-optimisation
 modified Broyden-mixing scheme, WC =      100.0
 initial mixing is a Kerker type mixing with AMIX =  0.4000 and BMIX =      1.0000
 Hartree-type preconditioning will be used
 using additional bands          202
 real space projection scheme for non local part
 use partial core corrections
 calculate Harris-corrections to forces 
   (improved forces if not selfconsistent)
 use gradient corrections 
 use of overlap-Matrix (Vanderbilt PP)
 Gauss-broadening in eV      SIGMA  =   0.01


--------------------------------------------------------------------------------------------------------


  energy-cutoff  :      500.00
  volume of cell :     3671.03
      direct lattice vectors                 reciprocal lattice vectors
    15.426331000  0.000000000  0.000000000     0.064824228  0.000000000  0.000000000
     0.000000000 15.426331000  0.000000000     0.000000000  0.064824228  0.000000000
     0.000000000  0.000000000 15.426331000     0.000000000  0.000000000  0.064824228

  length of vectors
    15.426331000 15.426331000 15.426331000     0.064824228  0.064824228  0.064824228


 
 old parameters found on file WAVECAR:
  energy-cutoff  :      500.00
  volume of cell :     3671.03
      direct lattice vectors                 reciprocal lattice vectors
    15.426331000  0.000000000  0.000000000     0.064824228  0.000000000  0.000000000
     0.000000000 15.426331000  0.000000000     0.000000000  0.064824228  0.000000000
     0.000000000  0.000000000 15.426331000     0.000000000  0.000000000  0.064824228

  length of vectors

 
 k-points in units of 2pi/SCALE and weight: Title                                   
   0.01620606  0.01620606  0.01620606       0.250
  -0.01620606  0.01620606  0.01620606       0.250
   0.01620606 -0.01620606  0.01620606       0.250
  -0.01620606 -0.01620606  0.01620606       0.250
 
 k-points in reciprocal lattice and weights: Title                                   
   0.25000000  0.25000000  0.25000000       0.250
  -0.25000000  0.25000000  0.25000000       0.250
   0.25000000 -0.25000000  0.25000000       0.250
  -0.25000000 -0.25000000  0.25000000       0.250
 
 position of ions in fractional coordinates (direct lattice) 
   0.87151435  0.44818776  0.37687253
   0.99511359  0.99511845  0.99448467
   0.00028698  0.99303612  0.49352435
   0.00538887  0.49513383  0.99780035
   0.99596997  0.50326047  0.50988446
   0.49404713  0.99394388  0.99940024
   0.50049395  0.00781216  0.49952959
   0.50391578  0.49476841  0.99633223
   0.49180802  0.49864709  0.49488661
   0.00669398  0.00256563  0.25583644
   0.00131815  0.00713506  0.75685555
   0.99695997  0.49148251  0.24685725
   0.99244061  0.49977860  0.74431318
   0.50568793  0.00853783  0.25019606
   0.49260348  0.00488319  0.75174695
   0.49363916  0.49596795  0.25776324
   0.50141334  0.50400239  0.75836098
   0.99487723  0.25722848  0.00361656
   0.99901447  0.24848807  0.49436994
   0.99780414  0.75768593  0.00610242
   0.99829336  0.75736721  0.50586177
   0.49439764  0.25741233  0.00150308
   0.50886031  0.24520337  0.49813956
   0.50731302  0.75609647  0.99934965
   0.50658577  0.75204340  0.50920581
   0.99893182  0.25780302  0.25743255
   0.00635764  0.24220703  0.74960525
   0.00656567  0.74700459  0.24275372
   0.99287355  0.75046888  0.74310235
   0.50779166  0.24123416  0.25175467
   0.50663608  0.24271155  0.75066702
   0.50695716  0.75064821  0.25153738
   0.50162621  0.74186786  0.74355045
   0.25628559  0.99855343  0.00606564
   0.24976934  0.99350243  0.50654619
   0.24315984  0.50773476  0.99829296
   0.25440974  0.49344457  0.50582003
   0.75694556  0.00041286  0.99393420
   0.75079840  0.00657855  0.49437092
   0.74168995  0.50011764  0.00361853
   0.75447163  0.49768360  0.50980742
   0.24470395  0.00248334  0.24378139
   0.25748464  0.99772477  0.74438404
   0.25613178  0.49149457  0.25229184
   0.24758980  0.50588263  0.74082174
   0.74452419  0.00085704  0.25558087
   0.74804813  0.00639574  0.75571221
   0.75569851  0.49804153  0.23909847
   0.75777943  0.49782027  0.74592119
   0.25657722  0.25127267  0.00649379
   0.25217136  0.25615822  0.50525710
   0.25169317  0.74243545  0.99355826
   0.25129654  0.75498903  0.49272061
   0.75634516  0.25076044  0.00727724
   0.74412805  0.24186719  0.49757385
   0.74156837  0.74905753  0.99410878
   0.74190883  0.75153529  0.49409900
   0.25059113  0.25750495  0.24382829
   0.24346303  0.25145152  0.74392334
   0.24379609  0.74737235  0.25550485
   0.24800235  0.74159533  0.75659940
   0.74123510  0.24986811  0.24159724
   0.74392473  0.24154592  0.75103199
   0.74564847  0.74947489  0.25646369
   0.75741332  0.75042064  0.75687364
   0.00121025  0.50937411  0.62639338
   0.99606004  0.00184327  0.37548312
   0.00025093  0.99935904  0.87308964
   0.50465009  0.49330210  0.37521924
   0.49855821  0.49665771  0.87489029
   0.99639357  0.74261430  0.12551374
   0.99906178  0.74256298  0.62450020
   0.49796101  0.75245570  0.62479896
   0.98598561  0.25932404  0.37185234
   0.25545499  0.00283232  0.12530390
   0.25459852  0.00276173  0.62539843
   0.24273597  0.49510521  0.62534852
   0.75602019  0.48903050  0.12390505
   0.75185888  0.49200693  0.62631411
   0.75028876  0.00108332  0.37561265
   0.74553565  0.00036905  0.87331792
   0.24206731  0.24945334  0.12588302
   0.24778287  0.24986293  0.62536051
   0.73614123  0.25983958  0.12568142
   0.25233687  0.74611569  0.37439870
   0.24883064  0.75196455  0.87521029
   0.74985572  0.74884794  0.37395969
   0.74540131  0.74950783  0.87540919
   0.12394543  0.50371671  0.00038083
   0.62607134  0.50722916  0.00256828
   0.12544824  0.00648634  0.25114513
   0.62478858  0.00600356  0.24942886
   0.62440311  0.25206951  0.48781566
   0.62458051  0.74126510  0.00611059
   0.62477315  0.75523019  0.49923588
   0.12436809  0.25147721  0.75520432
   0.12545280  0.74572812  0.24915591
   0.62519930  0.23941375  0.26548871
   0.62525681  0.25233899  0.75463701
   0.62320333  0.74743803  0.24811553
   0.37595816  0.99974616  0.99189634
   0.37562666  0.50112091  0.49984684
   0.87270584  0.00196484  0.99988104
   0.87523609  0.49372097  0.49263800
   0.37601636  0.99625469  0.75723610
   0.37489588  0.49127366  0.25296880
   0.87534518  0.48771787  0.25846588
   0.87492462  0.50748785  0.75418874
   0.37552846  0.24818350  0.00814567
   0.87330778  0.24885352  0.00985719
   0.87468873  0.74424488  0.75203707
   0.50480286  0.12218655  0.49503325
   0.99599096  0.12571607  0.74744644
   0.48987569  0.12480530  0.26134193
   0.50113978  0.12341971  0.74758978
   0.50154735  0.62487410  0.75011813
   0.99954187  0.37569394  0.00786393
   0.00149488  0.87465947  0.00367325
   0.00306472  0.87443674  0.50117605
   0.50299898  0.37391228  0.00748656
   0.50430075  0.87481354  0.00382377
   0.01240709  0.37593625  0.23792128
   0.25536288  0.62493125  0.00216165
   0.74633292  0.12441247  0.50544998
   0.24848180  0.62424008  0.74982968
   0.75108570  0.12445240  0.74190622
   0.24792393  0.37354284  0.49299056
   0.24813920  0.87513157  0.49960802
   0.23831441  0.37476104  0.25647569
   0.99919096  0.00458972  0.12661477
   0.00347615  0.99742056  0.62466057
   0.99219892  0.51531898  0.12368473
   0.49383794  0.00611123  0.12617996
   0.49646964  0.99482700  0.62291961
   0.50007194  0.50656565  0.12799417
   0.50499574  0.50056345  0.62422515
   0.99838218  0.48716899  0.37486154
   0.00165018  0.49453626  0.87304355
   0.50398080  0.98922608  0.37644765
   0.51529824  0.99941130  0.87481861
   0.01117407  0.24152340  0.12666193
   0.00431903  0.25467491  0.62416192
   0.51363305  0.23928461  0.12682673
   0.50445340  0.24773509  0.62294002
   0.49318505  0.74543810  0.12684803
   0.99050103  0.25404981  0.87560105
   0.99671254  0.75238370  0.37481637
   0.00381833  0.75277332  0.87409388
   0.48581961  0.26187223  0.37529394
   0.49359979  0.25160558  0.87483418
   0.49635782  0.75410631  0.37542502
   0.50179337  0.75197966  0.87403021
   0.24870166  0.49439307  0.12542686
   0.74927768  0.00062322  0.12635652
   0.74696568  0.99343741  0.62295776
   0.25224012  0.00102424  0.37535960
   0.24281714  0.99500733  0.87453259
   0.24385011  0.51174916  0.37497115
   0.25393833  0.49770487  0.87391474
   0.75256705  0.50059075  0.37488717
   0.74633354  0.50803083  0.87414662
   0.25462631  0.75435226  0.12491261
   0.25199127  0.75093272  0.62516748
   0.74244249  0.26250787  0.62349813
   0.75463977  0.74924594  0.12595066
   0.75051981  0.74873863  0.62417395
   0.26175247  0.24401545  0.37365436
   0.25612827  0.25088953  0.87566250
   0.76604979  0.24414710  0.37330610
   0.75708367  0.24213309  0.87610472
   0.12594385  0.00200244  0.00279112
   0.12546283  0.00917758  0.49866409
   0.12295894  0.50778445  0.49406821
   0.62489517  0.00172131  0.00763813
   0.62388768  0.98813352  0.50279102
   0.62689962  0.49887135  0.50031605
   0.12689470  0.00025562  0.74709654
   0.12392678  0.51278330  0.24698115
   0.12294599  0.49316239  0.75714620
   0.62351430  0.99465844  0.74048578
   0.62721197  0.50495649  0.24784350
   0.62691382  0.49283905  0.75058880
   0.12453766  0.25051086  0.99126414
   0.12923028  0.23780915  0.48998078
   0.12508509  0.74512372  0.00333719
   0.12445191  0.74351601  0.49874323
   0.62552291  0.24839509  0.98903264
   0.12504827  0.23480212  0.26139915
   0.12358703  0.75317330  0.74799758
   0.62634946  0.75346311  0.74673174
   0.37757904  0.99962223  0.49498394
   0.37349995  0.49545038  0.00442540
   0.87410607  0.99727946  0.50773151
   0.87399265  0.49766313  0.99222326
   0.37731446  0.99141712  0.25626733
   0.37491977  0.49774229  0.74504401
   0.87360655  0.99454454  0.24698105
   0.87402496  0.99316681  0.74348651
   0.37968157  0.24794963  0.50491316
   0.37664231  0.75614588  0.99881968
   0.37732720  0.74714843  0.49897470
   0.86865717  0.25640343  0.51071122
   0.87198020  0.75414887  0.99650685
   0.87251577  0.74813126  0.50056309
   0.37834234  0.26152796  0.24036440
   0.37625517  0.24957445  0.74723963
   0.37738874  0.75247153  0.24978598
   0.37525354  0.75453607  0.75210211
   0.87253873  0.26191296  0.23717794
   0.87354979  0.25433898  0.74331744
   0.87362445  0.75275865  0.25101151
   0.00287858  0.12695324  0.99823733
   0.99157991  0.11993904  0.50699889
   0.99336468  0.62520985  0.99090696
   0.99593864  0.62611536  0.48784044
   0.50397888  0.12430474  0.99743767
   0.48997125  0.62668451  0.99945414
   0.50424329  0.62603080  0.49652078
   0.98805886  0.12763789  0.24940572
   0.99252400  0.62228752  0.26035895
   0.01023916  0.62450683  0.76003157
   0.49642774  0.62532610  0.25542154
   0.00965293  0.37953979  0.50533918
   0.49923785  0.37238423  0.50704398
   0.49382313  0.87721602  0.49835902
   0.99522089  0.37523672  0.74776523
   0.00044080  0.87517937  0.24806936
   0.00033053  0.87508651  0.74611060
   0.51057001  0.37161035  0.24133070
   0.49683808  0.37327074  0.74436014
   0.50200692  0.87557298  0.24569537
   0.50268585  0.87477382  0.75262542
   0.24602514  0.12480097  0.99368815
   0.25808080  0.12333032  0.49703465
   0.25057048  0.62614381  0.50510092
   0.74345869  0.12583688  0.00539071
   0.76126552  0.62489062  0.00536200
   0.74931768  0.62426941  0.50249905
   0.26330306  0.12636837  0.25296579
   0.25130015  0.12435808  0.75721364
   0.25695504  0.62315259  0.24117158
   0.76373953  0.12597357  0.24522807
   0.75523086  0.62381607  0.24570670
   0.73966048  0.62419938  0.74556415
   0.24857137  0.37611766  0.99791346
   0.24547795  0.87377989  0.00279341
   0.74696592  0.37482247  0.98500148
   0.74863277  0.37345374  0.48760901
   0.74508197  0.87453153  0.00553185
   0.75522758  0.87562545  0.50098993
   0.25387995  0.37592616  0.75650845
   0.24978698  0.87521685  0.25110727
   0.24682838  0.87320376  0.74669756
   0.74105073  0.37398587  0.26482223
   0.75440044  0.37396852  0.76090580
   0.74795575  0.87492882  0.24604538
   0.75029915  0.87472757  0.74600852
 
 position of ions in cartesian coordinates  (Angst):
  13.44426876  6.91389280  5.81376037
  15.35095169 15.35102658 15.34124974
   0.00442706 15.31890388  7.61326999
   0.08313050  7.63809843 15.39239849
  15.36416243  7.76346254  7.86564653
   7.62133455 15.33290736 15.41707891
   7.72078534  0.12051290  7.70590884
   7.77357164  7.63246131 15.36975075
   7.58679334  7.69229499  7.63428471
   0.10326348  0.03957826  3.94661759
   0.02033426  0.11006775 11.67550417
  15.37943446  7.58177192  3.80810160
  15.30971739  7.70975013 11.48202144
   7.80090938  0.13170742  3.85960722
   7.59906432  0.07532973 11.59669734
   7.61504109  7.65096580  3.97634100
   7.73496821  7.77490776 11.69872742
  15.34730551  3.96809165  0.05579033
  15.41112795  3.83325921  7.62631438
  15.39245701 11.68831400  0.09413796
  15.40000387 11.68339729  7.80359116
   7.62674171  3.97092774  0.02318699
   7.84984758  3.78258834  7.68446571
   7.82597864 11.66379443 15.41629852
   7.81475971 11.60127046  7.85517730
  15.40985293  3.97695467  3.97123969
   0.09807508  3.73636574 11.56365869
   0.10128415 11.52354008  3.74479920
  15.31639606 11.57698142 11.46334274
   7.83336223  3.72135803  3.88365081
   7.81553587  3.74414869 11.58003785
   7.82048894 11.57974777  3.88029896
   7.73825199 11.44429909 11.47025533
   3.95354635 15.40401578  0.09357054
   3.85302444 15.32609733  7.81414921
   3.75106418  7.83248454 15.39999759
   3.92460879  7.61203927  7.80294724
  11.67689270  0.00636890 15.33275799
  11.58206461  0.10148293  7.62632949
  11.44155460  7.71498028  0.05582065
  11.63872915  7.67743192  7.86445796
   3.77488409  0.03830879  3.76065234
   3.97204330 15.39123262 11.48311457
   3.95117354  7.58195787  3.89193736
   3.81940218  7.80391295 11.42816131
  11.48527662  0.01322093  3.94267507
  11.53963798  0.09866287 11.65786669
  11.65765541  7.68295354  3.68841217
  11.68975627  7.67954028 11.50682717
   3.95804509  3.87621540  0.10017539
   3.89007893  3.95158153  7.79426328
   3.88270210 11.45305495 15.32695859
   3.87658359 11.64671060  7.60087119
  11.66763083  3.86831353  0.11226105
  11.47916560  3.73112332  7.67573888
  11.43967918 11.55520939 15.33545114
  11.44493116 11.59343215  7.62213472
   3.86570169  3.97235660  3.76137588
   3.75574133  3.87897437 11.47600775
   3.76087913 11.52921319  3.94150244
   3.82576628 11.44009500 11.67155285
  11.43453801  3.85454818  3.72695894
  11.47602911  3.72616735 11.58566810
  11.50262018 11.56164779  3.95629383
  11.68410859 11.57623724 11.67578327
   0.01866972  7.85777358  9.66295163
  15.36555192  0.02843484  5.79232688
   0.00387098 15.41644335 13.46856983
   7.78489931  7.60984150  5.78825618
   7.69092403  7.66160617 13.49634714
  15.37069695 11.45581396  1.93621648
  15.41185764 11.45502226  9.63374675
   7.68171139 11.60763069  9.63835561
  15.21014038  4.00041845  5.73631732
   3.94073322  0.04369229  1.93297938
   3.92752108  0.04260336  9.64760316
   3.74452541  7.63765689  9.64683333
  11.66261777  7.54394629  1.91140031
  11.59842395  7.58986181  9.66172876
  11.57420281  0.01671166  5.79432513
  11.50087965  0.00569306 13.47209124
   3.73421045  3.84814983  1.94191316
   3.82238056  3.85446831  9.64701818
  11.35595823  4.00837136  1.93880326
   3.89263205 11.50982756  5.77559820
   3.83854380 11.60005408 13.50128366
  11.56752254 11.55197621  5.76882596
  11.49880734 11.56215588 13.50435186
   1.91202325  7.77050077  0.00587483
   9.65798376  7.82468489  0.03961916
   1.93520607  0.10006036  3.87424787
   9.63819538  0.09261293  3.84777220
   9.63224908  3.88850763  7.52520579
   9.63498574 11.43500079  0.09426404
   9.63795739 11.65043096  7.70137791
   1.91854340  3.87937063 11.65003181
   1.93527647 11.50384877  3.84356148
   9.64453138  3.69327569  4.09551674
   9.64541853  3.89266486 11.64128030
   9.61374091 11.53022651  3.82751222
   5.79965507 15.42241520 15.30132134
   5.79454122  7.73045708  7.71080278
  13.46264918  0.03031029 15.42449584
  13.50168168  7.61630316  7.59959692
   5.80055283 15.36855458 11.68137466
   5.78326797  7.57855006  3.90238039
  13.50336455  7.52369734  3.98718025
  13.49687683  7.82867550 11.63436508
   5.79302632  3.82856087  0.12565782
  13.47193482  3.83889683  0.15206031
  13.49323782 11.48096786 11.60117271
   7.78725594  1.88489015  7.63654685
  15.36448625  1.93933764 11.53035624
   7.55698447  1.92528789  4.03154716
   7.73074809  1.90391327 11.53256741
   7.73703546  9.63951472 11.57157057
  15.41926367  5.79557900  0.12131156
   0.02306056 13.49278647  0.05666471
   0.04727738 13.48935058  7.73130763
   7.75942870  5.76809458  0.11549014
   7.77951036 13.49516327  0.05898681
   0.19139581  5.79931702  3.67025239
   3.93931234  9.64039639  0.03334640
  11.51317863  1.91922792  7.79723868
   3.83316257  9.62973407 11.56712089
  11.58649669  1.91984391 11.44489086
   3.82455658  5.76239542  7.60503562
   3.82787743 13.50006926  7.70711864
   3.67631696  5.78118791  3.95647895
  15.41385055  0.07080257  1.95320139
   0.05362426 15.38653969  9.63622075
  15.30598894  7.94948123  1.90800163
   7.61810751  0.09427390  1.94649386
   7.65870494 15.34653057  9.60936404
   7.71427524  7.81444945  1.97448039
   7.79023142  7.72185751  9.62950377
  15.40137402  7.51523003  5.78273824
   0.02545618  7.62888003 13.46785882
   7.77457461 15.26012891  5.80720608
   7.94916128 15.41724954 13.49524143
   0.17237496  3.72581997  1.95392882
   0.06662672  3.92869941  9.62852841
   7.92347349  3.69128355  1.95647111
   7.78186518  3.82164357  9.60967900
   7.60803583 11.49937490  1.95679967
  15.27979673  3.91905648 13.50731169
  15.37561750 11.60651995  5.78204141
   0.05890287 11.61253035 13.48406155
   7.49441404  4.03972767  5.78940847
   7.61443367  3.88135103 13.49548162
   7.65697996 11.63309355  5.79143066
   7.74083068 11.60028712 13.48307939
   3.83655411  7.62667119  1.93487633
  11.55860546  0.00961404  1.94921745
  11.52293988 15.32509429  9.60995254
   3.89113954  0.01580030  5.79042139
   3.74577759 15.34931244 13.49082927
   3.76171250  7.89441187  5.78442914
   3.91733681  7.67776009 13.48129806
  11.60934837  7.72227867  5.78313362
  11.51318828  7.83705180 13.48487516
   3.92794981 11.63688769  1.92694321
   3.88730071 11.58413670  9.64404052
  11.45316363  4.04953332  9.61828846
  11.64132293 11.55811581  1.94295656
  11.57776697 11.55028988  9.62871403
   4.03788019  3.76426312  5.76411578
   3.95111946  3.87030489 13.50825964
  11.81733767  3.76629392  5.75874347
  11.67902330  3.73522524 13.51508138
   1.94285147  0.03089035  0.04305671
   1.93543109  0.14157643  7.69255735
   1.89680528  7.83325095  7.62165968
   9.63983976  0.02655351  0.11782828
   9.62429779 15.24327477  7.75622063
   9.67076105  7.69575459  7.71804102
   1.95751963  0.00394329 11.52495848
   1.91173553  7.91036490  3.81001290
   1.89660549  7.60768628 11.67998784
   9.61853791 15.34393039 11.42297878
   9.67557944  7.78962590  3.82331583
   9.67098015  7.60269831 11.57883129
   1.92115912  3.86446342 15.29156866
   1.99354905  3.66852268  7.55860564
   1.92960395 11.49452521  0.05148054
   1.91983629 11.46972405  7.69377820
   9.64952347  3.83182494 15.25714484
   1.92903602  3.62213526  4.03242988
   1.90649436 11.61870063 11.53885832
   9.66227413 11.62317133 11.51933101
   5.82465932 15.42050340  7.63578609
   5.76173383  7.64298153  0.06826772
  13.48424955 15.38436302  7.83243427
  13.48249997  7.67711615 15.30636436
   5.82057782 15.29392858  3.95326464
   5.78363654  7.67833726 11.49329546
  13.47654381 15.34217329  3.81001147
  13.48299832 15.32091992 11.46926906
   5.85709355  3.82495312  7.78895758
   5.81020890 11.66455665 15.40812301
   5.82077433 11.52575892  7.69734883
  13.40019302  3.95536411  7.87840026
  13.45145514 11.63375016 15.37244453
  13.45971702 11.54092041  7.72185193
   5.83643415  4.03441692  3.70794073
   5.80423684  3.85001807 11.52716586
   5.82172363 11.60787494  3.85328125
   5.78878526 11.63972322 11.60217603
  13.46007124  4.04035602  3.65878535
  13.47566814  3.92351725 11.46666087
  13.47681994 11.61230411  3.87218662
   0.04440589  1.95842263 15.39913946
  15.29643994  1.85021938  7.82113263
  15.32397238  9.64469401 15.28605881
  15.36367906  9.65866274  7.52558813
   7.77454507  1.91756602 15.38680364
   7.55845870  9.66744271 15.41791042
   7.77862395  9.65735833  7.65949387
  15.24212300  1.96898440  3.84741517
  15.31100371  9.59961320  4.01638336
   0.15795274  9.63384905 11.72449850
   7.65805859  9.64648736  3.94021728
   0.14890931  5.85490650  7.79552946
   7.70140835  5.74452233  7.82182821
   7.61787899 13.53222473  7.68785113
  15.35260682  5.78852586 11.53527391
   0.00679995 13.50080662  3.82680009
   0.00509892 13.49937419 11.50974900
   7.87622199  5.73258427  3.72284726
   7.66438870  5.75819792 11.48274595
   7.74412489 13.50687861  3.79017810
   7.75459829 13.49455049 11.61024887
   3.79526525  1.92522108 15.32896224
   3.98123988  1.90253441  7.66742107
   3.86538318  9.65910169  7.79185391
  11.46883987  1.94120143  0.08315888
  11.74353386  9.63976948  0.08271591
  11.55922254  9.63018651  7.75171665
   4.06180018  1.94940037  3.90233405
   3.87663925  1.91838885 11.68102820
   3.96387349  9.61295819  3.72039258
  11.78169880  1.94330997  3.78296945
  11.65044128  9.62319313  3.79035284
  11.41024738  9.62910623 11.50131938
   3.83454421  5.80211555 15.39414335
   3.78682408 13.47921773  0.04309206
  11.52294348  5.78213553 15.19495886
  11.54865697  5.76102097  7.52201791
  11.49388114 13.49081280  0.08533608
  11.65039060 13.50768797  7.72843656
   3.91643609  5.79916138 11.67014974
   3.85329659 13.50138477  3.87366382
   3.80765625 13.47033023 11.51880370
  11.43169386  5.76922984  4.08523534
  11.63763095  5.76896213 11.73798475
  11.53821297 13.49694160  3.79557751
  11.57436304 13.49383710 11.50817442
 


--------------------------------------------------------------------------------------------------------


 k-point  1 :   0.2500 0.2500 0.2500  plane waves:   93161
 k-point  2 :  -0.2500 0.2500 0.2500  plane waves:   93161
 k-point  3 :   0.2500-0.2500 0.2500  plane waves:   93161
 k-point  4 :  -0.2500-0.2500 0.2500  plane waves:   93161

 maximum and minimum number of plane-waves per node :     11686    11606

 maximum number of plane-waves:     93161
 maximum index in each direction: 
   IXMAX=   28   IYMAX=   28   IZMAX=   27
   IXMIN=  -28   IYMIN=  -28   IZMIN=  -28


 real space projection operators:
  total allocation   :     105582.33 KBytes
  max/ min on nodes  :      13236.41      13164.81


 parallel 3D FFT for wavefunctions:
    minimum data exchange during FFTs selected (reduces bandwidth)
 parallel 3D FFT for charge:
    minimum data exchange during FFTs selected (reduces bandwidth)


 total amount of memory used by VASP MPI-rank0   291469. kBytes
=======================================================================

   base      :      30000. kBytes
   nonlr-proj:      49434. kBytes
   fftplans  :      27976. kBytes
   grid      :      34041. kBytes
   one-center:       1026. kBytes
   wavefun   :     148992. kBytes
 
     INWAV:  cpu time   52.0755: real time   52.4471
 Broyden mixing: mesh for mixing (old mesh)
   NGX = 57   NGY = 57   NGZ = 57
  (NGX  =240   NGY  =240   NGZ  =240)
  gives a total of 185193 points

 charge density for first step will be calculated from the start-wavefunctions


--------------------------------------------------------------------------------------------------------


 Maximum index for non-local projection operator          967
 Maximum index for augmentation-charges         3291 (set IRDMAX)


--------------------------------------------------------------------------------------------------------


 initial charge from wavefunction
 First call to EWALD:  gamma=   0.115
 Maximum number of real-space cells 3x 3x 3
 Maximum number of reciprocal cells 3x 3x 3

    FEWALD:  cpu time    0.0340: real time    0.0340


--------------------------------------- Iteration      1(   1)  ---------------------------------------


    POTLOK:  cpu time    0.2885: real time    0.3084
    SETDIJ:  cpu time    1.4064: real time    1.4365
     EDDAV:  cpu time  135.6443: real time  136.6661
       DOS:  cpu time    0.0030: real time    0.0031
    CHARGE:  cpu time    5.3149: real time    5.3188
    MIXING:  cpu time    0.0076: real time    0.0077
    --------------------------------------------
      LOOP:  cpu time  142.6648: real time  143.7405

 eigenvalue-minimisations  : 22980
 total energy-change (2. order) :-0.1863076E+04  (-0.3533793E+03)
 number of electron    1923.0000030 magnetization       1.0000000
 augmentation part      506.4695928 magnetization       0.5640220

 Broyden mixing:
  rms(total) = 0.94129E+01    rms(broyden)= 0.94095E+01
  rms(prec ) = 0.14420E+02
  weight for this iteration     100.00

 Free energy of the ion-electron system (eV)
  ---------------------------------------------------
  alpha Z        PSCENC =      6118.73324990
  Ewald energy   TEWEN  =   -103210.06770508
  -Hartree energ DENC   =    -65386.97876474
  -exchange      EXHF   =         0.00000000
  -V(xc)+E(xc)   XCENC  =      8960.58679119
  PAW double counting   =    198650.79678346  -199646.89356813
  entropy T*S    EENTRO =        -0.00626173
  eigenvalues    EBANDS =    -25926.49862317
  atomic energy  EATOM  =    178577.25249613
  Solvation  Ediel_sol  =         0.00000000
  ---------------------------------------------------
  free energy    TOTEN  =     -1863.07560217 eV

  energy without entropy =    -1863.06934044  energy(sigma->0) =    -1863.07247131


--------------------------------------------------------------------------------------------------------




--------------------------------------- Iteration      1(   2)  ---------------------------------------


    POTLOK:  cpu time    0.2607: real time    0.2632
    SETDIJ:  cpu time    1.4138: real time    1.4149
     EDDAV:  cpu time  151.6961: real time  152.9189
       DOS:  cpu time    0.0029: real time    0.0029
    CHARGE:  cpu time    5.3193: real time    5.3235
    MIXING:  cpu time    0.0077: real time    0.0078
    --------------------------------------------
      LOOP:  cpu time  158.7005: real time  159.9311

 eigenvalue-minimisations  : 27012
 total energy-change (2. order) :-0.1080836E+03  (-0.4545509E+03)
 number of electron    1923.0000030 magnetization       1.0000000
 augmentation part      510.4030825 magnetization       0.5245646

 Broyden mixing:
  rms(total) = 0.12467E+02    rms(broyden)= 0.12462E+02
  rms(prec ) = 0.18646E+02
  weight for this iteration     100.00

 eigenvalues of (default mixing * dielectric matrix)
  average eigenvalue GAMMA=   0.3957
  0.3957

 Free energy of the ion-electron system (eV)
  ---------------------------------------------------
  alpha Z        PSCENC =      6118.73324990
  Ewald energy   TEWEN  =   -103210.06770508
  -Hartree energ DENC   =    -65579.33389288
  -exchange      EXHF   =         0.00000000
  -V(xc)+E(xc)   XCENC  =      8961.92090132
  PAW double counting   =    200737.64595695  -201701.03578725
  entropy T*S    EENTRO =        -0.00454290
  eigenvalues    EBANDS =    -25876.26987732
  atomic energy  EATOM  =    178577.25249613
  Solvation  Ediel_sol  =         0.00000000
  ---------------------------------------------------
  free energy    TOTEN  =     -1971.15920113 eV

  energy without entropy =    -1971.15465822  energy(sigma->0) =    -1971.15692968


--------------------------------------------------------------------------------------------------------




--------------------------------------- Iteration      1(   3)  ---------------------------------------


    POTLOK:  cpu time    0.2769: real time    0.2772
    SETDIJ:  cpu time    1.4149: real time    1.4160
     EDDAV:  cpu time  155.4603: real time  156.5664
       DOS:  cpu time    0.0017: real time    0.0017
    CHARGE:  cpu time    5.3026: real time    5.3063
    MIXING:  cpu time    0.0120: real time    0.0120
    --------------------------------------------
      LOOP:  cpu time  162.4684: real time  163.5796

 eigenvalue-minimisations  : 27876
 total energy-change (2. order) : 0.8645775E+02  (-0.1369010E+03)
 number of electron    1923.0000029 magnetization       1.0000000
 augmentation part      491.4879695 magnetization       0.6423077

 Broyden mixing:
  rms(total) = 0.64329E+01    rms(broyden)= 0.64301E+01
  rms(prec ) = 0.74010E+01
  weight for this iteration     100.00

 eigenvalues of (default mixing * dielectric matrix)
  average eigenvalue GAMMA=   0.4432
  0.4432  0.4432

 Free energy of the ion-electron system (eV)
  ---------------------------------------------------
  alpha Z        PSCENC =      6118.73324990
  Ewald energy   TEWEN  =   -103210.06770508
  -Hartree energ DENC   =    -65658.95796859
  -exchange      EXHF   =         0.00000000
  -V(xc)+E(xc)   XCENC  =      8963.29624923
  PAW double counting   =    200912.03387635  -201865.33366368
  entropy T*S    EENTRO =        -0.00000000
  eigenvalues    EBANDS =    -25721.65798581
  atomic energy  EATOM  =    178577.25249613
  Solvation  Ediel_sol  =         0.00000000
  ---------------------------------------------------
  free energy    TOTEN  =     -1884.70145156 eV

  energy without entropy =    -1884.70145156  energy(sigma->0) =    -1884.70145156


--------------------------------------------------------------------------------------------------------




--------------------------------------- Iteration      1(   4)  ---------------------------------------


    POTLOK:  cpu time    0.2638: real time    0.2647
    SETDIJ:  cpu time    1.4000: real time    1.4014
     EDDAV:  cpu time  144.1746: real time  144.9684
       DOS:  cpu time    0.0017: real time    0.0017
    CHARGE:  cpu time    5.3114: real time    5.3164
    MIXING:  cpu time    0.0190: real time    0.0190
    --------------------------------------------
      LOOP:  cpu time  151.1706: real time  151.9716

 eigenvalue-minimisations  : 25236
 total energy-change (2. order) : 0.5817023E+02  (-0.4077159E+02)
 number of electron    1923.0000029 magnetization       1.0000000
 augmentation part      493.2089480 magnetization       0.6187047

 Broyden mixing:
  rms(total) = 0.47339E+01    rms(broyden)= 0.47331E+01
  rms(prec ) = 0.55113E+01
  weight for this iteration     100.00

 eigenvalues of (default mixing * dielectric matrix)
  average eigenvalue GAMMA=   0.5844
  0.6580  0.6580  0.4372

 Free energy of the ion-electron system (eV)
  ---------------------------------------------------
  alpha Z        PSCENC =      6118.73324990
  Ewald energy   TEWEN  =   -103210.06770508
  -Hartree energ DENC   =    -65592.05891352
  -exchange      EXHF   =         0.00000000
  -V(xc)+E(xc)   XCENC  =      8969.30420493
  PAW double counting   =    201046.44220255  -202019.33021810
  entropy T*S    EENTRO =        -0.00000000
  eigenvalues    EBANDS =    -25716.80654310
  atomic energy  EATOM  =    178577.25249613
  Solvation  Ediel_sol  =         0.00000000
  ---------------------------------------------------
  free energy    TOTEN  =     -1826.53122629 eV

  energy without entropy =    -1826.53122629  energy(sigma->0) =    -1826.53122629


--------------------------------------------------------------------------------------------------------




--------------------------------------- Iteration      1(   5)  ---------------------------------------


    POTLOK:  cpu time    0.3002: real time    0.3027
    SETDIJ:  cpu time    1.4273: real time    1.4279
     EDDAV:  cpu time  153.1935: real time  154.0191
       DOS:  cpu time    0.0018: real time    0.0017
    CHARGE:  cpu time    5.2910: real time    5.2949
    MIXING:  cpu time    0.0226: real time    0.0226
    --------------------------------------------
      LOOP:  cpu time  160.2365: real time  161.0691

 eigenvalue-minimisations  : 27156
 total energy-change (2. order) : 0.4781757E+02  (-0.1349609E+02)
 number of electron    1923.0000029 magnetization       1.0000000
 augmentation part      493.7746091 magnetization       0.5979522

 Broyden mixing:
  rms(total) = 0.25830E+01    rms(broyden)= 0.25825E+01
  rms(prec ) = 0.30357E+01
  weight for this iteration     100.00

 eigenvalues of (default mixing * dielectric matrix)
  average eigenvalue GAMMA=   0.6798
  0.8784  0.8784  0.4811  0.4811

 Free energy of the ion-electron system (eV)
  ---------------------------------------------------
  alpha Z        PSCENC =      6118.73324990
  Ewald energy   TEWEN  =   -103210.06770508
  -Hartree energ DENC   =    -65603.95064191
  -exchange      EXHF   =         0.00000000
  -V(xc)+E(xc)   XCENC  =      8976.60363087
  PAW double counting   =    200550.73079490  -201543.02031163
  entropy T*S    EENTRO =        -0.00000000
  eigenvalues    EBANDS =    -25644.99517394
  atomic energy  EATOM  =    178577.25249613
  Solvation  Ediel_sol  =         0.00000000
  ---------------------------------------------------
  free energy    TOTEN  =     -1778.71366076 eV

  energy without entropy =    -1778.71366076  energy(sigma->0) =    -1778.71366076


--------------------------------------------------------------------------------------------------------




--------------------------------------- Iteration      1(   6)  ---------------------------------------


    POTLOK:  cpu time    0.3022: real time    0.3025
    SETDIJ:  cpu time    1.4520: real time    1.4532
     EDDAV:  cpu time  152.6028: real time  153.4108
       DOS:  cpu time    0.0019: real time    0.0019
    CHARGE:  cpu time    5.3335: real time    5.3534
    MIXING:  cpu time    0.0263: real time    0.0263
    --------------------------------------------
      LOOP:  cpu time  159.7186: real time  160.5480

 eigenvalue-minimisations  : 27420
 total energy-change (2. order) : 0.1619911E+02  (-0.5863403E+01)
 number of electron    1923.0000029 magnetization       1.0000000
 augmentation part      495.0712785 magnetization       0.5876815

 Broyden mixing:
  rms(total) = 0.16305E+01    rms(broyden)= 0.16303E+01
  rms(prec ) = 0.17974E+01
  weight for this iteration     100.00

 eigenvalues of (default mixing * dielectric matrix)
  average eigenvalue GAMMA=   0.7114
  0.9765  0.9765  0.4379  0.5831  0.5831

 Free energy of the ion-electron system (eV)
  ---------------------------------------------------
  alpha Z        PSCENC =      6118.73324990
  Ewald energy   TEWEN  =   -103210.06770508
  -Hartree energ DENC   =    -65523.24184884
  -exchange      EXHF   =         0.00000000
  -V(xc)+E(xc)   XCENC  =      8975.71909396
  PAW double counting   =    200042.18127075  -201043.68484475
  entropy T*S    EENTRO =        -0.00000000
  eigenvalues    EBANDS =    -25699.40626475
  atomic energy  EATOM  =    178577.25249613
  Solvation  Ediel_sol  =         0.00000000
  ---------------------------------------------------
  free energy    TOTEN  =     -1762.51455269 eV

  energy without entropy =    -1762.51455269  energy(sigma->0) =    -1762.51455269


--------------------------------------------------------------------------------------------------------




--------------------------------------- Iteration      1(   7)  ---------------------------------------


    POTLOK:  cpu time    0.3123: real time    0.3149
    SETDIJ:  cpu time    1.4456: real time    1.4462
     EDDAV:  cpu time  152.1811: real time  152.9238
       DOS:  cpu time    0.0019: real time    0.0019
    CHARGE:  cpu time    5.2715: real time    5.2754
    MIXING:  cpu time    0.0258: real time    0.0258
    --------------------------------------------
      LOOP:  cpu time  159.2382: real time  159.9879

 eigenvalue-minimisations  : 27204
 total energy-change (2. order) : 0.1855670E+01  (-0.1036600E+01)
 number of electron    1923.0000029 magnetization       1.0000000
 augmentation part      495.9806878 magnetization       0.5839214

 Broyden mixing:
  rms(total) = 0.11620E+01    rms(broyden)= 0.11614E+01
  rms(prec ) = 0.12868E+01
  weight for this iteration     100.00

 eigenvalues of (default mixing * dielectric matrix)
  average eigenvalue GAMMA=   0.8778
  1.4109  1.4109  0.7132  0.7132  0.5093  0.5093

 Free energy of the ion-electron system (eV)
  ---------------------------------------------------
  alpha Z        PSCENC =      6118.73324990
  Ewald energy   TEWEN  =   -103210.06770508
  -Hartree energ DENC   =    -65478.18095602
  -exchange      EXHF   =         0.00000000
  -V(xc)+E(xc)   XCENC  =      8974.00844886
  PAW double counting   =    199751.33935693  -200754.43458345
  entropy T*S    EENTRO =        -0.00000000
  eigenvalues    EBANDS =    -25739.30918988
  atomic energy  EATOM  =    178577.25249613
  Solvation  Ediel_sol  =         0.00000000
  ---------------------------------------------------
  free energy    TOTEN  =     -1760.65888262 eV

  energy without entropy =    -1760.65888262  energy(sigma->0) =    -1760.65888262


--------------------------------------------------------------------------------------------------------




--------------------------------------- Iteration      1(   8)  ---------------------------------------


    POTLOK:  cpu time    0.3662: real time    0.3806
    SETDIJ:  cpu time    1.4460: real time    1.4466
     EDDAV:  cpu time  150.3355: real time  151.4254
       DOS:  cpu time    0.0019: real time    0.0019
    CHARGE:  cpu time    5.3223: real time    5.3261
    MIXING:  cpu time    0.0215: real time    0.0215
    --------------------------------------------
      LOOP:  cpu time  157.4933: real time  158.6022

 eigenvalue-minimisations  : 26940
 total energy-change (2. order) : 0.8277652E+00  (-0.7130003E+00)
[...]
   81        1.574   3.461   0.000   5.035
   82        1.575   3.460   0.000   5.034
   83        1.574   3.460   0.000   5.034
   84        1.576   3.470   0.000   5.046
   85        1.575   3.463   0.000   5.039
   86        1.575   3.467   0.000   5.042
   87        1.575   3.464   0.000   5.040
   88        1.575   3.466   0.000   5.041
   89        1.575   3.464   0.000   5.039
   90        1.576   3.458   0.000   5.034
   91        1.574   3.460   0.000   5.034
   92        1.574   3.460   0.000   5.034
   93        1.577   3.470   0.000   5.048
   94        1.577   3.472   0.000   5.049
   95        1.576   3.477   0.000   5.053
   96        1.575   3.464   0.000   5.038
   97        1.575   3.466   0.000   5.041
   98        1.576   3.469   0.000   5.045
   99        1.575   3.464   0.000   5.039
  100        1.576   3.458   0.000   5.034
  101        1.574   3.458   0.000   5.033
  102        1.575   3.464   0.000   5.039
  103        1.576   3.459   0.000   5.035
  104        1.566   3.493   0.000   5.058
  105        1.577   3.472   0.000   5.049
  106        1.575   3.465   0.000   5.040
  107        1.566   3.492   0.000   5.059
  108        1.577   3.474   0.000   5.051
  109        1.575   3.462   0.000   5.036
  110        1.575   3.458   0.000   5.033
  111        1.576   3.473   0.000   5.049
  112        1.577   3.466   0.000   5.043
  113        1.576   3.474   0.000   5.050
  114        1.577   3.473   0.000   5.051
  115        1.574   3.466   0.000   5.040
  116        1.575   3.463   0.000   5.038
  117        1.575   3.460   0.000   5.035
  118        1.575   3.462   0.000   5.038
  119        1.576   3.475   0.000   5.052
  120        1.575   3.461   0.000   5.036
  121        1.575   3.464   0.000   5.038
  122        1.576   3.467   0.000   5.044
  123        1.577   3.474   0.000   5.051
  124        1.576   3.473   0.000   5.049
  125        1.576   3.475   0.000   5.051
  126        1.576   3.471   0.000   5.047
  127        1.574   3.460   0.000   5.034
  128        1.574   3.461   0.000   5.035
  129        1.576   3.468   0.000   5.045
  130        1.737   4.369   0.000   6.106
  131        1.737   4.370   0.000   6.107
  132        1.739   4.382   0.000   6.120
  133        1.738   4.387   0.000   6.126
  134        1.738   4.385   0.000   6.123
  135        1.737   4.369   0.000   6.106
  136        1.736   4.368   0.000   6.104
  137        1.737   4.383   0.000   6.120
  138        1.739   4.386   0.000   6.125
  139        1.739   4.388   0.000   6.127
  140        1.739   4.387   0.000   6.126
  141        1.739   4.377   0.000   6.116
  142        1.737   4.387   0.000   6.125
  143        1.738   4.385   0.000   6.123
  144        1.738   4.386   0.000   6.125
  145        1.738   4.382   0.000   6.120
  146        1.737   4.380   0.000   6.117
  147        1.736   4.369   0.000   6.105
  148        1.736   4.368   0.000   6.104
  149        1.739   4.383   0.000   6.122
  150        1.738   4.387   0.000   6.125
  151        1.738   4.376   0.000   6.114
  152        1.738   4.380   0.000   6.118
  153        1.737   4.382   0.000   6.120
  154        1.737   4.371   0.000   6.108
  155        1.737   4.372   0.000   6.109
  156        1.737   4.369   0.000   6.106
  157        1.737   4.368   0.000   6.104
  158        1.738   4.376   0.000   6.115
  159        1.738   4.376   0.000   6.114
  160        1.736   4.377   0.000   6.113
  161        1.738   4.378   0.000   6.115
  162        1.736   4.369   0.000   6.106
  163        1.736   4.367   0.000   6.103
  164        1.737   4.377   0.000   6.114
  165        1.737   4.369   0.000   6.106
  166        1.736   4.369   0.000   6.106
  167        1.737   4.368   0.000   6.105
  168        1.737   4.369   0.000   6.105
  169        1.738   4.373   0.000   6.111
  170        1.738   4.378   0.000   6.116
  171        1.737   4.370   0.000   6.106
  172        1.738   4.387   0.000   6.126
  173        1.737   4.372   0.000   6.109
  174        1.737   4.369   0.000   6.106
  175        1.739   4.385   0.000   6.124
  176        1.737   4.369   0.000   6.106
  177        1.738   4.380   0.000   6.117
  178        1.737   4.368   0.000   6.105
  179        1.738   4.379   0.000   6.116
  180        1.738   4.379   0.000   6.117
  181        1.736   4.369   0.000   6.105
  182        1.738   4.379   0.000   6.116
  183        1.737   4.367   0.000   6.103
  184        1.737   4.382   0.000   6.119
  185        1.737   4.382   0.000   6.119
  186        1.738   4.382   0.000   6.120
  187        1.737   4.368   0.000   6.105
  188        1.737   4.375   0.000   6.113
  189        1.738   4.381   0.000   6.120
  190        1.738   4.381   0.000   6.119
  191        1.739   4.388   0.000   6.127
  192        1.737   4.370   0.000   6.107
  193        1.739   4.389   0.000   6.128
  194        1.737   4.368   0.000   6.105
  195        1.737   4.369   0.000   6.106
  196        1.737   4.382   0.000   6.120
  197        1.737   4.368   0.000   6.105
  198        1.737   4.380   0.000   6.117
  199        1.738   4.380   0.000   6.118
  200        1.738   4.381   0.000   6.119
  201        1.738   4.382   0.000   6.119
  202        1.737   4.381   0.000   6.119
  203        1.738   4.381   0.000   6.118
  204        1.738   4.380   0.000   6.118
  205        1.737   4.374   0.000   6.111
  206        1.736   4.368   0.000   6.105
  207        1.737   4.369   0.000   6.106
  208        1.737   4.382   0.000   6.119
  209        1.737   4.374   0.000   6.111
  210        1.736   4.368   0.000   6.105
  211        1.737   4.371   0.000   6.108
  212        1.737   4.368   0.000   6.105
  213        1.737   4.384   0.000   6.121
  214        1.736   4.367   0.000   6.103
  215        1.739   4.378   0.000   6.117
  216        1.736   4.368   0.000   6.105
  217        1.737   4.367   0.000   6.104
  218        1.737   4.383   0.000   6.120
  219        1.738   4.378   0.000   6.115
  220        1.738   4.376   0.000   6.114
  221        1.738   4.380   0.000   6.118
  222        1.738   4.380   0.000   6.118
  223        1.738   4.383   0.000   6.120
  224        1.738   4.384   0.000   6.122
  225        1.738   4.383   0.000   6.121
  226        1.738   4.377   0.000   6.115
  227        1.737   4.379   0.000   6.115
  228        1.738   4.378   0.000   6.116
  229        1.738   4.378   0.000   6.116
  230        1.737   4.369   0.000   6.106
  231        1.738   4.376   0.000   6.114
  232        1.737   4.370   0.000   6.106
  233        1.738   4.381   0.000   6.118
  234        1.737   4.369   0.000   6.106
  235        1.737   4.370   0.000   6.107
  236        1.739   4.388   0.000   6.126
  237        1.739   4.386   0.000   6.125
  238        1.737   4.383   0.000   6.120
  239        1.738   4.376   0.000   6.114
  240        1.737   4.380   0.000   6.118
  241        1.738   4.376   0.000   6.114
  242        1.739   4.385   0.000   6.124
  243        1.738   4.387   0.000   6.125
  244        1.738   4.380   0.000   6.118
  245        1.738   4.379   0.000   6.117
  246        1.738   4.378   0.000   6.116
  247        1.738   4.385   0.000   6.123
  248        1.738   4.380   0.000   6.118
  249        1.738   4.386   0.000   6.124
  250        1.738   4.381   0.000   6.120
  251        1.738   4.380   0.000   6.118
  252        1.737   4.380   0.000   6.117
  253        1.738   4.379   0.000   6.117
  254        1.739   4.386   0.000   6.125
  255        1.738   4.376   0.000   6.114
  256        1.738   4.386   0.000   6.125
  257        1.738   4.379   0.000   6.117
--------------------------------------------------
tot        345.5751195.614 112.6081653.797
 


 magnetization (x)
 
# of ion       s       p       d       tot
------------------------------------------
    1       -0.000  -0.000   0.000  -0.000
    2       -0.000  -0.000  -0.000  -0.000
    3       -0.000  -0.000   0.006   0.006
    4        0.000  -0.000  -0.000  -0.000
    5       -0.000  -0.000   0.006   0.006
    6       -0.000  -0.000  -0.000  -0.000
    7        0.000   0.000   0.000   0.000
    8        0.000  -0.000   0.000   0.000
    9        0.000   0.000   0.000   0.000
   10       -0.000  -0.000  -0.000  -0.000
   11       -0.000  -0.000   0.000   0.000
   12        0.000  -0.000  -0.000  -0.000
   13       -0.000  -0.000  -0.000  -0.000
   14       -0.000  -0.000  -0.000  -0.000
   15       -0.000  -0.000  -0.000  -0.000
   16       -0.000  -0.000  -0.000  -0.000
   17       -0.000  -0.000   0.000  -0.000
   18       -0.000  -0.000  -0.000  -0.000
   19        0.005   0.006   0.921   0.933
   20       -0.000  -0.000  -0.000  -0.000
   21       -0.000  -0.000   0.000   0.000
   22        0.000   0.000   0.000   0.000
   23        0.000   0.000   0.000   0.001
   24        0.000   0.000   0.000   0.000
   25        0.000   0.000   0.000   0.000
   26       -0.000  -0.000  -0.003  -0.004
   27       -0.000  -0.000   0.000  -0.000
   28        0.000   0.000   0.000   0.000
   29       -0.000  -0.000  -0.000  -0.000
   30       -0.000   0.000   0.000   0.000
   31        0.000  -0.000   0.000   0.000
   32        0.000   0.000   0.000   0.000
   33       -0.000  -0.000  -0.000  -0.000
   34       -0.000  -0.000  -0.000  -0.000
   35        0.000   0.000   0.000   0.000
   36       -0.000  -0.000  -0.000  -0.000
   37        0.000   0.000   0.001   0.001
   38       -0.000  -0.000  -0.000  -0.000
   39        0.000   0.000   0.003   0.003
   40        0.000   0.000   0.000   0.000
   41        0.000   0.000   0.002   0.002
   42        0.000  -0.000  -0.000  -0.000
   43       -0.000  -0.000  -0.000  -0.000
   44       -0.000  -0.000   0.000   0.000
   45       -0.000  -0.000  -0.000  -0.000
   46       -0.000  -0.000  -0.000  -0.000
   47       -0.000  -0.000   0.000   0.000
   48        0.000   0.000   0.000   0.000
   49       -0.000  -0.000  -0.000  -0.000
   50       -0.000  -0.000   0.000   0.000
   51       -0.000   0.000   0.004   0.004
   52       -0.000  -0.000  -0.000  -0.000
   53        0.000   0.000   0.000   0.000
   54        0.000  -0.000  -0.000  -0.000
   55       -0.000   0.000   0.007   0.007
   56       -0.000  -0.000   0.000   0.000
   57        0.000   0.000   0.000   0.000
   58        0.000   0.000   0.000   0.000
   59       -0.000  -0.000   0.000   0.000
   60       -0.000  -0.000  -0.000  -0.000
   61       -0.000  -0.000  -0.000  -0.000
   62        0.000   0.000   0.000   0.000
   63        0.000  -0.000   0.000   0.000
   64       -0.000  -0.000  -0.000  -0.000
   65       -0.000  -0.000  -0.000  -0.000
   66       -0.000  -0.000   0.000  -0.000
   67       -0.000  -0.000   0.000  -0.000
   68       -0.000  -0.000   0.000  -0.000
   69       -0.000  -0.000   0.000  -0.000
   70       -0.000  -0.000   0.000  -0.000
   71       -0.000  -0.000   0.000  -0.000
   72       -0.000  -0.000   0.000  -0.000
   73       -0.000  -0.000   0.000  -0.000
   74       -0.001  -0.016   0.000  -0.017
   75        0.000  -0.000   0.000  -0.000
   76       -0.000  -0.000   0.000  -0.000
   77       -0.000  -0.000   0.000  -0.000
   78       -0.000  -0.000   0.000  -0.000
   79       -0.000  -0.000   0.000  -0.000
   80       -0.000  -0.000   0.000  -0.000
   81       -0.000  -0.000   0.000  -0.000
   82       -0.000  -0.000   0.000  -0.000
   83       -0.000  -0.000   0.000  -0.000
   84       -0.000  -0.000   0.000  -0.000
   85       -0.000  -0.000   0.000  -0.000
   86       -0.000   0.000   0.000   0.000
   87       -0.000  -0.000   0.000  -0.000
   88        0.000  -0.000   0.000  -0.000
   89        0.000  -0.000   0.000  -0.000
   90        0.000   0.000   0.000   0.000
   91       -0.000  -0.000   0.000  -0.000
   92       -0.000  -0.000   0.000  -0.000
   93       -0.000  -0.000   0.000  -0.000
   94        0.000  -0.000   0.000  -0.000
   95       -0.000  -0.000   0.000  -0.000
   96       -0.000  -0.000   0.000  -0.000
   97        0.000  -0.000   0.000  -0.000
   98       -0.000  -0.000   0.000  -0.000
   99       -0.000  -0.000   0.000  -0.000
  100       -0.000  -0.000   0.000  -0.000
  101        0.000   0.000   0.000   0.000
  102       -0.000  -0.000   0.000  -0.000
  103       -0.000   0.000   0.000   0.000
  104       -0.000  -0.000   0.000  -0.000
  105        0.000  -0.000   0.000  -0.000
  106       -0.000  -0.000   0.000  -0.000
  107        0.000   0.000   0.000   0.000
  108       -0.000  -0.000   0.000  -0.000
  109       -0.000  -0.000   0.000  -0.000
  110        0.000   0.000   0.000   0.000
  111        0.000  -0.000   0.000  -0.000
  112       -0.000  -0.000   0.000  -0.000
  113       -0.000  -0.000   0.000  -0.000
  114       -0.000   0.000   0.000   0.000
  115        0.000   0.000   0.000   0.000
  116        0.000   0.000   0.000   0.000
  117        0.000  -0.000   0.000  -0.000
  118       -0.000  -0.000   0.000  -0.000
  119       -0.000  -0.001   0.000  -0.001
  120        0.000  -0.000   0.000  -0.000
  121        0.000   0.000   0.000   0.000
  122        0.000  -0.000   0.000  -0.000
  123        0.000   0.000   0.000   0.000
  124       -0.000  -0.001   0.000  -0.001
  125        0.000   0.000   0.000   0.000
  126       -0.000  -0.000   0.000  -0.000
  127       -0.000  -0.000   0.000  -0.000
  128       -0.000  -0.000   0.000  -0.000
  129       -0.000  -0.000   0.000  -0.000
  130       -0.000  -0.000   0.000  -0.000
  131       -0.000  -0.000   0.000  -0.000
  132       -0.000  -0.000   0.000  -0.000
  133       -0.000  -0.000   0.000  -0.000
  134       -0.000  -0.000   0.000  -0.000
  135       -0.000  -0.000   0.000  -0.000
  136        0.000  -0.000   0.000  -0.000
  137       -0.000  -0.000   0.000  -0.000
  138       -0.000  -0.000   0.000  -0.000
  139       -0.000  -0.000   0.000  -0.000
  140       -0.000   0.000   0.000   0.000
  141       -0.000  -0.000   0.000  -0.000
  142       -0.000  -0.005   0.000  -0.005
  143       -0.000  -0.000   0.000  -0.000
  144       -0.000  -0.000   0.000  -0.000
  145       -0.000  -0.000   0.000  -0.000
  146       -0.000  -0.000   0.000  -0.000
  147       -0.000  -0.000   0.000  -0.000
  148       -0.000  -0.000   0.000  -0.000
  149       -0.000  -0.000   0.000  -0.000
  150       -0.000  -0.000   0.000  -0.000
  151       -0.000  -0.000   0.000  -0.000
  152       -0.000   0.000   0.000   0.000
  153       -0.000  -0.000   0.000  -0.000
  154       -0.000  -0.000   0.000  -0.000
  155       -0.000  -0.000   0.000  -0.000
  156       -0.000  -0.000   0.000  -0.000
  157        0.000   0.000   0.000   0.000
  158       -0.000  -0.000   0.000  -0.000
  159       -0.000  -0.000   0.000  -0.000
  160       -0.000  -0.000   0.000  -0.000
  161       -0.000  -0.000   0.000  -0.000
  162        0.000   0.000   0.000   0.000
  163       -0.000  -0.000   0.000  -0.000
  164       -0.000  -0.000   0.000  -0.000
  165       -0.000  -0.000   0.000  -0.000
  166       -0.000  -0.000   0.000  -0.000
  167       -0.000  -0.000   0.000  -0.000
  168       -0.000  -0.000   0.000  -0.000
  169       -0.000  -0.000   0.000  -0.000
  170        0.000  -0.000   0.000  -0.000
  171        0.000   0.000   0.000   0.000
  172        0.000   0.000   0.000   0.000
  173        0.000   0.000   0.000   0.000
  174        0.000   0.000   0.000   0.000
  175       -0.000  -0.000   0.000  -0.000
  176       -0.000   0.000   0.000   0.000
  177       -0.000  -0.000   0.000  -0.000
  178       -0.000   0.000   0.000   0.000
  179       -0.000  -0.000   0.000  -0.000
  180        0.000  -0.000   0.000  -0.000
  181       -0.000  -0.000   0.000  -0.000
  182       -0.000  -0.000   0.000  -0.000
  183        0.000  -0.000   0.000  -0.000
  184       -0.000   0.003   0.000   0.002
  185        0.000   0.000   0.000   0.000
  186       -0.000  -0.000   0.000  -0.000
  187       -0.000  -0.000   0.000  -0.000
  188       -0.000  -0.000   0.000  -0.000
  189        0.000   0.000   0.000   0.000
  190       -0.000   0.000   0.000   0.000
  191        0.000   0.000   0.000   0.000
  192        0.000   0.000   0.000   0.000
  193        0.000  -0.000   0.000  -0.000
  194       -0.000  -0.000   0.000  -0.000
  195        0.000  -0.000   0.000  -0.000
  196       -0.000   0.000   0.000   0.000
  197       -0.000  -0.000   0.000  -0.000
  198        0.000  -0.000   0.000  -0.000
  199        0.000  -0.000   0.000  -0.000
  200        0.000   0.000   0.000   0.000
  201       -0.000   0.000   0.000  -0.000
  202       -0.000   0.002   0.000   0.001
  203        0.000   0.000   0.000   0.000
  204       -0.000  -0.000   0.000  -0.000
  205       -0.000  -0.000   0.000  -0.000
  206       -0.000  -0.000   0.000  -0.000
  207        0.000  -0.000   0.000  -0.000
  208       -0.000   0.000   0.000   0.000
  209       -0.000  -0.000   0.000  -0.000
  210       -0.000  -0.000   0.000  -0.000
  211        0.000  -0.000   0.000  -0.000
  212       -0.000  -0.000   0.000  -0.000
  213       -0.000   0.002   0.000   0.001
  214       -0.000  -0.000   0.000  -0.000
  215       -0.000  -0.000   0.000  -0.000
  216        0.000  -0.000   0.000  -0.000
  217        0.000   0.000   0.000   0.000
  218       -0.000   0.000   0.000   0.000
  219       -0.000  -0.000   0.000  -0.000
  220        0.000  -0.000   0.000  -0.000
  221       -0.000  -0.000   0.000  -0.000
  222        0.000  -0.000   0.000  -0.000
  223       -0.000   0.002   0.000   0.001
  224       -0.000  -0.000   0.000  -0.000
  225       -0.000  -0.000   0.000  -0.000
  226       -0.000  -0.000   0.000  -0.000
  227        0.000  -0.000   0.000  -0.000
  228       -0.000  -0.000   0.000  -0.000
  229       -0.000  -0.000   0.000  -0.000
  230        0.000  -0.000   0.000  -0.000
  231        0.000   0.000   0.000   0.000
  232        0.000   0.000   0.000   0.000
  233        0.000   0.000   0.000   0.000
  234        0.000   0.000   0.000   0.000
  235        0.000   0.000   0.000   0.000
  236       -0.000  -0.000   0.000  -0.000
  237       -0.000  -0.000   0.000  -0.000
  238        0.000   0.000   0.000   0.000
  239        0.000   0.000   0.000   0.000
  240        0.000  -0.000   0.000  -0.000
  241        0.000   0.000   0.000   0.000
  242        0.000   0.000   0.000   0.000
  243        0.000  -0.000   0.000  -0.000
  244       -0.000  -0.000   0.000  -0.000
  245        0.000   0.000   0.000   0.000
  246        0.000   0.000   0.000   0.000
  247       -0.000  -0.000   0.000  -0.000
  248        0.000  -0.000   0.000  -0.000
  249       -0.000   0.000   0.000   0.000
  250       -0.000  -0.000   0.000  -0.000
  251       -0.000  -0.000   0.000  -0.000
  252        0.000   0.000   0.000   0.000
  253        0.000   0.000   0.000   0.000
  254       -0.000  -0.000   0.000  -0.000
  255       -0.000  -0.000   0.000  -0.000
  256       -0.000  -0.000   0.000  -0.000
  257       -0.000  -0.000   0.000  -0.000
--------------------------------------------------
tot          0.002  -0.013   0.950   0.939
 

 total amount of memory used by VASP MPI-rank0   291469. kBytes
=======================================================================

   base      :      30000. kBytes
   nonlr-proj:      49434. kBytes
   fftplans  :      27976. kBytes
   grid      :      34041. kBytes
   one-center:       1026. kBytes
   wavefun   :     148992. kBytes
 
  
  
 General timing and accounting informations for this job:
 ========================================================
  
                  Total CPU time used (sec):     4516.206
                            User time (sec):     4119.856
                          System time (sec):      396.349
                         Elapsed time (sec):     4550.362
  
                   Maximum memory used (kb):      632344.
                   Average memory used (kb):           0.
  
                          Minor page faults:       357865
                          Major page faults:            9
                 Voluntary context switches:        31519
