LTO                                     
           1
     7.929012   -0.000903    0.000064
    -0.000887    7.825326    0.000051
     0.000060    0.000050    7.547377
   Ti   O    F 
   8   8  16
Direct configuration=     1
   1.00000000  0.99999903  0.99999990
   0.99999992  0.99999965  0.49999944
   0.00000020  0.49999915  0.99999991
   0.00000009  0.50000010  0.49999987
   0.49999992  0.99999393  0.00000028
   0.49999944  0.00003880  0.50000019
   0.50000043  0.50000168  0.99999939
   0.49999999  0.49999207  0.49999950
   0.49999034  0.24783285  0.50000021
   0.50000592  0.75215979  0.49999997
   0.00000057  0.50000288  0.25106982
   0.99999977  0.49999699  0.74893024
   0.49999864  0.99997758  0.24589319
   0.50000023  0.99997820  0.75410677
   0.50000025  0.50002150  0.24602777
   0.50000250  0.50002306  0.75397305
   0.24504602  0.99992046  0.00000202
   0.23651694  0.99999751  0.50000267
   0.24756791  0.49997797  0.99999933
   0.24373001  0.49998782  0.49999946
   0.75495385  0.00008102  0.99999771
   0.76348248  0.00000266  0.49999719
   0.75243295  0.50001630  0.00000096
   0.75627015  0.50000599  0.50000114
   0.99991457  0.25186198  0.00000916
   0.00000742  0.24245096  0.49999879
   0.00008544  0.74813634  0.99999041
   0.99999263  0.75754846  0.50000098
   0.49997781  0.24896243  0.00000001
   0.50002337  0.75103388  0.00000048
   0.00000687  0.99999757  0.25622813
   0.99999336  0.00000141  0.74377205
