 vasp.5.4.4.18Apr17-6-g9f103f2a35 (build Apr 30 2017 20:10:35) complex          
  
 executed on             LinuxIFC date 2017.08.10  08:59:51
 running on   64 total cores
 distrk:  each k-point on   64 cores,    1 groups
 distr:  one band on NCORES_PER_BAND=   8 cores,    8 groups


--------------------------------------------------------------------------------------------------------


 INCAR:
 POTCAR:   PAW_PBE Ti_pv 07Sep2000                
 POTCAR:   PAW_PBE O 08Apr2002                    
 POTCAR:    PAW_PBE F 08Apr2002                   
 POTCAR:   PAW_PBE Ti_pv 07Sep2000                
   VRHFIN =Ti: d3 s1                                                            
   LEXCH  = PE                                                                  
   EATOM  =  1042.3781 eV,   76.6126 Ry                                         
                                                                                
   TITEL  = PAW_PBE Ti_pv 07Sep2000                                             
   LULTRA =        F    use ultrasoft PP ?                                      
   IUNSCR =        1    unscreen: 0-lin 1-nonlin 2-no                           
   RPACOR =    2.200    partial core radius                                     
   POMASS =   47.880; ZVAL   =   10.000    mass and valenz                      
   RCORE  =    2.500    outmost cutoff radius                                   
   RWIGS  =    2.500; RWIGS  =    1.323    wigner-seitz radius (au A)           
   ENMAX  =  222.338; ENMIN  =  166.753 eV                                      
   RCLOC  =    1.701    cutoff for local pot                                    
   LCOR   =        T    correct aug charges                                     
   LPAW   =        T    paw PP                                                  
   EAUG   =  482.848                                                            
   DEXC   =    -.008                                                            
   RMAX   =    3.092    core radius for proj-oper                               
   RAUG   =    1.300    factor for augmentation sphere                          
   RDEP   =    2.538    radius for radial grids                                 
   QCUT   =   -4.042; QGAM   =    8.085    optimization parameters              
                                                                                
   Description                                                                  
     l     E      TYP  RCUT    TYP  RCUT                                        
     1   .000     23  2.300                                                     
     1  -.100     23  2.300                                                     
     2   .000     23  2.500                                                     
     2   .000     23  2.500                                                     
     0   .000     23  2.500                                                     
     0  1.500     23  2.500                                                     
     3   .000      7   .000                                                     
  local pseudopotential read in
  partial core-charges read in
  atomic valenz-charges read in
  non local Contribution for L=           1  read in
    real space projection operators read in
  non local Contribution for L=           1  read in
    real space projection operators read in
  non local Contribution for L=           2  read in
    real space projection operators read in
  non local Contribution for L=           2  read in
    real space projection operators read in
  non local Contribution for L=           0  read in
    real space projection operators read in
  non local Contribution for L=           0  read in
    real space projection operators read in
    PAW grid and wavefunctions read in
 
   number of l-projection  operators is LMAX  =           6
   number of lm-projection operators is LMMAX =          18
 
 POTCAR:   PAW_PBE O 08Apr2002                    
   VRHFIN =O: s2p4                                                              
   LEXCH  = PE                                                                  
   EATOM  =   432.3788 eV,   31.7789 Ry                                         
                                                                                
   TITEL  = PAW_PBE O 08Apr2002                                                 
   LULTRA =        F    use ultrasoft PP ?                                      
   IUNSCR =        0    unscreen: 0-lin 1-nonlin 2-no                           
   RPACOR =     .000    partial core radius                                     
   POMASS =   16.000; ZVAL   =    6.000    mass and valenz                      
   RCORE  =    1.520    outmost cutoff radius                                   
   RWIGS  =    1.550; RWIGS  =     .820    wigner-seitz radius (au A)           
   ENMAX  =  400.000; ENMIN  =  300.000 eV                                      
   ICORE  =        2    local potential                                         
   LCOR   =        T    correct aug charges                                     
   LPAW   =        T    paw PP                                                  
   EAUG   =  605.392                                                            
   DEXC   =     .000                                                            
   RMAX   =    2.264    core radius for proj-oper                               
   RAUG   =    1.300    factor for augmentation sphere                          
   RDEP   =    1.550    radius for radial grids                                 
   QCUT   =   -5.520; QGAM   =   11.041    optimization parameters              
                                                                                
   Description                                                                  
     l     E      TYP  RCUT    TYP  RCUT                                        
     0   .000     23  1.200                                                     
     0  -.700     23  1.200                                                     
     1   .000     23  1.520                                                     
     1   .600     23  1.520                                                     
     2   .000      7  1.500                                                     
  local pseudopotential read in
  atomic valenz-charges read in
  non local Contribution for L=           0  read in
    real space projection operators read in
  non local Contribution for L=           0  read in
    real space projection operators read in
  non local Contribution for L=           1  read in
    real space projection operators read in
  non local Contribution for L=           1  read in
    real space projection operators read in
    PAW grid and wavefunctions read in
 
   number of l-projection  operators is LMAX  =           4
   number of lm-projection operators is LMMAX =           8
 
 POTCAR:    PAW_PBE F 08Apr2002                   
   VRHFIN =F: s2p5                                                              
   LEXCH  = PE                                                                  
   EATOM  =   659.6475 eV,   48.4827 Ry                                         
                                                                                
   TITEL  = PAW_PBE F 08Apr2002                                                 
   LULTRA =        F    use ultrasoft PP ?                                      
   IUNSCR =        1    unscreen: 0-lin 1-nonlin 2-no                           
   RPACOR =    1.200    partial core radius                                     
   POMASS =   18.998; ZVAL   =    7.000    mass and valenz                      
   RCORE  =    1.520    outmost cutoff radius                                   
   RWIGS  =    1.500; RWIGS  =    0.794    wigner-seitz radius (au A)           
   ENMAX  =  400.000; ENMIN  =  300.000 eV                                      
   ICORE  =        2    local potential                                         
   LCOR   =        T    correct aug charges                                     
   LPAW   =        T    paw PP                                                  
   EAUG   =  613.614                                                            
   RMAX   =    1.555    core radius for proj-oper                               
   RAUG   =    1.300    factor for augmentation sphere                          
   RDEP   =    1.539    radius for radial grids                                 
   RDEPT  =    1.299    core radius for aug-charge                              
                                                                                
   Atomic configuration                                                         
    4 entries                                                                   
     n  l   j            E        occ.                                          
     1  0  0.50      -663.3661   2.0000                                         
     2  0  0.50       -29.8995   2.0000                                         
     2  1  0.50       -11.1114   5.0000                                         
     3  2  1.50       -10.8847   0.0000                                         
   Description                                                                  
     l       E           TYP  RCUT    TYP  RCUT                                 
     0    -29.8995018     23  1.200                                             
     0     -9.5240782     23  1.200                                             
     1    -11.1113914     23  1.520                                             
     1      1.3605826     23  1.520                                             
     2    -10.8846608      7  1.500                                             
  local pseudopotential read in
  partial core-charges read in
  partial kinetic energy density read in
  atomic valenz-charges read in
  non local Contribution for L=           0  read in
    real space projection operators read in
  non local Contribution for L=           0  read in
    real space projection operators read in
  non local Contribution for L=           1  read in
    real space projection operators read in
  non local Contribution for L=           1  read in
    real space projection operators read in
    PAW grid and wavefunctions read in
 
   number of l-projection  operators is LMAX  =           4
   number of lm-projection operators is LMMAX =           8
 
 Optimization of the real space projectors (new method)

 maximal supplied QI-value         = 15.12
 optimisation between [QCUT,QGAM] = [ 13.45, 27.06] = [ 50.69,205.06] Ry 
 Optimized for a Real-space Cutoff    1.49 Angstroem

   l    n(q)    QCUT    max X(q) W(low)/X(q) W(high)/X(q)  e(spline) 
   1     12    13.455     4.841    0.13E-05    0.83E-06    0.56E-07
   1     12    13.455     5.701    0.32E-04    0.25E-04    0.17E-06
   2     11    13.455     4.569    0.64E-05    0.34E-05    0.50E-07
   2     11    13.455    32.276    0.49E-04    0.38E-04    0.46E-06
   0     12    13.455    30.046    0.17E-04    0.41E-05    0.51E-07
   0     12    13.455    45.433    0.12E-04    0.27E-04    0.38E-06
 Optimization of the real space projectors (new method)

 maximal supplied QI-value         = 24.76
 optimisation between [QCUT,QGAM] = [ 13.37, 26.98] = [ 50.04,203.89] Ry 
 Optimized for a Real-space Cutoff    1.17 Angstroem

   l    n(q)    QCUT    max X(q) W(low)/X(q) W(high)/X(q)  e(spline) 
   0      9    13.368     4.192    0.20E-04    0.58E-05    0.56E-07
   0      9    13.368     8.473    0.60E-04    0.52E-04    0.21E-06
   1      9    13.368     2.474    0.22E-04    0.17E-04    0.28E-07
   1      9    13.368     3.912    0.94E-04    0.97E-04    0.20E-06
 Optimization of the real space projectors (new method)

 maximal supplied QI-value         = 24.76
 optimisation between [QCUT,QGAM] = [ 13.37, 26.98] = [ 50.04,203.89] Ry 
 Optimized for a Real-space Cutoff    1.17 Angstroem

   l    n(q)    QCUT    max X(q) W(low)/X(q) W(high)/X(q)  e(spline) 
   0      9    13.368    14.049    0.39E-04    0.34E-04    0.16E-06
   0      9    13.368     8.945    0.54E-04    0.47E-04    0.20E-06
   1      9    13.368     7.086    0.99E-04    0.10E-03    0.23E-06
   1      9    13.368     6.747    0.86E-04    0.89E-04    0.21E-06

 ----------------------------------------------------------------------------- 
|                                                                             |
|  ADVICE TO THIS USER RUNNING 'VASP/VAMP'   (HEAR YOUR MASTER'S VOICE ...):  |
|                                                                             |
|      You enforced a specific xc-type in the INCAR file,                     |
|      a different type was found on the POTCAR file                          |
|          I HOPE YOU KNOW, WHAT YOU ARE  DOING                               |
|                                                                             |
 ----------------------------------------------------------------------------- 

 PAW_PBE Ti_pv 07Sep2000                :
 energy of atom  1       EATOM=-1042.3781
 kinetic energy error for atom=    0.0006 (will be added to EATOM!!)
 PAW_PBE O 08Apr2002                    :
 energy of atom  2       EATOM= -432.3788
 kinetic energy error for atom=    0.0091 (will be added to EATOM!!)
  PAW_PBE F 08Apr2002                   :
 energy of atom  3       EATOM= -659.6475
 kinetic energy error for atom=    0.0140 (will be added to EATOM!!)
 
 
 POSCAR: TiOF2 2x2x2 config 0298                 
  positions in direct lattice
  velocities in cartesian coordinates
 exchange correlation table for  LEXCH =       14
   RHO(1)=    0.500       N(1)  =     2000
   RHO(2)=  100.500       N(2)  =     4000

 VTST: version 3.1, (03/28/14)

 CHAIN: initializing optimizer
 
 OPT: Using VASP QUASI-newton optimizer
 CHAIN: Read ICHAIN            0
 
 POSCAR: TiOF2 2x2x2 config 0298                 
  positions in direct lattice
  velocities in cartesian coordinates
 


--------------------------------------------------------------------------------------------------------


 ion  position               nearest neighbor table
   1  0.000  0.988  0.987-  13 1.82  10 1.83  17 1.97  21 1.97  25 2.01  29 2.02
   2  1.000  0.012  0.513-  13 1.82   9 1.83  22 1.97  18 1.97  26 2.01  29 2.02
   3  1.000  0.512  0.013-  14 1.82  10 1.83  23 1.97  19 1.97  25 2.01  30 2.02
   4  0.000  0.488  0.487-  14 1.82   9 1.83  20 1.97  24 1.97  26 2.01  30 2.02
   5  0.500  0.988  0.013-  15 1.82  12 1.83  17 1.97  21 1.97  27 2.01  31 2.02
   6  0.500  0.012  0.487-  15 1.82  11 1.83  22 1.97  18 1.97  28 2.01  31 2.02
   7  0.500  0.512  0.987-  16 1.82  12 1.83  23 1.97  19 1.97  27 2.01  32 2.02
   8  0.500  0.488  0.513-  16 1.82  11 1.83  24 1.97  20 1.97  28 2.01  32 2.02
   9  1.000  0.250  0.500-   4 1.83   2 1.83
  10  0.000  0.750  1.000-   1 1.83   3 1.83
  11  0.500  0.250  0.500-   8 1.83   6 1.83
  12  0.500  0.750  0.000-   5 1.83   7 1.83
  13  1.000  1.000  0.750-   1 1.82   2 1.82
  14  1.000  0.500  0.250-   4 1.82   3 1.82
  15  0.500  1.000  0.250-   5 1.82   6 1.82
  16  0.500  0.500  0.750-   8 1.82   7 1.82
  17  0.250  0.007  0.000-   1 1.97   5 1.97
  18  0.250  0.993  0.500-   2 1.97   6 1.97
  19  0.250  0.493  1.000-   3 1.97   7 1.97
  20  0.250  0.507  0.500-   4 1.97   8 1.97
  21  0.750  0.007  0.000-   1 1.97   5 1.97
  22  0.750  0.993  0.500-   2 1.97   6 1.97
  23  0.750  0.493  1.000-   3 1.97   7 1.97
  24  0.750  0.507  0.500-   4 1.97   8 1.97
  25  1.000  0.250  1.000-   3 2.01   1 2.01
  26  1.000  0.750  0.500-   2 2.01   4 2.01
  27  0.500  0.250  0.000-   7 2.01   5 2.01
  28  0.500  0.750  0.500-   6 2.01   8 2.01
  29  0.000  1.000  0.250-   2 2.02   1 2.02
  30  1.000  0.500  0.750-   3 2.02   4 2.02
  31  0.500  1.000  0.750-   6 2.02   5 2.02
  32  0.500  0.500  0.250-   7 2.02   8 2.02
 

IMPORTANT INFORMATION: All symmetrisations will be switched off!
NOSYMM: (Re-)initialisation of all symmetry stuff for point group C_1.

 
 
 KPOINTS: Title                                   

Automatic generation of k-mesh.
Space group operators:
 irot       det(A)        alpha          n_x          n_y          n_z        tau_x        tau_y        tau_z
    1     1.000000     0.000000     1.000000     0.000000     0.000000     0.000000     0.000000     0.000000
 
 Subroutine IBZKPT returns following result:
 ===========================================
 
 Found     32 irreducible k-points:
 
 Following reciprocal coordinates:
            Coordinates               Weight
  0.125000  0.125000  0.125000      2.000000
  0.375000  0.125000  0.125000      2.000000
 -0.375000  0.125000  0.125000      2.000000
 -0.125000  0.125000  0.125000      2.000000
  0.125000  0.375000  0.125000      2.000000
  0.375000  0.375000  0.125000      2.000000
 -0.375000  0.375000  0.125000      2.000000
 -0.125000  0.375000  0.125000      2.000000
  0.125000 -0.375000  0.125000      2.000000
  0.375000 -0.375000  0.125000      2.000000
 -0.375000 -0.375000  0.125000      2.000000
 -0.125000 -0.375000  0.125000      2.000000
  0.125000 -0.125000  0.125000      2.000000
  0.375000 -0.125000  0.125000      2.000000
 -0.375000 -0.125000  0.125000      2.000000
 -0.125000 -0.125000  0.125000      2.000000
  0.125000  0.125000  0.375000      2.000000
  0.375000  0.125000  0.375000      2.000000
 -0.375000  0.125000  0.375000      2.000000
 -0.125000  0.125000  0.375000      2.000000
  0.125000  0.375000  0.375000      2.000000
  0.375000  0.375000  0.375000      2.000000
 -0.375000  0.375000  0.375000      2.000000
 -0.125000  0.375000  0.375000      2.000000
  0.125000 -0.375000  0.375000      2.000000
  0.375000 -0.375000  0.375000      2.000000
 -0.375000 -0.375000  0.375000      2.000000
 -0.125000 -0.375000  0.375000      2.000000
  0.125000 -0.125000  0.375000      2.000000
  0.375000 -0.125000  0.375000      2.000000
 -0.375000 -0.125000  0.375000      2.000000
 -0.125000 -0.125000  0.375000      2.000000
 
 Following cartesian coordinates:
            Coordinates               Weight
  0.015909  0.016315  0.016297      2.000000
  0.047727  0.016315  0.016297      2.000000
 -0.047727  0.016315  0.016297      2.000000
 -0.015909  0.016315  0.016297      2.000000
  0.015909  0.048946  0.016297      2.000000
  0.047727  0.048946  0.016297      2.000000
 -0.047727  0.048946  0.016297      2.000000
 -0.015909  0.048946  0.016297      2.000000
  0.015909 -0.048946  0.016297      2.000000
  0.047727 -0.048946  0.016297      2.000000
 -0.047727 -0.048946  0.016297      2.000000
 -0.015909 -0.048946  0.016297      2.000000
  0.015909 -0.016315  0.016297      2.000000
  0.047727 -0.016315  0.016297      2.000000
 -0.047727 -0.016315  0.016297      2.000000
 -0.015909 -0.016315  0.016297      2.000000
  0.015909  0.016315  0.048890      2.000000
  0.047727  0.016315  0.048890      2.000000
 -0.047727  0.016315  0.048890      2.000000
 -0.015909  0.016315  0.048890      2.000000
  0.015909  0.048946  0.048890      2.000000
  0.047727  0.048946  0.048890      2.000000
 -0.047727  0.048946  0.048890      2.000000
 -0.015909  0.048946  0.048890      2.000000
  0.015909 -0.048946  0.048890      2.000000
  0.047727 -0.048946  0.048890      2.000000
 -0.047727 -0.048946  0.048890      2.000000
 -0.015909 -0.048946  0.048890      2.000000
  0.015909 -0.016315  0.048890      2.000000
  0.047727 -0.016315  0.048890      2.000000
 -0.047727 -0.016315  0.048890      2.000000
 -0.015909 -0.016315  0.048890      2.000000
 


--------------------------------------------------------------------------------------------------------




 Dimension of arrays:
   k-points           NKPTS =     32   k-points in BZ     NKDIM =     32   number of bands    NBANDS=    160
   number of dos      NEDOS =   3001   number of ions     NIONS =     32
   non local maximal  LDIM  =      6   non local SUM 2l+1 LMDIM =     18
   total plane-waves  NPLWV = 343000
   max r-space proj   IRMAX =  10299   max aug-charges    IRDMAX= 230898
   dimension x,y,z NGX =    70 NGY =   70 NGZ =   70
   dimension x,y,z NGXF=   140 NGYF=  140 NGZF=  140
   support grid    NGXF=   280 NGYF=  280 NGZF=  280
   ions per type =               8   8  16
   NGX,Y,Z   is equivalent  to a cutoff of  14.81, 15.19, 15.17 a.u.
   NGXF,Y,Z  is equivalent  to a cutoff of  29.62, 30.38, 30.34 a.u.

 SYSTEM =  LTO                                     
 POSCAR =  TiOF2 2x2x2 config 0298                 

 Startparameter for this run:
   NWRITE =      2    write-flag & timer
   PREC   = accura    normal or accurate (medium, high low for compatibility)
   ISTART =      1    job   : 0-new  1-cont  2-samecut
   ICHARG =      0    charge: 1-file 2-atom 10-const
   ISPIN  =      2    spin polarized calculation?
   LNONCOLLINEAR =      F non collinear calculations
   LSORBIT =      F    spin-orbit coupling
   INIWAV =      1    electr: 0-lowe 1-rand  2-diag
   LASPH  =      T    aspherical Exc in radial PAW
   METAGGA=      F    non-selfconsistent MetaGGA calc.

 Electronic Relaxation 1
   ENCUT  =  700.0 eV  51.45 Ry    7.17 a.u.  16.95 16.53 16.55*2*pi/ulx,y,z
   ENINI  =  700.0     initial cutoff
   ENAUG  =  613.6 eV  augmentation charge cutoff
   NELM   =     60;   NELMIN=  2; NELMDL=  0     # of ELM steps 
   EDIFF  = 0.1E-05   stopping-criterion for ELM
   LREAL  =      T    real-space projection
   NLSPLINE    = F    spline interpolate recip. space projectors
   LCOMPAT=      F    compatible to vasp.4.4
   GGA_COMPAT  = T    GGA compatible to vasp.4.4-vasp.4.6
   LMAXPAW     = -100 max onsite density
   LMAXMIX     =    4 max onsite mixed and CHGCAR
   VOSKOWN=      0    Vosko Wilk Nusair interpolation
   ROPT   =   -0.00010  -0.00010  -0.00010
 Ionic relaxation
   EDIFFG = -.1E-01   stopping-criterion for IOM
   NSW    =    100    number of steps for IOM
   NBLOCK =      1;   KBLOCK =    100    inner block; outer block 
   IBRION =      1    ionic relax: 0-MD 1-quasi-New 2-CG
   NFREE  =      0    steps in history (QN), initial steepest desc. (CG)
   ISIF   =      3    stress and relaxation
   IWAVPR =     11    prediction:  0-non 1-charg 2-wave 3-comb
   ISYM   =      0    0-nonsym 1-usesym 2-fastsym
   LCORR  =      T    Harris-Foulkes like correction to forces

   POTIM  = 0.5000    time-step for ionic-motion
   TEIN   =    0.0    initial temperature
   TEBEG  =    0.0;   TEEND  =   0.0 temperature during run
   SMASS  =  -3.00    Nose mass-parameter (am)
   estimated Nose-frequenzy (Omega)   =  0.10E-29 period in steps =****** mass=  -0.141E-26a.u.
   SCALEE = 1.0000    scale energy and forces
   NPACO  =    256;   APACO  = 16.0  distance and # of slots for P.C.
   PSTRESS=    0.0 pullay stress

  Mass of Ions in am
   POMASS =  47.88 16.00 19.00
  Ionic Valenz
   ZVAL   =  10.00  6.00  7.00
  Atomic Wigner-Seitz radii
   RWIGS  =  -1.00 -1.00 -1.00
  virtual crystal weights 
   VCA    =   1.00  1.00  1.00
   NELECT =     240.0000    total number of electrons
   NUPDOWN=      -1.0000    fix difference up-down

 DOS related values:
   EMIN   =  10.00;   EMAX   =-10.00  energy-range for DOS
   EFERMI =   0.00
   ISMEAR =     0;   SIGMA  =   0.01  broadening in eV -4-tet -1-fermi 0-gaus

 Electronic relaxation 2 (details)
   IALGO  =     38    algorithm
   LDIAG  =      T    sub-space diagonalisation (order eigenvalues)
   LSUBROT=      F    optimize rotation matrix (better conditioning)
   TURBO    =      0    0=normal 1=particle mesh
   IRESTART =      0    0=no restart 2=restart with 2 vectors
   NREBOOT  =      0    no. of reboots
   NMIN     =      0    reboot dimension
   EREF     =   0.00    reference energy to select bands
   IMIX   =      4    mixing-type and parameters
     AMIX     =   0.40;   BMIX     =  1.00
     AMIX_MAG =   1.60;   BMIX_MAG =  1.00
     AMIN     =   0.10
     WC   =   100.;   INIMIX=   1;  MIXPRE=   1;  MAXMIX= -45

 Intra band minimization:
   WEIMIN = 0.0010     energy-eigenvalue tresh-hold
   EBREAK =  0.16E-08  absolut break condition
   DEPER  =   0.30     relativ break condition  

   TIME   =   0.40     timestep for ELM

  volume/ion in A,a.u.               =      14.43        97.37
  Fermi-wavevector in a.u.,A,eV,Ry     =   1.316278  2.487405 23.573299  1.732589
  Thomas-Fermi vector in A             =   2.446402
 
 Write flags
   LWAVE        =      T    write WAVECAR
   LDOWNSAMPLE  =      F    k-point downsampling of WAVECAR
   LCHARG       =      T    write CHGCAR
   LVTOT        =      F    write LOCPOT, total local potential
   LVHAR        =      F    write LOCPOT, Hartree potential only
   LELF         =      F    write electronic localiz. function (ELF)
   LORBIT       =     11    0 simple, 1 ext, 2 COOP (PROOUT), +10 PAW based schemes


 Dipole corrections
   LMONO  =      F    monopole corrections only (constant potential shift)
   LDIPOL =      F    correct potential (dipole corrections)
   IDIPOL =      0    1-x, 2-y, 3-z, 4-all directions 
   EPSILON=  1.0000000 bulk dielectric constant

 LDA+U is selected, type is set to LDAUTYPE =  2
   angular momentum for each species LDAUL =     2   -1   -1
   U (eV)           for each species LDAUU =   4.2  0.0  0.0
   J (eV)           for each species LDAUJ =   0.0  0.0  0.0
 Exchange correlation treatment:
   GGA     =    PS    GGA type
   LEXCH   =    14    internal setting for exchange type
   VOSKOWN=      0    Vosko Wilk Nusair interpolation
   LHFCALC =     F    Hartree Fock is set to
   LHFONE  =     F    Hartree Fock one center treatment
   AEXX    =    0.0000 exact exchange contribution

 Linear response parameters
   LEPSILON=     F    determine dielectric tensor
   LRPA    =     F    only Hartree local field effects (RPA)
   LNABLA  =     F    use nabla operator in PAW spheres
   LVEL    =     F    velocity operator in full k-point grid
   LINTERFAST=   F  fast interpolation
   KINTER  =     0    interpolate to denser k-point grid
   CSHIFT  =0.1000    complex shift for real part using Kramers Kronig
   OMEGAMAX=  -1.0    maximum frequency
   DEG_THRESHOLD= 0.2000000E-02 threshold for treating states as degnerate
   RTIME   =   -0.100 relaxation time in fs
  (WPLASMAI=    0.000 imaginary part of plasma frequency in eV, 0.658/RTIME)
   DFIELD  = 0.0000000 0.0000000 0.0000000 field for delta impulse in time
 
 Orbital magnetization related:
   ORBITALMAG=     F  switch on orbital magnetization
   LCHIMAG   =     F  perturbation theory with respect to B field
   DQ        =  0.001000  dq finite difference perturbation B field
   LLRAUG    =     F  two centre corrections for induced B field



--------------------------------------------------------------------------------------------------------


 quasi-Newton-method for relaxation of ions
 charge density and potential will be updated during run
 spin polarized calculation
 Variant of blocked Davidson
 Davidson routine will perform the subspace rotation
 perform sub-space diagonalisation
    after iterative eigenvector-optimisation
 modified Broyden-mixing scheme, WC =      100.0
 initial mixing is a Kerker type mixing with AMIX =  0.4000 and BMIX =      1.0000
 Hartree-type preconditioning will be used
 using additional bands           40
 real space projection scheme for non local part
 use partial core corrections
 calculate Harris-corrections to forces 
   (improved forces if not selfconsistent)
 use gradient corrections 
 use of overlap-Matrix (Vanderbilt PP)
 Gauss-broadening in eV      SIGMA  =   0.01


--------------------------------------------------------------------------------------------------------


  energy-cutoff  :      700.00
  volume of cell :      461.73
      direct lattice vectors                 reciprocal lattice vectors
     7.857115260 -0.000000004  0.000000018     0.127273174 -0.000000000 -0.000000000
     0.000000007  7.661575423 -0.000000013     0.000000000  0.130521459  0.000000000
     0.000000019 -0.000000014  7.670282152    -0.000000000  0.000000000  0.130373301

  length of vectors
     7.857115260  7.661575423  7.670282152     0.127273174  0.130521459  0.130373301


 
 old parameters found on file WAVECAR:
  energy-cutoff  :      700.00
  volume of cell :      438.28
      direct lattice vectors                 reciprocal lattice vectors
     7.596000000  0.000000000  0.000000000     0.131648236  0.000000000  0.000000000
     0.000000000  7.596000000  0.000000000     0.000000000  0.131648236  0.000000000
     0.000000000  0.000000000  7.596000000     0.000000000  0.000000000  0.131648236

  length of vectors

 
 k-points in units of 2pi/SCALE and weight: Title                                   
   0.01590915  0.01631518  0.01629666       0.031
   0.04772744  0.01631518  0.01629666       0.031
  -0.04772744  0.01631518  0.01629666       0.031
  -0.01590915  0.01631518  0.01629666       0.031
   0.01590915  0.04894555  0.01629666       0.031
   0.04772744  0.04894555  0.01629666       0.031
  -0.04772744  0.04894555  0.01629666       0.031
  -0.01590915  0.04894555  0.01629666       0.031
   0.01590915 -0.04894555  0.01629666       0.031
   0.04772744 -0.04894555  0.01629666       0.031
  -0.04772744 -0.04894555  0.01629666       0.031
  -0.01590915 -0.04894555  0.01629666       0.031
   0.01590915 -0.01631518  0.01629666       0.031
   0.04772744 -0.01631518  0.01629666       0.031
  -0.04772744 -0.01631518  0.01629666       0.031
  -0.01590915 -0.01631518  0.01629666       0.031
   0.01590915  0.01631518  0.04888999       0.031
   0.04772744  0.01631518  0.04888999       0.031
  -0.04772744  0.01631518  0.04888999       0.031
  -0.01590915  0.01631518  0.04888999       0.031
   0.01590915  0.04894555  0.04888999       0.031
   0.04772744  0.04894555  0.04888999       0.031
  -0.04772744  0.04894555  0.04888999       0.031
  -0.01590915  0.04894555  0.04888999       0.031
   0.01590915 -0.04894555  0.04888999       0.031
   0.04772744 -0.04894555  0.04888999       0.031
  -0.04772744 -0.04894555  0.04888999       0.031
  -0.01590915 -0.04894555  0.04888999       0.031
   0.01590915 -0.01631518  0.04888999       0.031
   0.04772744 -0.01631518  0.04888999       0.031
  -0.04772744 -0.01631518  0.04888999       0.031
  -0.01590915 -0.01631518  0.04888999       0.031
 
 k-points in reciprocal lattice and weights: Title                                   
   0.12500000  0.12500000  0.12500000       0.031
   0.37500000  0.12500000  0.12500000       0.031
  -0.37500000  0.12500000  0.12500000       0.031
  -0.12500000  0.12500000  0.12500000       0.031
   0.12500000  0.37500000  0.12500000       0.031
   0.37500000  0.37500000  0.12500000       0.031
  -0.37500000  0.37500000  0.12500000       0.031
  -0.12500000  0.37500000  0.12500000       0.031
   0.12500000 -0.37500000  0.12500000       0.031
   0.37500000 -0.37500000  0.12500000       0.031
  -0.37500000 -0.37500000  0.12500000       0.031
  -0.12500000 -0.37500000  0.12500000       0.031
   0.12500000 -0.12500000  0.12500000       0.031
   0.37500000 -0.12500000  0.12500000       0.031
  -0.37500000 -0.12500000  0.12500000       0.031
  -0.12500000 -0.12500000  0.12500000       0.031
   0.12500000  0.12500000  0.37500000       0.031
   0.37500000  0.12500000  0.37500000       0.031
  -0.37500000  0.12500000  0.37500000       0.031
  -0.12500000  0.12500000  0.37500000       0.031
   0.12500000  0.37500000  0.37500000       0.031
   0.37500000  0.37500000  0.37500000       0.031
  -0.37500000  0.37500000  0.37500000       0.031
  -0.12500000  0.37500000  0.37500000       0.031
   0.12500000 -0.37500000  0.37500000       0.031
   0.37500000 -0.37500000  0.37500000       0.031
  -0.37500000 -0.37500000  0.37500000       0.031
  -0.12500000 -0.37500000  0.37500000       0.031
   0.12500000 -0.12500000  0.37500000       0.031
   0.37500000 -0.12500000  0.37500000       0.031
  -0.37500000 -0.12500000  0.37500000       0.031
  -0.12500000 -0.12500000  0.37500000       0.031
 
 position of ions in fractional coordinates (direct lattice) 
   0.00000000  0.98787578  0.98716322
   1.00000000  0.01212416  0.51283673
   1.00000000  0.51212414  0.01283674
   0.00000000  0.48787581  0.48716321
   0.50000000  0.98787571  0.01283682
   0.50000000  0.01212422  0.48716324
   0.50000000  0.51212422  0.98716325
   0.50000000  0.48787574  0.51283682
   1.00000000  0.25000004  0.49999999
   0.00000000  0.75000012  0.99999999
   0.50000000  0.25000006  0.50000001
   0.50000000  0.75000011  0.00000001
   1.00000000  0.99999999  0.75000009
   1.00000000  0.49999999  0.25000009
   0.50000000  0.99999999  0.24999991
   0.50000000  0.49999999  0.74999991
   0.24999999  0.00736321  0.00000002
   0.24999999  0.99263679  0.49999998
   0.24999999  0.49263679  0.99999998
   0.24999999  0.50736321  0.50000002
   0.75000001  0.00736320  0.00000002
   0.75000001  0.99263679  0.49999998
   0.75000001  0.49263679  0.99999998
   0.75000001  0.50736321  0.50000002
   1.00000000  0.24999997  0.99999999
   1.00000000  0.74999999  0.50000000
   0.50000000  0.24999997  0.00000000
   0.50000000  0.74999999  0.50000000
   0.00000000  1.00000000  0.24999998
   1.00000000  0.50000000  0.74999998
   0.50000000  1.00000000  0.75000002
   0.50000000  0.50000000  0.25000002
 
 position of ions in cartesian coordinates  (Angst):
   0.00000003  7.56868481  7.57182039
   7.85711527  0.09289015  3.93360241
   7.85711526  3.92367771  0.09846141
   0.00000001  3.73789733  3.73667923
   3.92855763  7.56868428  0.09846200
   3.92855764  0.09289065  3.73667954
   3.92855765  3.92367829  7.57182063
   3.92855764  3.73789674  3.93360310
   7.85711527  1.91539415  3.83514105
   0.00000005  5.74618247  7.67028205
   3.92855764  1.91539427  3.83514114
   3.92855761  5.74618244  0.00000009
   7.85711526  7.66157534  5.75271231
   7.85711526  3.83078765  1.91757121
   3.92855765  7.66157535  1.91756982
   3.92855766  3.83078765  5.75271090
   1.96427874  0.05641379  0.00000013
   1.96427875  7.60516166  3.83514095
   1.96427877  3.77437388  7.67028202
   1.96427878  3.88720152  3.83514120
   5.89283652  0.05641374  0.00000014
   5.89283654  7.60516165  3.83514095
   5.89283653  3.77437392  7.67028202
   5.89283651  3.88720150  3.83514122
   7.85711525  1.91539361  7.67028213
   7.85711526  5.74618150  3.83514106
   3.92855767  1.91539364  0.00000003
   3.92855766  5.74618148  3.83514110
   0.00000002  7.66157539  1.91757038
   7.85711527  3.83078768  5.75271149
   3.92855765  7.66157539  5.75271177
   3.92855764  3.83078769  1.91757069
 


--------------------------------------------------------------------------------------------------------


 k-point  1 :   0.1250 0.1250 0.1250  plane waves:   19430
 k-point  2 :   0.3750 0.1250 0.1250  plane waves:   19442
 k-point  3 :  -0.3750 0.1250 0.1250  plane waves:   19442
 k-point  4 :  -0.1250 0.1250 0.1250  plane waves:   19430
 k-point  5 :   0.1250 0.3750 0.1250  plane waves:   19410
 k-point  6 :   0.3750 0.3750 0.1250  plane waves:   19425
 k-point  7 :  -0.3750 0.3750 0.1250  plane waves:   19425
 k-point  8 :  -0.1250 0.3750 0.1250  plane waves:   19410
 k-point  9 :   0.1250-0.3750 0.1250  plane waves:   19410
 k-point 10 :   0.3750-0.3750 0.1250  plane waves:   19425
 k-point 11 :  -0.3750-0.3750 0.1250  plane waves:   19425
 k-point 12 :  -0.1250-0.3750 0.1250  plane waves:   19410
 k-point 13 :   0.1250-0.1250 0.1250  plane waves:   19430
 k-point 14 :   0.3750-0.1250 0.1250  plane waves:   19442
 k-point 15 :  -0.3750-0.1250 0.1250  plane waves:   19442
 k-point 16 :  -0.1250-0.1250 0.1250  plane waves:   19430
 k-point 17 :   0.1250 0.1250 0.3750  plane waves:   19412
 k-point 18 :   0.3750 0.1250 0.3750  plane waves:   19422
 k-point 19 :  -0.3750 0.1250 0.3750  plane waves:   19422
 k-point 20 :  -0.1250 0.1250 0.3750  plane waves:   19412
 k-point 21 :   0.1250 0.3750 0.3750  plane waves:   19410
 k-point 22 :   0.3750 0.3750 0.3750  plane waves:   19408
 k-point 23 :  -0.3750 0.3750 0.3750  plane waves:   19408
 k-point 24 :  -0.1250 0.3750 0.3750  plane waves:   19410
 k-point 25 :   0.1250-0.3750 0.3750  plane waves:   19410
 k-point 26 :   0.3750-0.3750 0.3750  plane waves:   19408
 k-point 27 :  -0.3750-0.3750 0.3750  plane waves:   19408
 k-point 28 :  -0.1250-0.3750 0.3750  plane waves:   19410
 k-point 29 :   0.1250-0.1250 0.3750  plane waves:   19412
 k-point 30 :   0.3750-0.1250 0.3750  plane waves:   19422
 k-point 31 :  -0.3750-0.1250 0.3750  plane waves:   19422
 k-point 32 :  -0.1250-0.1250 0.3750  plane waves:   19412

 maximum and minimum number of plane-waves per node :      2456     2395

 maximum number of plane-waves:     19442
 maximum index in each direction: 
   IXMAX=   17   IYMAX=   16   IZMAX=   16
   IXMIN=  -17   IYMIN=  -16   IZMIN=  -16


 real space projection operators:
  total allocation   :      18535.25 KBytes
  max/ min on nodes  :       2473.38       1919.31


 parallel 3D FFT for wavefunctions:
    minimum data exchange during FFTs selected (reduces bandwidth)
 parallel 3D FFT for charge:
    minimum data exchange during FFTs selected (reduces bandwidth)


 total amount of memory used by VASP MPI-rank0   106852. kBytes
=======================================================================

   base      :      30000. kBytes
   nonlr-proj:       8568. kBytes
   fftplans  :       8423. kBytes
   grid      :       8783. kBytes
   one-center:        124. kBytes
   wavefun   :      50954. kBytes
 
     INWAV:  cpu time   29.7575: real time   41.9603
 Broyden mixing: mesh for mixing (old mesh)
   NGX = 33   NGY = 33   NGZ = 33
  (NGX  =140   NGY  =140   NGZ  =140)
  gives a total of  35937 points

 charge density for first step will be calculated from the start-wavefunctions


--------------------------------------------------------------------------------------------------------


 Maximum index for non-local projection operator         1375
 Maximum index for augmentation-charges         7167 (set IRDMAX)


--------------------------------------------------------------------------------------------------------


 initial charge from wavefunction
 First call to EWALD:  gamma=   0.229
 Maximum number of real-space cells 3x 3x 3
 Maximum number of reciprocal cells 3x 3x 3

    FEWALD:  cpu time    0.0040: real time    0.0038


--------------------------------------- Iteration      1(   1)  ---------------------------------------


    POTLOK:  cpu time    0.1420: real time    0.3315
    SETDIJ:  cpu time    0.8449: real time    0.8443
     EDDAV:  cpu time   28.8686: real time   28.9550
       DOS:  cpu time    0.0040: real time    0.0032
    CHARGE:  cpu time    1.1778: real time    1.1757
    MIXING:  cpu time    0.0020: real time    0.0018
    --------------------------------------------
      LOOP:  cpu time   31.0393: real time   31.3116

 eigenvalue-minimisations  : 20480
 total energy-change (2. order) :-0.2135760E+03  (-0.6810887E-01)
 number of electron     240.0000005 magnetization       0.0000000
 augmentation part       61.9601729 magnetization       0.0000000

 Broyden mixing:
  rms(total) = 0.71132E-02    rms(broyden)= 0.66630E-02
  rms(prec ) = 0.70537E-02
  weight for this iteration     100.00

 Free energy of the ion-electron system (eV)
  ---------------------------------------------------
  alpha Z        PSCENC =       758.37072293
  Ewald energy   TEWEN  =    -12807.59114447
  -Hartree energ DENC   =     -8232.25287604
  -exchange      EXHF   =         0.00000000
  -V(xc)+E(xc)   XCENC  =      1119.92917597
  PAW double counting   =     18025.65013799   -18149.25041998
  entropy T*S    EENTRO =        -0.00000000
  eigenvalues    EBANDS =     -3230.78482649
  atomic energy  EATOM  =     22302.35321627
  Solvation  Ediel_sol  =         0.00000000
  ---------------------------------------------------
  free energy    TOTEN  =      -213.57601381 eV

  energy without entropy =     -213.57601381  energy(sigma->0) =     -213.57601381


--------------------------------------------------------------------------------------------------------




--------------------------------------- Iteration      1(   2)  ---------------------------------------


    POTLOK:  cpu time    0.1750: real time    0.1895
    SETDIJ:  cpu time    0.8439: real time    0.8423
     EDDAV:  cpu time   28.5287: real time   28.6359
       DOS:  cpu time    0.0030: real time    0.0034
    CHARGE:  cpu time    1.1748: real time    1.1771
    MIXING:  cpu time    0.0020: real time    0.0020
    --------------------------------------------
      LOOP:  cpu time   30.7273: real time   30.8502

 eigenvalue-minimisations  : 20240
 total energy-change (2. order) :-0.8547280E-04  (-0.2736188E-05)
 number of electron     240.0000005 magnetization      -0.0000000
 augmentation part       61.9614994 magnetization       0.0000000

 Broyden mixing:
  rms(total) = 0.39642E-02    rms(broyden)= 0.39331E-02
  rms(prec ) = 0.41362E-02
  weight for this iteration     100.00

 eigenvalues of (default mixing * dielectric matrix)
  average eigenvalue GAMMA=   2.2293
  2.2293

 Free energy of the ion-electron system (eV)
  ---------------------------------------------------
  alpha Z        PSCENC =       758.37072293
  Ewald energy   TEWEN  =    -12807.59114447
  -Hartree energ DENC   =     -8232.16799939
  -exchange      EXHF   =         0.00000000
  -V(xc)+E(xc)   XCENC  =      1119.92485578
  PAW double counting   =     18026.31053423   -18149.89694898
  entropy T*S    EENTRO =        -0.00000000
  eigenvalues    EBANDS =     -3230.87933565
  atomic energy  EATOM  =     22302.35321627
  Solvation  Ediel_sol  =         0.00000000
  ---------------------------------------------------
  free energy    TOTEN  =      -213.57609928 eV

  energy without entropy =     -213.57609928  energy(sigma->0) =     -213.57609928


--------------------------------------------------------------------------------------------------------




--------------------------------------- Iteration      1(   3)  ---------------------------------------


    POTLOK:  cpu time    0.1370: real time    0.1567
    SETDIJ:  cpu time    0.8419: real time    0.8412
     EDDAV:  cpu time   27.6558: real time   27.7462
       DOS:  cpu time    0.0040: real time    0.0035
    CHARGE:  cpu time    1.2108: real time    1.2135
    MIXING:  cpu time    0.0020: real time    0.0020
    --------------------------------------------
      LOOP:  cpu time   29.8515: real time   29.9631

 eigenvalue-minimisations  : 19416
 total energy-change (2. order) :-0.9384281E-04  (-0.1803635E-05)
 number of electron     240.0000005 magnetization      -0.0000000
 augmentation part       61.9612597 magnetization       0.0000000

 Broyden mixing:
  rms(total) = 0.90208E-03    rms(broyden)= 0.89644E-03
  rms(prec ) = 0.11040E-02
  weight for this iteration     100.00

 eigenvalues of (default mixing * dielectric matrix)
  average eigenvalue GAMMA=   1.6323
  0.8333  2.4313

 Free energy of the ion-electron system (eV)
  ---------------------------------------------------
  alpha Z        PSCENC =       758.37072293
  Ewald energy   TEWEN  =    -12807.59114447
  -Hartree energ DENC   =     -8232.19598727
  -exchange      EXHF   =         0.00000000
  -V(xc)+E(xc)   XCENC  =      1119.92624017
  PAW double counting   =     18027.22694272   -18150.79824733
  entropy T*S    EENTRO =        -0.00000000
  eigenvalues    EBANDS =     -3230.86793614
  atomic energy  EATOM  =     22302.35321627
  Solvation  Ediel_sol  =         0.00000000
  ---------------------------------------------------
  free energy    TOTEN  =      -213.57619312 eV

  energy without entropy =     -213.57619312  energy(sigma->0) =     -213.57619312


--------------------------------------------------------------------------------------------------------




--------------------------------------- Iteration      1(   4)  ---------------------------------------


    POTLOK:  cpu time    0.1370: real time    0.1626
    SETDIJ:  cpu time    0.8389: real time    0.8417
     EDDAV:  cpu time   20.8508: real time   20.9165
       DOS:  cpu time    0.0040: real time    0.0035
    CHARGE:  cpu time    1.1758: real time    1.1830
    MIXING:  cpu time    0.0020: real time    0.0020
    --------------------------------------------
      LOOP:  cpu time   23.0085: real time   23.1092

 eigenvalue-minimisations  : 12496
 total energy-change (2. order) :-0.3635414E-05  (-0.1435838E-06)
 number of electron     240.0000005 magnetization      -0.0000000
 augmentation part       61.9619076 magnetization       0.0000000

 Broyden mixing:
  rms(total) = 0.25620E-03    rms(broyden)= 0.25498E-03
  rms(prec ) = 0.36644E-03
  weight for this iteration     100.00

 eigenvalues of (default mixing * dielectric matrix)
  average eigenvalue GAMMA=   1.4232
  2.4927  1.1385  0.6384

 Free energy of the ion-electron system (eV)
  ---------------------------------------------------
  alpha Z        PSCENC =       758.37072293
  Ewald energy   TEWEN  =    -12807.59114447
  -Hartree energ DENC   =     -8232.21394771
  -exchange      EXHF   =         0.00000000
  -V(xc)+E(xc)   XCENC  =      1119.92807422
  PAW double counting   =     18027.33049890   -18150.90131592
  entropy T*S    EENTRO =        -0.00000000
  eigenvalues    EBANDS =     -3230.85230099
  atomic energy  EATOM  =     22302.35321627
  Solvation  Ediel_sol  =         0.00000000
  ---------------------------------------------------
  free energy    TOTEN  =      -213.57619676 eV

  energy without entropy =     -213.57619676  energy(sigma->0) =     -213.57619676


--------------------------------------------------------------------------------------------------------




--------------------------------------- Iteration      1(   5)  ---------------------------------------


    POTLOK:  cpu time    0.1610: real time    0.2679
    SETDIJ:  cpu time    0.8429: real time    0.8411
     EDDAV:  cpu time   19.8660: real time   19.8572
       DOS:  cpu time    0.0030: real time    0.0035
    --------------------------------------------
      LOOP:  cpu time   20.8728: real time   20.9697

 eigenvalue-minimisations  : 11160
 total energy-change (2. order) :-0.1405715E-06  (-0.8423700E-07)
 number of electron     240.0000005 magnetization      -0.0000000
 augmentation part       61.9619076 magnetization       0.0000000

 Free energy of the ion-electron system (eV)
  ---------------------------------------------------
  alpha Z        PSCENC =       758.37072293
  Ewald energy   TEWEN  =    -12807.59114447
  -Hartree energ DENC   =     -8232.23048183
  -exchange      EXHF   =         0.00000000
  -V(xc)+E(xc)   XCENC  =      1119.92878715
  PAW double counting   =     18027.32035659   -18150.89053489
  entropy T*S    EENTRO =        -0.00000000
  eigenvalues    EBANDS =     -3230.83711864
  atomic energy  EATOM  =     22302.35321627
  Solvation  Ediel_sol  =         0.00000000
  ---------------------------------------------------
  free energy    TOTEN  =      -213.57619690 eV

  energy without entropy =     -213.57619690  energy(sigma->0) =     -213.57619690


--------------------------------------------------------------------------------------------------------




 average (electrostatic) potential at core
  the test charge radii are     1.0397  0.7215  0.7167
  (the norm of the test charge is              1.0000)
       1 -58.9032       2 -58.9032       3 -58.9032       4 -58.9032       5 -58.9032
       6 -58.9032       7 -58.9033       8 -58.9032       9 -74.1376      10 -74.1376
      11 -74.1376      12 -74.1376      13 -74.1391      14 -74.1391      15 -74.1391
      16 -74.1391      17 -79.3071      18 -79.3071      19 -79.3071      20 -79.3071
      21 -79.3071      22 -79.3071      23 -79.3071      24 -79.3071      25 -78.6818
      26 -78.6818      27 -78.6818      28 -78.6818      29 -78.6735      30 -78.6735
      31 -78.6735      32 -78.6735
 
 
 
 E-fermi :  -0.5540     XC(G=0):  -8.9751     alpha+bet : -7.6528


 spin component 1

 k-point     1 :       0.1250    0.1250    0.1250
  band No.  band energies     occupation 
      1     -34.9633      1.00000
      2     -34.9603      1.00000
      3     -34.9596      1.00000
      4     -34.9567      1.00000
      5     -34.8739      1.00000
      6     -34.8713      1.00000
      7     -34.8705      1.00000
      8     -34.8679      1.00000
      9     -34.8018      1.00000
     10     -34.8012      1.00000
     11     -34.7957      1.00000
     12     -34.7945      1.00000
     13     -34.7933      1.00000
     14     -34.7927      1.00000
     15     -34.7760      1.00000
     16     -34.7760      1.00000
     17     -34.7210      1.00000
     18     -34.7202      1.00000
     19     -34.7031      1.00000
     20     -34.6996      1.00000
     21     -34.6990      1.00000
     22     -34.6958      1.00000
     23     -34.6882      1.00000
     24     -34.6879      1.00000
     25     -23.2006      1.00000
     26     -23.1667      1.00000
     27     -23.1556      1.00000
     28     -23.1277      1.00000
     29     -22.7563      1.00000
     30     -22.7438      1.00000
     31     -22.7412      1.00000
     32     -22.7306      1.00000
     33     -22.4609      1.00000
     34     -22.4136      1.00000
     35     -22.3813      1.00000
     36     -22.3456      1.00000
     37     -22.3367      1.00000
     38     -22.3040      1.00000
     39     -22.2492      1.00000
     40     -22.2415      1.00000
     41     -16.7623      1.00000
     42     -16.7467      1.00000
     43     -16.6899      1.00000
     44     -16.6253      1.00000
     45     -16.6236      1.00000
     46     -16.5601      1.00000
     47     -16.4859      1.00000
     48     -16.4699      1.00000
     49      -6.7747      1.00000
     50      -6.7511      1.00000
     51      -6.7320      1.00000
     52      -6.7204      1.00000
     53      -6.0603      1.00000
     54      -5.9868      1.00000
     55      -5.9718      1.00000
     56      -5.9203      1.00000
     57      -5.9110      1.00000
     58      -5.8784      1.00000
     59      -5.8649      1.00000
     60      -5.8491      1.00000
     61      -5.5980      1.00000
     62      -5.4866      1.00000
     63      -5.4258      1.00000
     64      -5.3424      1.00000
     65      -5.2811      1.00000
     66      -5.2731      1.00000
     67      -5.2403      1.00000
     68      -5.2263      1.00000
     69      -4.9717      1.00000
     70      -4.9040      1.00000
     71      -4.4719      1.00000
     72      -4.4549      1.00000
     73      -4.4288      1.00000
     74      -4.4100      1.00000
     75      -4.4003      1.00000
     76      -4.3915      1.00000
     77      -4.3332      1.00000
     78      -4.3176      1.00000
     79      -4.2942      1.00000
     80      -4.2851      1.00000
     81      -4.2798      1.00000
     82      -4.2437      1.00000
     83      -3.9332      1.00000
     84      -3.7789      1.00000
     85      -3.7521      1.00000
     86      -3.7306      1.00000
     87      -3.6405      1.00000
     88      -3.5990      1.00000
     89      -3.5833      1.00000
     90      -3.5180      1.00000
     91      -3.4989      1.00000
     92      -3.4202      1.00000
     93      -3.3264      1.00000
     94      -3.2775      1.00000
     95      -3.2252      1.00000
     96      -3.2081      1.00000
     97      -3.2073      1.00000
     98      -3.1996      1.00000
     99      -3.0998      1.00000
    100      -3.0744      1.00000
    101      -3.0485      1.00000
    102      -3.0228      1.00000
    103      -2.7623      1.00000
    104      -2.7078      1.00000
    105      -2.7021      1.00000
    106      -2.3458      1.00000
    107      -2.3387      1.00000
    108      -2.2968      1.00000
    109      -2.2156      1.00000
    110      -2.1961      1.00000
    111      -2.1813      1.00000
    112      -2.1595      1.00000
    113      -2.1584      1.00000
    114      -1.8541      1.00000
    115      -1.8273      1.00000
    116      -1.7763      1.00000
    117      -1.6664      1.00000
    118      -1.6310      1.00000
    119      -0.6974      1.00000
    120      -0.5989      1.00000
    121       1.9347      0.00000
    122       1.9372      0.00000
    123       1.9678      0.00000
    124       1.9803      0.00000
    125       2.0108      0.00000
    126       2.0132      0.00000
    127       2.6490      0.00000
    128       2.6717      0.00000
    129       2.6779      0.00000
    130       2.7029      0.00000
    131       3.0187      0.00000
    132       3.0966      0.00000
    133       3.1289      0.00000
    134       3.1988      0.00000
    135       3.3561      0.00000
    136       3.3719      0.00000
    137       3.4257      0.00000
    138       3.4354      0.00000
    139       3.4388      0.00000
    140       3.4520      0.00000
    141       3.5498      0.00000
    142       3.5584      0.00000
    143       3.6462      0.00000
    144       3.7545      0.00000
    145       3.8086      0.00000
    146       3.8403      0.00000
    147       3.8502      0.00000
    148       3.8842      0.00000
    149       4.1231      0.00000
    150       4.2156      0.00000
    151       4.2459      0.00000
    152       4.2842      0.00000
    153       4.6553      0.00000
    154       5.1755      0.00000
    155       5.3720      0.00000
    156       5.9081      0.00000
    157       6.0171      0.00000
    158       6.1872      0.00000
    159       6.2920      0.00000
    160       7.1044      0.00000

 k-point     2 :       0.3750    0.1250    0.1250
  band No.  band energies     occupation 
      1     -34.9375      1.00000
      2     -34.9346      1.00000
      3     -34.9339      1.00000
      4     -34.9310      1.00000
      5     -34.9005      1.00000
      6     -34.8977      1.00000
      7     -34.8970      1.00000
      8     -34.8942      1.00000
      9     -34.8015      1.00000
     10     -34.8013      1.00000
     11     -34.7950      1.00000
     12     -34.7943      1.00000
     13     -34.7936      1.00000
     14     -34.7931      1.00000
     15     -34.7761      1.00000
     16     -34.7760      1.00000
     17     -34.7208      1.00000
     18     -34.7203      1.00000
     19     -34.7029      1.00000
     20     -34.6996      1.00000
     21     -34.6990      1.00000
     22     -34.6959      1.00000
     23     -34.6883      1.00000
     24     -34.6879      1.00000
     25     -23.0803      1.00000
     26     -23.0490      1.00000
     27     -23.0388      1.00000
     28     -23.0138      1.00000
     29     -22.8997      1.00000
     30     -22.8754      1.00000
     31     -22.8680      1.00000
     32     -22.8494      1.00000
     33     -22.4363      1.00000
     34     -22.4194      1.00000
     35     -22.3723      1.00000
     36     -22.3434      1.00000
     37     -22.3334      1.00000
     38     -22.3036      1.00000
     39     -22.2488      1.00000
     40     -22.2418      1.00000
     41     -16.7619      1.00000
     42     -16.7463      1.00000
     43     -16.6891      1.00000
     44     -16.6249      1.00000
     45     -16.6236      1.00000
     46     -16.5608      1.00000
     47     -16.4853      1.00000
     48     -16.4708      1.00000
     49      -6.4157      1.00000
     50      -6.3970      1.00000
     51      -6.3949      1.00000
     52      -6.3914      1.00000
     53      -6.0898      1.00000
     54      -6.0070      1.00000
     55      -5.9654      1.00000
     56      -5.9556      1.00000
     57      -5.9236      1.00000
     58      -5.9090      1.00000
     59      -5.8898      1.00000
     60      -5.8645      1.00000
     61      -5.8572      1.00000
     62      -5.8045      1.00000
     63      -5.7698      1.00000
     64      -5.6984      1.00000
     65      -5.1339      1.00000
     66      -5.1175      1.00000
     67      -5.0737      1.00000
     68      -5.0541      1.00000
     69      -4.9583      1.00000
     70      -4.9214      1.00000
     71      -4.7921      1.00000
     72      -4.7351      1.00000
     73      -4.7106      1.00000
     74      -4.6604      1.00000
     75      -4.4240      1.00000
     76      -4.4057      1.00000
     77      -4.3791      1.00000
     78      -4.3511      1.00000
     79      -4.3243      1.00000
     80      -4.3237      1.00000
     81      -4.3102      1.00000
     82      -4.2748      1.00000
     83      -3.9639      1.00000
     84      -3.7927      1.00000
     85      -3.7664      1.00000
     86      -3.5987      1.00000
     87      -3.5441      1.00000
     88      -3.4819      1.00000
     89      -3.4614      1.00000
     90      -3.3916      1.00000
     91      -3.3877      1.00000
     92      -3.3298      1.00000
     93      -3.2894      1.00000
     94      -3.2851      1.00000
     95      -3.2663      1.00000
     96      -3.2295      1.00000
     97      -3.2144      1.00000
     98      -3.1882      1.00000
     99      -3.1474      1.00000
    100      -3.1320      1.00000
    101      -3.1272      1.00000
    102      -3.0911      1.00000
    103      -2.7654      1.00000
    104      -2.7110      1.00000
    105      -2.7041      1.00000
    106      -2.2981      1.00000
    107      -2.2287      1.00000
    108      -2.2186      1.00000
    109      -2.1934      1.00000
    110      -2.1596      1.00000
    111      -2.1383      1.00000
    112      -2.1248      1.00000
    113      -2.0633      1.00000
    114      -1.9525      1.00000
    115      -1.8521      1.00000
    116      -1.8337      1.00000
    117      -1.8081      1.00000
    118      -1.7666      1.00000
    119      -0.6977      1.00000
    120      -0.5993      1.00000
    121       1.9376      0.00000
    122       2.0116      0.00000
    123       2.1500      0.00000
    124       2.1587      0.00000
    125       2.1723      0.00000
    126       2.1896      0.00000
    127       2.4345      0.00000
    128       2.4569      0.00000
    129       2.4655      0.00000
    130       2.4920      0.00000
    131       3.1805      0.00000
    132       3.2954      0.00000
    133       3.2959      0.00000
    134       3.3477      0.00000
    135       3.3848      0.00000
    136       3.4019      0.00000
    137       3.4298      0.00000
    138       3.4932      0.00000
    139       3.4985      0.00000
    140       3.5463      0.00000
    141       3.6028      0.00000
    142       3.6560      0.00000
    143       3.6850      0.00000
    144       3.7398      0.00000
    145       3.7604      0.00000
    146       3.8294      0.00000
    147       3.8495      0.00000
    148       4.0076      0.00000
    149       4.0921      0.00000
    150       4.2187      0.00000
    151       4.2365      0.00000
    152       4.3488      0.00000
    153       4.5917      0.00000
    154       5.3648      0.00000
    155       5.4060      0.00000
    156       5.5612      0.00000
    157       5.8526      0.00000
    158       5.9608      0.00000
    159       6.4529      0.00000
    160       7.0991      0.00000

 k-point     3 :      -0.3750    0.1250    0.1250
  band No.  band energies     occupation 
      1     -34.9375      1.00000
      2     -34.9346      1.00000
      3     -34.9339      1.00000
      4     -34.9310      1.00000
      5     -34.9005      1.00000
      6     -34.8977      1.00000
      7     -34.8970      1.00000
      8     -34.8942      1.00000
      9     -34.8015      1.00000
     10     -34.8013      1.00000
     11     -34.7950      1.00000
     12     -34.7943      1.00000
     13     -34.7936      1.00000
     14     -34.7931      1.00000
     15     -34.7761      1.00000
     16     -34.7760      1.00000
     17     -34.7208      1.00000
     18     -34.7203      1.00000
     19     -34.7029      1.00000
     20     -34.6996      1.00000
     21     -34.6990      1.00000
     22     -34.6959      1.00000
     23     -34.6883      1.00000
     24     -34.6879      1.00000
     25     -23.0803      1.00000
     26     -23.0490      1.00000
     27     -23.0388      1.00000
     28     -23.0138      1.00000
     29     -22.8997      1.00000
     30     -22.8754      1.00000
     31     -22.8680      1.00000
     32     -22.8494      1.00000
     33     -22.4363      1.00000
     34     -22.4194      1.00000
     35     -22.3723      1.00000
     36     -22.3434      1.00000
     37     -22.3334      1.00000
     38     -22.3036      1.00000
     39     -22.2488      1.00000
     40     -22.2418      1.00000
     41     -16.7619      1.00000
     42     -16.7463      1.00000
     43     -16.6891      1.00000
     44     -16.6249      1.00000
     45     -16.6236      1.00000
     46     -16.5608      1.00000
     47     -16.4853      1.00000
     48     -16.4708      1.00000
     49      -6.4157      1.00000
     50      -6.3970      1.00000
     51      -6.3949      1.00000
     52      -6.3914      1.00000
     53      -6.0898      1.00000
     54      -6.0070      1.00000
     55      -5.9654      1.00000
     56      -5.9556      1.00000
     57      -5.9236      1.00000
     58      -5.9090      1.00000
     59      -5.8898      1.00000
     60      -5.8645      1.00000
     61      -5.8572      1.00000
     62      -5.8045      1.00000
     63      -5.7698      1.00000
     64      -5.6984      1.00000
     65      -5.1339      1.00000
     66      -5.1175      1.00000
     67      -5.0737      1.00000
     68      -5.0541      1.00000
     69      -4.9583      1.00000
     70      -4.9214      1.00000
     71      -4.7921      1.00000
     72      -4.7351      1.00000
     73      -4.7106      1.00000
     74      -4.6604      1.00000
     75      -4.4240      1.00000
     76      -4.4057      1.00000
     77      -4.3791      1.00000
     78      -4.3511      1.00000
     79      -4.3243      1.00000
     80      -4.3237      1.00000
     81      -4.3102      1.00000
     82      -4.2748      1.00000
     83      -3.9639      1.00000
     84      -3.7927      1.00000
     85      -3.7664      1.00000
     86      -3.5987      1.00000
     87      -3.5441      1.00000
     88      -3.4819      1.00000
     89      -3.4614      1.00000
     90      -3.3916      1.00000
     91      -3.3877      1.00000
     92      -3.3298      1.00000
     93      -3.2894      1.00000
     94      -3.2851      1.00000
     95      -3.2663      1.00000
     96      -3.2295      1.00000
     97      -3.2144      1.00000
     98      -3.1882      1.00000
     99      -3.1474      1.00000
    100      -3.1320      1.00000
    101      -3.1272      1.00000
    102      -3.0911      1.00000
    103      -2.7654      1.00000
    104      -2.7110      1.00000
    105      -2.7041      1.00000
    106      -2.2981      1.00000
    107      -2.2287      1.00000
    108      -2.2186      1.00000
    109      -2.1934      1.00000
    110      -2.1596      1.00000
    111      -2.1383      1.00000
    112      -2.1248      1.00000
    113      -2.0633      1.00000
    114      -1.9525      1.00000
    115      -1.8521      1.00000
    116      -1.8337      1.00000
    117      -1.8081      1.00000
    118      -1.7666      1.00000
    119      -0.6977      1.00000
    120      -0.5993      1.00000
    121       1.9376      0.00000
    122       2.0116      0.00000
    123       2.1500      0.00000
    124       2.1587      0.00000
    125       2.1723      0.00000
    126       2.1896      0.00000
    127       2.4345      0.00000
    128       2.4569      0.00000
    129       2.4655      0.00000
    130       2.4920      0.00000
    131       3.1805      0.00000
    132       3.2954      0.00000
    133       3.2959      0.00000
    134       3.3477      0.00000
    135       3.3848      0.00000
    136       3.4019      0.00000
    137       3.4298      0.00000
    138       3.4932      0.00000
    139       3.4985      0.00000
    140       3.5463      0.00000
    141       3.6028      0.00000
    142       3.6560      0.00000
    143       3.6850      0.00000
    144       3.7398      0.00000
    145       3.7604      0.00000
    146       3.8294      0.00000
    147       3.8495      0.00000
    148       4.0076      0.00000
    149       4.0921      0.00000
    150       4.2187      0.00000
    151       4.2365      0.00000
    152       4.3488      0.00000
    153       4.5917      0.00000
    154       5.3648      0.00000
    155       5.4060      0.00000
    156       5.5612      0.00000
    157       5.8526      0.00000
    158       5.9608      0.00000
    159       6.4529      0.00000
    160       7.0991      0.00000

 k-point     4 :      -0.1250    0.1250    0.1250
  band No.  band energies     occupation 
      1     -34.9633      1.00000
      2     -34.9603      1.00000
      3     -34.9596      1.00000
      4     -34.9567      1.00000
      5     -34.8739      1.00000
      6     -34.8713      1.00000
      7     -34.8705      1.00000
      8     -34.8679      1.00000
      9     -34.8018      1.00000
     10     -34.8012      1.00000
     11     -34.7957      1.00000
     12     -34.7945      1.00000
     13     -34.7933      1.00000
     14     -34.7927      1.00000
     15     -34.7760      1.00000
     16     -34.7760      1.00000
     17     -34.7210      1.00000
     18     -34.7202      1.00000
     19     -34.7031      1.00000
     20     -34.6996      1.00000
     21     -34.6990      1.00000
     22     -34.6958      1.00000
     23     -34.6882      1.00000
     24     -34.6879      1.00000
     25     -23.2006      1.00000
     26     -23.1667      1.00000
     27     -23.1556      1.00000
     28     -23.1277      1.00000
     29     -22.7563      1.00000
     30     -22.7438      1.00000
     31     -22.7412      1.00000
     32     -22.7306      1.00000
     33     -22.4609      1.00000
     34     -22.4136      1.00000
     35     -22.3813      1.00000
     36     -22.3456      1.00000
     37     -22.3367      1.00000
     38     -22.3040      1.00000
     39     -22.2492      1.00000
     40     -22.2415      1.00000
     41     -16.7623      1.00000
     42     -16.7467      1.00000
     43     -16.6899      1.00000
     44     -16.6253      1.00000
     45     -16.6236      1.00000
     46     -16.5601      1.00000
     47     -16.4859      1.00000
     48     -16.4699      1.00000
     49      -6.7747      1.00000
     50      -6.7511      1.00000
     51      -6.7320      1.00000
     52      -6.7204      1.00000
     53      -6.0603      1.00000
     54      -5.9868      1.00000
     55      -5.9718      1.00000
     56      -5.9203      1.00000
     57      -5.9110      1.00000
     58      -5.8784      1.00000
     59      -5.8649      1.00000
     60      -5.8491      1.00000
     61      -5.5980      1.00000
     62      -5.4866      1.00000
     63      -5.4258      1.00000
     64      -5.3424      1.00000
     65      -5.2811      1.00000
     66      -5.2731      1.00000
     67      -5.2403      1.00000
     68      -5.2263      1.00000
     69      -4.9717      1.00000
     70      -4.9040      1.00000
     71      -4.4719      1.00000
     72      -4.4549      1.00000
     73      -4.4288      1.00000
     74      -4.4100      1.00000
     75      -4.4003      1.00000
     76      -4.3915      1.00000
     77      -4.3332      1.00000
     78      -4.3176      1.00000
     79      -4.2942      1.00000
     80      -4.2851      1.00000
     81      -4.2798      1.00000
     82      -4.2437      1.00000
     83      -3.9332      1.00000
     84      -3.7789      1.00000
     85      -3.7521      1.00000
     86      -3.7306      1.00000
     87      -3.6405      1.00000
     88      -3.5990      1.00000
     89      -3.5833      1.00000
     90      -3.5180      1.00000
     91      -3.4989      1.00000
     92      -3.4202      1.00000
     93      -3.3264      1.00000
     94      -3.2775      1.00000
     95      -3.2252      1.00000
     96      -3.2081      1.00000
     97      -3.2073      1.00000
     98      -3.1996      1.00000
     99      -3.0998      1.00000
    100      -3.0744      1.00000
    101      -3.0485      1.00000
    102      -3.0228      1.00000
    103      -2.7623      1.00000
    104      -2.7078      1.00000
    105      -2.7021      1.00000
    106      -2.3458      1.00000
    107      -2.3387      1.00000
    108      -2.2968      1.00000
    109      -2.2156      1.00000
    110      -2.1961      1.00000
    111      -2.1813      1.00000
    112      -2.1595      1.00000
    113      -2.1584      1.00000
    114      -1.8541      1.00000
    115      -1.8273      1.00000
    116      -1.7763      1.00000
    117      -1.6664      1.00000
    118      -1.6310      1.00000
    119      -0.6974      1.00000
    120      -0.5989      1.00000
    121       1.9347      0.00000
    122       1.9372      0.00000
    123       1.9678      0.00000
    124       1.9803      0.00000
    125       2.0108      0.00000
    126       2.0132      0.00000
    127       2.6490      0.00000
    128       2.6717      0.00000
    129       2.6779      0.00000
    130       2.7029      0.00000
    131       3.0187      0.00000
    132       3.0966      0.00000
    133       3.1289      0.00000
    134       3.1988      0.00000
    135       3.3561      0.00000
    136       3.3719      0.00000
    137       3.4257      0.00000
    138       3.4354      0.00000
    139       3.4388      0.00000
    140       3.4520      0.00000
    141       3.5498      0.00000
    142       3.5584      0.00000
    143       3.6462      0.00000
    144       3.7545      0.00000
    145       3.8086      0.00000
    146       3.8403      0.00000
    147       3.8502      0.00000
    148       3.8842      0.00000
    149       4.1231      0.00000
    150       4.2156      0.00000
    151       4.2459      0.00000
    152       4.2842      0.00000
    153       4.6553      0.00000
    154       5.1755      0.00000
    155       5.3720      0.00000
    156       5.9081      0.00000
    157       6.0171      0.00000
    158       6.1872      0.00000
    159       6.2920      0.00000
    160       7.1044      0.00000

 k-point     5 :       0.1250    0.3750    0.1250
  band No.  band energies     occupation 
      1     -34.9625      1.00000
      2     -34.9613      1.00000
      3     -34.9586      1.00000
      4     -34.9575      1.00000
      5     -34.8732      1.00000
      6     -34.8722      1.00000
      7     -34.8697      1.00000
      8     -34.8686      1.00000
      9     -34.7955      1.00000
     10     -34.7945      1.00000
     11     -34.7942      1.00000
     12     -34.7928      1.00000
     13     -34.7736      1.00000
     14     -34.7714      1.00000
     15     -34.7632      1.00000
     16     -34.7615      1.00000
     17     -34.7354      1.00000
     18     -34.7330      1.00000
     19     -34.7246      1.00000
     20     -34.7221      1.00000
     21     -34.6987      1.00000
     22     -34.6969      1.00000
     23     -34.6959      1.00000
     24     -34.6947      1.00000
     25     -23.1902      1.00000
     26     -23.1763      1.00000
     27     -23.1464      1.00000
     28     -23.1351      1.00000
     29     -22.7524      1.00000
     30     -22.7471      1.00000
     31     -22.7383      1.00000
     32     -22.7338      1.00000
     33     -22.4401      1.00000
     34     -22.4113      1.00000
     35     -22.3955      1.00000
     36     -22.3685      1.00000
     37     -22.3027      1.00000
     38     -22.2713      1.00000
     39     -22.2688      1.00000
     40     -22.2485      1.00000
     41     -16.7749      1.00000
     42     -16.7515      1.00000
     43     -16.7328      1.00000
     44     -16.6934      1.00000
     45     -16.5733      1.00000
     46     -16.5269      1.00000
     47     -16.5185      1.00000
     48     -16.4880      1.00000
     49      -6.7572      1.00000
     50      -6.7500      1.00000
     51      -6.7216      1.00000
     52      -6.7186      1.00000
     53      -5.9511      1.00000
     54      -5.9356      1.00000
     55      -5.9286      1.00000
     56      -5.9172      1.00000
     57      -5.6814      1.00000
     58      -5.6716      1.00000
     59      -5.5728      1.00000
     60      -5.5306      1.00000
     61      -5.5286      1.00000
     62      -5.5225      1.00000
     63      -5.3752      1.00000
     64      -5.3182      1.00000
     65      -5.2378      1.00000
     66      -5.2307      1.00000
     67      -5.1581      1.00000
     68      -5.1075      1.00000
     69      -4.7782      1.00000
     70      -4.7448      1.00000
     71      -4.7020      1.00000
     72      -4.6834      1.00000
     73      -4.5297      1.00000
     74      -4.4448      1.00000
     75      -4.4410      1.00000
     76      -4.3961      1.00000
     77      -4.3806      1.00000
     78      -4.3150      1.00000
     79      -4.3116      1.00000
     80      -4.2645      1.00000
     81      -4.2624      1.00000
     82      -4.1310      1.00000
     83      -4.1234      1.00000
     84      -4.0745      1.00000
     85      -3.9467      1.00000
     86      -3.8982      1.00000
     87      -3.7238      1.00000
     88      -3.7009      1.00000
     89      -3.6801      1.00000
     90      -3.6631      1.00000
     91      -3.5456      1.00000
     92      -3.5091      1.00000
     93      -3.4594      1.00000
     94      -3.4538      1.00000
     95      -3.3445      1.00000
     96      -3.2705      1.00000
     97      -3.1620      1.00000
     98      -3.0891      1.00000
     99      -3.0870      1.00000
    100      -3.0721      1.00000
    101      -3.0486      1.00000
    102      -2.9973      1.00000
    103      -2.9877      1.00000
    104      -2.8394      1.00000
    105      -2.8385      1.00000
    106      -2.6285      1.00000
    107      -2.3599      1.00000
    108      -2.3540      1.00000
    109      -2.3054      1.00000
    110      -2.2582      1.00000
    111      -2.2482      1.00000
    112      -2.2315      1.00000
    113      -1.8146      1.00000
    114      -1.7867      1.00000
    115      -1.6632      1.00000
    116      -1.6489      1.00000
    117      -1.5936      1.00000
    118      -1.3122      1.00000
    119      -1.0685      1.00000
    120      -0.8441      1.00000
    121       1.9446      0.00000
    122       1.9582      0.00000
    123       2.2313      0.00000
    124       2.2466      0.00000
    125       2.2939      0.00000
    126       2.4642      0.00000
    127       2.6856      0.00000
    128       2.6960      0.00000
    129       2.7996      0.00000
    130       2.8064      0.00000
    131       2.8193      0.00000
    132       3.0116      0.00000
    133       3.0433      0.00000
    134       3.0928      0.00000
    135       3.2678      0.00000
    136       3.3298      0.00000
    137       3.4002      0.00000
    138       3.4040      0.00000
    139       3.5043      0.00000
    140       3.6157      0.00000
    141       3.6368      0.00000
    142       3.6509      0.00000
    143       3.6969      0.00000
    144       3.8029      0.00000
    145       3.8233      0.00000
    146       3.8431      0.00000
    147       3.8432      0.00000
    148       3.9984      0.00000
    149       4.0365      0.00000
    150       4.1069      0.00000
    151       4.1954      0.00000
    152       4.7832      0.00000
    153       4.8503      0.00000
    154       4.9409      0.00000
    155       5.7177      0.00000
    156       5.7556      0.00000
    157       5.8658      0.00000
    158       6.3828      0.00000
    159       6.5138      0.00000
    160       6.6082      0.00000

 k-point     6 :       0.3750    0.3750    0.1250
  band No.  band energies     occupation 
      1     -34.9367      1.00000
      2     -34.9355      1.00000
      3     -34.9329      1.00000
      4     -34.9318      1.00000
      5     -34.8997      1.00000
      6     -34.8986      1.00000
      7     -34.8961      1.00000
      8     -34.8950      1.00000
      9     -34.7951      1.00000
     10     -34.7947      1.00000
     11     -34.7937      1.00000
     12     -34.7931      1.00000
     13     -34.7729      1.00000
     14     -34.7719      1.00000
     15     -34.7628      1.00000
     16     -34.7619      1.00000
     17     -34.7351      1.00000
     18     -34.7332      1.00000
     19     -34.7243      1.00000
     20     -34.7223      1.00000
     21     -34.6985      1.00000
     22     -34.6972      1.00000
     23     -34.6958      1.00000
     24     -34.6949      1.00000
     25     -23.0706      1.00000
     26     -23.0579      1.00000
     27     -23.0305      1.00000
     28     -23.0204      1.00000
     29     -22.8921      1.00000
     30     -22.8822      1.00000
     31     -22.8620      1.00000
     32     -22.8544      1.00000
     33     -22.4205      1.00000
     34     -22.3990      1.00000
     35     -22.3978      1.00000
     36     -22.3694      1.00000
     37     -22.3004      1.00000
     38     -22.2707      1.00000
     39     -22.2680      1.00000
     40     -22.2483      1.00000
     41     -16.7745      1.00000
     42     -16.7510      1.00000
     43     -16.7324      1.00000
     44     -16.6930      1.00000
     45     -16.5733      1.00000
     46     -16.5268      1.00000
     47     -16.5188      1.00000
     48     -16.4883      1.00000
     49      -6.3912      1.00000
     50      -6.3899      1.00000
     51      -6.3889      1.00000
     52      -6.3818      1.00000
     53      -5.9927      1.00000
     54      -5.9774      1.00000
     55      -5.9272      1.00000
     56      -5.9181      1.00000
     57      -5.8943      1.00000
     58      -5.8712      1.00000
     59      -5.7634      1.00000
     60      -5.7406      1.00000
     61      -5.6293      1.00000
     62      -5.6212      1.00000
     63      -5.5855      1.00000
     64      -5.5783      1.00000
     65      -5.1172      1.00000
     66      -5.0928      1.00000
     67      -4.9357      1.00000
     68      -4.9008      1.00000
     69      -4.8092      1.00000
     70      -4.7814      1.00000
     71      -4.7150      1.00000
     72      -4.6513      1.00000
     73      -4.5956      1.00000
     74      -4.5712      1.00000
     75      -4.5513      1.00000
     76      -4.5415      1.00000
     77      -4.4351      1.00000
     78      -4.4322      1.00000
     79      -4.3875      1.00000
     80      -4.3314      1.00000
     81      -4.3223      1.00000
     82      -4.3054      1.00000
     83      -4.2157      1.00000
     84      -4.1385      1.00000
     85      -3.9427      1.00000
     86      -3.8922      1.00000
     87      -3.8619      1.00000
     88      -3.8200      1.00000
     89      -3.5592      1.00000
     90      -3.4910      1.00000
     91      -3.4221      1.00000
     92      -3.4148      1.00000
     93      -3.3691      1.00000
     94      -3.3282      1.00000
     95      -3.3128      1.00000
     96      -3.3095      1.00000
     97      -3.2120      1.00000
     98      -3.1562      1.00000
     99      -3.1451      1.00000
    100      -3.1203      1.00000
    101      -3.0996      1.00000
    102      -3.0331      1.00000
    103      -2.9976      1.00000
    104      -2.8435      1.00000
    105      -2.8382      1.00000
    106      -2.6304      1.00000
    107      -2.3110      1.00000
    108      -2.2348      1.00000
    109      -2.1800      1.00000
    110      -2.1583      1.00000
    111      -2.1157      1.00000
    112      -2.0876      1.00000
    113      -1.8919      1.00000
    114      -1.8466      1.00000
    115      -1.8293      1.00000
    116      -1.7957      1.00000
    117      -1.5909      1.00000
    118      -1.3103      1.00000
    119      -1.0684      1.00000
    120      -0.8441      1.00000
    121       2.1646      0.00000
    122       2.1775      0.00000
    123       2.2933      0.00000
    124       2.3706      0.00000
[...]
 -0.000   0.000  -0.000   0.000  -0.000   0.000   0.000   0.000   0.000  -0.000   0.000  -0.000  -0.000   0.000  -0.000   0.000
 -0.000   0.000  -0.000  -0.000   0.000  -0.000   0.000  -0.000  -0.000   0.000  -0.000  -0.000   0.000   0.000  -0.000   0.000
  0.000  -0.000   0.000  -0.000  -0.000   0.000  -0.000  -0.000   0.000  -0.000  -0.000   0.000   0.000   0.000  -0.000   0.000
 -0.000  -0.000  -0.000   0.000  -0.000  -0.000   0.000  -0.000   0.000  -0.000   0.000   0.000   0.000  -0.000   0.000  -0.000
 -0.000   0.000  -0.000  -0.000  -0.000  -0.000  -0.000   0.000   0.000   0.000   0.000   0.000  -0.000  -0.000   0.000  -0.000
 -0.000   0.000   0.000  -0.000   0.000  -0.000   0.000  -0.000  -0.000  -0.000  -0.000  -0.000   0.000   0.000   0.000   0.000
 -0.000   0.000  -0.000   0.000   0.000  -0.000  -0.000   0.000   0.000   0.000   0.000   0.000  -0.000  -0.000   0.000  -0.000
 -0.000  -0.000  -0.000   0.000  -0.000  -0.000  -0.000   0.000  -0.000   0.000   0.000   0.000  -0.000   0.000  -0.000   0.000
  0.000   0.000  -0.000   0.000   0.000  -0.000   0.000   0.000  -0.000  -0.000  -0.000  -0.000  -0.000   0.000   0.000   0.000


------------------------ aborting loop because EDIFF is reached ----------------------------------------


 


 total charge     
 
# of ion       s       p       d       tot
------------------------------------------
    1        0.318   6.464   1.764   8.546
    2        0.318   6.464   1.764   8.546
    3        0.318   6.464   1.764   8.546
    4        0.318   6.464   1.764   8.546
    5        0.318   6.464   1.764   8.546
    6        0.318   6.464   1.764   8.546
    7        0.318   6.464   1.764   8.546
    8        0.318   6.464   1.764   8.546
    9        1.570   3.474   0.000   5.044
   10        1.570   3.474   0.000   5.044
   11        1.570   3.474   0.000   5.044
   12        1.570   3.474   0.000   5.044
   13        1.571   3.475   0.000   5.046
   14        1.571   3.475   0.000   5.046
   15        1.571   3.475   0.000   5.046
   16        1.571   3.475   0.000   5.046
   17        1.729   4.383   0.000   6.112
   18        1.729   4.383   0.000   6.112
   19        1.729   4.383   0.000   6.112
   20        1.729   4.383   0.000   6.112
   21        1.729   4.383   0.000   6.112
   22        1.729   4.383   0.000   6.112
   23        1.729   4.383   0.000   6.112
   24        1.729   4.383   0.000   6.112
   25        1.729   4.379   0.000   6.108
   26        1.729   4.379   0.000   6.108
   27        1.729   4.379   0.000   6.108
   28        1.729   4.379   0.000   6.108
   29        1.729   4.376   0.000   6.105
   30        1.729   4.376   0.000   6.105
   31        1.729   4.376   0.000   6.105
   32        1.729   4.376   0.000   6.105
--------------------------------------------------
tot         42.772 149.596  14.109 206.477
 


 magnetization (x)
 
# of ion       s       p       d       tot
------------------------------------------
    1       -0.000  -0.000  -0.000  -0.000
    2       -0.000  -0.000  -0.000  -0.000
    3       -0.000  -0.000  -0.000  -0.000
    4       -0.000  -0.000  -0.000  -0.000
    5       -0.000  -0.000   0.000   0.000
    6       -0.000  -0.000   0.000   0.000
    7       -0.000  -0.000   0.000   0.000
    8       -0.000  -0.000   0.000   0.000
    9        0.000   0.000   0.000   0.000
   10        0.000   0.000   0.000   0.000
   11        0.000  -0.000   0.000  -0.000
   12        0.000  -0.000   0.000  -0.000
   13       -0.000   0.000   0.000   0.000
   14       -0.000   0.000   0.000   0.000
   15        0.000  -0.000   0.000  -0.000
   16        0.000  -0.000   0.000  -0.000
   17       -0.000   0.000   0.000   0.000
   18       -0.000   0.000   0.000   0.000
   19       -0.000   0.000   0.000   0.000
   20       -0.000   0.000   0.000   0.000
   21        0.000   0.000   0.000   0.000
   22       -0.000   0.000   0.000   0.000
   23       -0.000   0.000   0.000   0.000
   24        0.000   0.000   0.000   0.000
   25        0.000  -0.000   0.000  -0.000
   26        0.000  -0.000   0.000  -0.000
   27       -0.000   0.000   0.000   0.000
   28       -0.000   0.000   0.000   0.000
   29        0.000  -0.000   0.000  -0.000
   30        0.000  -0.000   0.000  -0.000
   31        0.000   0.000   0.000   0.000
   32        0.000   0.000   0.000   0.000
--------------------------------------------------
tot         -0.000   0.000   0.000   0.000
 
    CHARGE:  cpu time    1.1748: real time    1.1723
    FORLOC:  cpu time    0.0110: real time    0.0096
    FORNL :  cpu time    7.0329: real time    7.0197
    STRESS:  cpu time   21.2658: real time   21.2257
    FORCOR:  cpu time    0.1320: real time    0.1316
    FORHAR:  cpu time    0.0210: real time    0.0213
    MIXING:  cpu time    0.0030: real time    0.0033
    OFIELD:  cpu time    0.0000: real time    0.0000

  FORCE on cell =-STRESS in cart. coord.  units (eV):
  Direction    XX          YY          ZZ          XY          YZ          ZX
  --------------------------------------------------------------------------------------
  Alpha Z   758.37072   758.37072   758.37072
  Ewald   -4317.11266 -4224.82096 -4265.71370     0.00000     0.00022     0.00002
  Hartree  2726.18278  2766.66463  2739.39018     0.00000     0.00007     0.00001
  E(xc)   -1232.14152 -1232.64574 -1232.67505     0.00000    -0.00000     0.00000
  Local   -2049.37897 -2240.63730 -2172.88438    -0.00000    -0.00029    -0.00004
  n-local  -975.08520  -963.34752  -963.72711     0.00000     0.00001     0.00000
  augment   744.08496   763.53181   763.67798     0.00000     0.00000     0.00000
  Kinetic  4345.24824  4373.06440  4373.68202    -0.00000    -0.00000    -0.00000
  Fock        0.00000     0.00000     0.00000     0.00000     0.00000     0.00000
  -------------------------------------------------------------------------------------
  Total       0.16835     0.18004     0.12067    -0.00000     0.00001    -0.00000
  in kB       0.58416     0.62473     0.41870    -0.00000     0.00003    -0.00000
  external pressure =        0.54 kB  Pullay stress =        0.00 kB


 VOLUME and BASIS-vectors are now :
 -----------------------------------------------------------------------------
  energy-cutoff  :      700.00
  volume of cell :      461.73
      direct lattice vectors                 reciprocal lattice vectors
     7.857115260 -0.000000004  0.000000018     0.127273174 -0.000000000 -0.000000000
     0.000000007  7.661575423 -0.000000013     0.000000000  0.130521459  0.000000000
     0.000000019 -0.000000014  7.670282152    -0.000000000  0.000000000  0.130373301

  length of vectors
     7.857115260  7.661575423  7.670282152     0.127273174  0.130521459  0.130373301


 FORCES acting on ions
    electron-ion (+dipol)            ewald-force                    non-local-force                 convergence-correction
 -----------------------------------------------------------------------------------------------
   -.472E-05 0.127E+02 -.232E+01   0.459E-05 -.137E+02 0.128E+01   0.893E-07 0.949E+00 0.104E+01   -.123E-07 0.332E-03 0.156E-03
   -.647E-05 -.127E+02 0.232E+01   0.646E-05 0.137E+02 -.128E+01   0.121E-07 -.949E+00 -.104E+01   0.895E-08 -.317E-03 -.136E-03
   -.491E-05 -.127E+02 0.232E+01   0.494E-05 0.137E+02 -.128E+01   -.232E-07 -.949E+00 -.104E+01   0.894E-08 -.311E-03 -.141E-03
   -.658E-05 0.127E+02 -.232E+01   0.644E-05 -.137E+02 0.128E+01   0.120E-06 0.949E+00 0.104E+01   -.623E-08 0.331E-03 0.159E-03
   0.594E-05 0.127E+02 0.232E+01   -.579E-05 -.137E+02 -.128E+01   -.110E-06 0.949E+00 -.104E+01   0.131E-07 0.327E-03 -.149E-03
   0.646E-05 -.127E+02 -.232E+01   -.646E-05 0.137E+02 0.128E+01   -.995E-08 -.949E+00 0.104E+01   -.843E-08 -.309E-03 0.130E-03
   0.622E-05 -.127E+02 -.232E+01   -.623E-05 0.137E+02 0.128E+01   0.705E-08 -.949E+00 0.104E+01   -.771E-08 -.307E-03 0.133E-03
   0.614E-05 0.127E+02 0.232E+01   -.602E-05 -.137E+02 -.128E+01   -.115E-06 0.949E+00 -.104E+01   0.704E-08 0.325E-03 -.151E-03
   -.227E-05 0.363E-03 -.827E-04   0.215E-05 -.360E-03 0.872E-04   0.162E-06 0.595E-05 -.451E-05   0.119E-08 -.337E-04 0.360E-05
   -.822E-05 0.973E-03 -.808E-04   0.879E-05 -.100E-02 0.844E-04   -.585E-06 0.245E-04 -.371E-05   0.487E-10 -.549E-04 0.337E-05
   0.327E-05 0.484E-03 0.780E-04   -.329E-05 -.490E-03 -.814E-04   -.634E-08 0.872E-05 0.311E-05   -.124E-08 -.333E-04 -.335E-05
   0.725E-05 0.923E-03 0.967E-04   -.767E-05 -.951E-03 -.102E-03   0.412E-06 0.212E-04 0.543E-05   -.340E-09 -.484E-04 -.331E-05
   0.165E-06 -.828E-04 0.731E-03   -.591E-06 0.878E-04 -.750E-03   0.489E-06 -.481E-05 0.189E-04   0.266E-09 0.314E-05 -.451E-04
   -.220E-07 -.718E-04 0.706E-03   -.228E-06 0.753E-04 -.725E-03   0.277E-06 -.398E-05 0.183E-04   0.146E-08 0.394E-05 -.427E-04
   0.237E-06 -.910E-04 -.756E-03   0.108E-06 0.965E-04 0.780E-03   -.405E-06 -.537E-05 -.183E-04   0.232E-08 0.314E-05 0.407E-04
   0.171E-05 -.749E-04 -.763E-03   -.147E-05 0.785E-04 0.789E-03   -.294E-06 -.390E-05 -.192E-04   0.128E-08 0.376E-05 0.404E-04
   -.879E-04 -.123E+02 0.248E-04   0.901E-04 0.158E+02 -.266E-04   -.484E-05 -.347E+01 -.591E-06   0.584E-05 0.144E-03 0.101E-05
   -.926E-04 0.123E+02 -.241E-04   0.975E-04 -.158E+02 0.258E-04   -.355E-05 0.347E+01 0.359E-06   0.149E-05 -.139E-03 -.711E-06
   -.690E-04 0.123E+02 -.888E-05   0.744E-04 -.158E+02 0.797E-05   -.371E-05 0.347E+01 0.301E-05   0.170E-06 -.136E-03 -.961E-06
   -.516E-04 -.123E+02 0.149E-04   0.551E-04 0.158E+02 -.147E-04   -.459E-05 -.347E+01 -.254E-05   0.273E-05 0.144E-03 0.107E-05
   0.871E-04 -.123E+02 0.240E-04   -.893E-04 0.158E+02 -.259E-04   0.490E-05 -.347E+01 -.467E-06   -.584E-05 0.144E-03 0.101E-05
   0.924E-04 0.123E+02 -.226E-04   -.972E-04 -.158E+02 0.242E-04   0.351E-05 0.347E+01 0.476E-06   -.148E-05 -.139E-03 -.715E-06
   0.686E-04 0.123E+02 -.807E-05   -.740E-04 -.158E+02 0.677E-05   0.373E-05 0.347E+01 0.343E-05   -.164E-06 -.136E-03 -.964E-06
   0.514E-04 -.123E+02 0.151E-04   -.547E-04 0.158E+02 -.147E-04   0.447E-05 -.347E+01 -.265E-05   -.274E-05 0.144E-03 0.107E-05
   0.334E-05 -.186E-03 -.333E-04   -.409E-05 0.128E-03 0.290E-04   0.792E-06 0.354E-04 0.324E-05   -.342E-08 0.413E-04 0.250E-05
   -.936E-06 -.705E-04 -.546E-04   0.628E-06 0.410E-04 0.557E-04   0.337E-06 0.136E-04 -.137E-05   -.205E-08 0.250E-04 0.300E-05
   -.383E-05 -.180E-03 0.487E-04   0.473E-05 0.129E-03 -.476E-04   -.949E-06 0.339E-04 -.451E-06   -.788E-09 0.354E-04 -.246E-05
   0.125E-05 -.885E-04 0.443E-04   -.981E-06 0.570E-04 -.435E-04   -.286E-06 0.186E-04 -.798E-06   -.211E-08 0.239E-04 -.267E-05
   -.292E-05 -.460E-04 -.124E-03   0.302E-05 0.457E-04 0.834E-04   -.106E-06 -.104E-06 0.263E-04   -.251E-08 0.243E-05 0.337E-04
   -.311E-05 -.341E-04 -.114E-03   0.298E-05 0.320E-04 0.734E-04   0.156E-06 0.875E-06 0.261E-04   -.148E-08 0.337E-05 0.322E-04
   0.248E-05 -.497E-04 0.130E-03   -.238E-05 0.503E-04 -.913E-04   -.105E-06 -.845E-06 -.277E-04   -.173E-09 0.246E-05 -.300E-04
   0.159E-05 -.313E-04 0.114E-03   -.150E-05 0.289E-04 -.735E-04   -.963E-07 0.138E-05 -.297E-04   -.113E-08 0.314E-05 -.301E-04
 -----------------------------------------------------------------------------------------------
   0.323E-06 -.211E-03 0.270E-05   -.139E-12 -.800E-13 -.350E-13   -.320E-06 0.139E-03 -.572E-05   -.167E-08 0.784E-04 0.823E-06
 
 
 POSITION                                       TOTAL-FORCE (eV/Angst)
 -----------------------------------------------------------------------------------
      0.00000      7.56868      7.57182        -0.000000      0.003950      0.006767
      7.85712      0.09289      3.93360         0.000000     -0.003925     -0.006741
      7.85712      3.92368      0.09846         0.000000     -0.003915     -0.006748
      0.00000      3.73790      3.73668        -0.000000      0.003938      0.006773
      3.92856      7.56868      0.09846         0.000000      0.003973     -0.006778
      3.92856      0.09289      3.73668        -0.000000     -0.003945      0.006751
      3.92856      3.92368      7.57182        -0.000000     -0.003938      0.006752
      3.92856      3.73790      3.93360         0.000000      0.003963     -0.006780
      7.85712      1.91539      3.83514         0.000000     -0.000025      0.000004
      0.00000      5.74618      7.67028        -0.000000     -0.000059      0.000003
      3.92856      1.91539      3.83514        -0.000000     -0.000031     -0.000004
      3.92856      5.74618      0.00000        -0.000000     -0.000056     -0.000003
      7.85712      7.66158      5.75271         0.000000      0.000003     -0.000045
      7.85712      3.83079      1.91757         0.000000      0.000003     -0.000043
      3.92856      7.66158      1.91757        -0.000000      0.000003      0.000046
      3.92856      3.83079      5.75271        -0.000000      0.000003      0.000046
      1.96428      0.05641      0.00000         0.000003      0.005567     -0.000001
      1.96428      7.60516      3.83514         0.000003     -0.005569      0.000001
      1.96428      3.77437      7.67028         0.000002     -0.005569      0.000001
      1.96428      3.88720      3.83514         0.000002      0.005567     -0.000001
      5.89284      0.05641      0.00000        -0.000003      0.005567     -0.000001
      5.89284      7.60516      3.83514        -0.000003     -0.005569      0.000001
      5.89284      3.77437      7.67028        -0.000002     -0.005569      0.000001
      5.89284      3.88720      3.83514        -0.000002      0.005567     -0.000001
      7.85712      1.91539      7.67028         0.000000      0.000019      0.000002
      7.85712      5.74618      3.83514         0.000000      0.000009      0.000003
      3.92856      1.91539      0.00000        -0.000000      0.000018     -0.000002
      3.92856      5.74618      3.83514        -0.000000      0.000011     -0.000003
      0.00000      7.66158      1.91757        -0.000000      0.000002      0.000019
      7.85712      3.83079      5.75271         0.000000      0.000002      0.000018
      3.92856      7.66158      5.75271        -0.000000      0.000002     -0.000019
      3.92856      3.83079      1.91757        -0.000000      0.000002     -0.000019
 -----------------------------------------------------------------------------------
    total drift:                                0.000000      0.000006     -0.000002


--------------------------------------------------------------------------------------------------------



  FREE ENERGIE OF THE ION-ELECTRON SYSTEM (eV)
  ---------------------------------------------------
  free  energy   TOTEN  =      -213.57619690 eV

  energy  without entropy=     -213.57619690  energy(sigma->0) =     -213.57619690
 


--------------------------------------------------------------------------------------------------------


    POTLOK:  cpu time    0.9859: real time    0.9845


--------------------------------------------------------------------------------------------------------


 stress matrix after NEB project (eV)
      0.16835      0.00000     -0.00000
     -0.00000      0.18004      0.00001
     -0.00000      0.00001      0.12067
  FORCES: max atom, RMS     0.007857    0.004803
  FORCE total and by dimension    0.027169    0.006780
  Stress total and by dimension    0.274440    0.180041
 Quasi-Newton relaxation of ions (Broydens 2nd method)
  g(Force)  = 0.356E-04   g(Stress)= 0.114E-03

 Reset! Starting new Quasi-Newton update for ions 


--------------------------------------------------------------------------------------------------------


  
 reached required accuracy - stopping structural energy minimisation
 writing wavefunctions
     LOOP+:  cpu time  197.6500: real time  200.0839
    4ORBIT:  cpu time    0.0000: real time    0.0000
 


 total charge     
 
# of ion       s       p       d       tot
------------------------------------------
    1        0.318   6.464   1.764   8.546
    2        0.318   6.464   1.764   8.546
    3        0.318   6.464   1.764   8.546
    4        0.318   6.464   1.764   8.546
    5        0.318   6.464   1.764   8.546
    6        0.318   6.464   1.764   8.546
    7        0.318   6.464   1.764   8.546
    8        0.318   6.464   1.764   8.546
    9        1.570   3.474   0.000   5.044
   10        1.570   3.474   0.000   5.044
   11        1.570   3.474   0.000   5.044
   12        1.570   3.474   0.000   5.044
   13        1.571   3.475   0.000   5.046
   14        1.571   3.475   0.000   5.046
   15        1.571   3.475   0.000   5.046
   16        1.571   3.475   0.000   5.046
   17        1.729   4.383   0.000   6.112
   18        1.729   4.383   0.000   6.112
   19        1.729   4.383   0.000   6.112
   20        1.729   4.383   0.000   6.112
   21        1.729   4.383   0.000   6.112
   22        1.729   4.383   0.000   6.112
   23        1.729   4.383   0.000   6.112
   24        1.729   4.383   0.000   6.112
   25        1.729   4.379   0.000   6.108
   26        1.729   4.379   0.000   6.108
   27        1.729   4.379   0.000   6.108
   28        1.729   4.379   0.000   6.108
   29        1.729   4.376   0.000   6.105
   30        1.729   4.376   0.000   6.105
   31        1.729   4.376   0.000   6.105
   32        1.729   4.376   0.000   6.105
--------------------------------------------------
tot         42.772 149.596  14.109 206.477
 


 magnetization (x)
 
# of ion       s       p       d       tot
------------------------------------------
    1       -0.000  -0.000  -0.000  -0.000
    2       -0.000  -0.000  -0.000  -0.000
    3       -0.000  -0.000  -0.000  -0.000
    4       -0.000  -0.000  -0.000  -0.000
    5       -0.000  -0.000   0.000   0.000
    6       -0.000  -0.000   0.000   0.000
    7       -0.000  -0.000   0.000   0.000
    8       -0.000  -0.000   0.000   0.000
    9        0.000   0.000   0.000   0.000
   10        0.000   0.000   0.000   0.000
   11        0.000  -0.000   0.000  -0.000
   12        0.000  -0.000   0.000  -0.000
   13       -0.000   0.000   0.000   0.000
   14       -0.000   0.000   0.000   0.000
   15        0.000  -0.000   0.000  -0.000
   16        0.000  -0.000   0.000  -0.000
   17       -0.000   0.000   0.000   0.000
   18       -0.000   0.000   0.000   0.000
   19       -0.000   0.000   0.000   0.000
   20       -0.000   0.000   0.000   0.000
   21        0.000   0.000   0.000   0.000
   22       -0.000   0.000   0.000   0.000
   23       -0.000   0.000   0.000   0.000
   24        0.000   0.000   0.000   0.000
   25        0.000  -0.000   0.000  -0.000
   26        0.000  -0.000   0.000  -0.000
   27       -0.000   0.000   0.000   0.000
   28       -0.000   0.000   0.000   0.000
   29        0.000  -0.000   0.000  -0.000
   30        0.000  -0.000   0.000  -0.000
   31        0.000   0.000   0.000   0.000
   32        0.000   0.000   0.000   0.000
--------------------------------------------------
tot         -0.000   0.000   0.000   0.000
 

 total amount of memory used by VASP MPI-rank0   106852. kBytes
=======================================================================

   base      :      30000. kBytes
   nonlr-proj:       8568. kBytes
   fftplans  :       8423. kBytes
   grid      :       8783. kBytes
   one-center:        124. kBytes
   wavefun   :      50954. kBytes
 
  
  
 General timing and accounting informations for this job:
 ========================================================
  
                  Total CPU time used (sec):      247.500
                            User time (sec):      237.733
                          System time (sec):        9.768
                         Elapsed time (sec):      264.031
  
                   Maximum memory used (kb):      222920.
                   Average memory used (kb):           0.
  
                          Minor page faults:       102096
                          Major page faults:            2
                 Voluntary context switches:        66929
