 vasp.5.4.4.18Apr17-6-g9f103f2a35 (build Jul 16 2019 12:12:28) complex          
  
 executed on             LinuxIFC date 2020.01.06  10:30:38
 running on   96 total cores
 distrk:  each k-point on   96 cores,    1 groups
 distr:  one band on NCORES_PER_BAND=   8 cores,   12 groups


--------------------------------------------------------------------------------------------------------


 INCAR:
 POTCAR:    PAW_PBE Li_sv 10Sep2004               
 POTCAR:    PAW_PBE Ti_pv 07Sep2000               
 POTCAR:    PAW_PBE O 08Apr2002                   
 POTCAR:    PAW_PBE F 08Apr2002                   
 POTCAR:    PAW_PBE Li_sv 10Sep2004               
   VRHFIN =Li: 1s2s2p                                                           
   LEXCH  = PE                                                                  
   EATOM  =   202.7858 eV,   14.9043 Ry                                         
                                                                                
   TITEL  = PAW_PBE Li_sv 10Sep2004                                             
   LULTRA =        F    use ultrasoft PP ?                                      
   IUNSCR =        0    unscreen: 0-lin 1-nonlin 2-no                           
   RPACOR =    0.000    partial core radius                                     
   POMASS =    7.010; ZVAL   =    3.000    mass and valenz                      
   RCORE  =    1.700    outmost cutoff radius                                   
   RWIGS  =    2.050; RWIGS  =    1.085    wigner-seitz radius (au A)           
   ENMAX  =  499.034; ENMIN  =  374.276 eV                                      
   ICORE  =        2    local potential                                         
   LCOR   =        T    correct aug charges                                     
   LPAW   =        T    paw PP                                                  
   EAUG   =  628.945                                                            
   RMAX   =    1.732    core radius for proj-oper                               
   RAUG   =    1.300    factor for augmentation sphere                          
   RDEP   =    1.728    radius for radial grids                                 
   RDEPT  =    1.329    core radius for aug-charge                              
                                                                                
   Atomic configuration                                                         
    4 entries                                                                   
     n  l   j            E        occ.                                          
     1  0  0.50       -51.8549   2.0000                                         
     2  0  0.50        -2.8742   1.0000                                         
     2  1  0.50        -1.3606   0.0000                                         
     3  2  1.50        -1.3606   0.0000                                         
   Description                                                                  
     l       E           TYP  RCUT    TYP  RCUT                                 
     0    -51.8548813     23  1.400                                             
     0     -2.8742052     23  1.700                                             
     1     -1.3605826     23  1.400                                             
     2     -1.3605826     23  1.400                                             
  local pseudopotential read in
  atomic valenz-charges read in
  non local Contribution for L=           0  read in
    real space projection operators read in
  non local Contribution for L=           0  read in
    real space projection operators read in
  non local Contribution for L=           1  read in
    real space projection operators read in
    PAW grid and wavefunctions read in
 
   number of l-projection  operators is LMAX  =           3
   number of lm-projection operators is LMMAX =           5
 
 POTCAR:    PAW_PBE Ti_pv 07Sep2000               
   VRHFIN =Ti: d3 s1                                                            
   LEXCH  = PE                                                                  
   EATOM  =  1042.5995 eV,   76.6289 Ry                                         
                                                                                
   TITEL  = PAW_PBE Ti_pv 07Sep2000                                             
   LULTRA =        F    use ultrasoft PP ?                                      
   IUNSCR =        1    unscreen: 0-lin 1-nonlin 2-no                           
   RPACOR =    2.200    partial core radius                                     
   POMASS =   47.880; ZVAL   =   10.000    mass and valenz                      
   RCORE  =    2.500    outmost cutoff radius                                   
   RWIGS  =    2.500; RWIGS  =    1.323    wigner-seitz radius (au A)           
   ENMAX  =  222.335; ENMIN  =  166.751 eV                                      
   RCLOC  =    1.701    cutoff for local pot                                    
   LCOR   =        T    correct aug charges                                     
   LPAW   =        T    paw PP                                                  
   EAUG   =  482.848                                                            
   DEXC   =    0.000                                                            
   RMAX   =    2.564    core radius for proj-oper                               
   RAUG   =    1.300    factor for augmentation sphere                          
   RDEP   =    2.538    radius for radial grids                                 
   RDEPT  =    1.952    core radius for aug-charge                              
                                                                                
   Atomic configuration                                                         
    8 entries                                                                   
     n  l   j            E        occ.                                          
     1  0  0.50     -4865.3608   2.0000                                         
     2  0  0.50      -533.1368   2.0000                                         
     2  1  1.50      -440.5031   6.0000                                         
     3  0  0.50       -59.3186   2.0000                                         
     3  1  1.50       -35.7012   6.0000                                         
     3  2  2.50        -1.9157   3.0000                                         
     4  0  0.50        -3.7291   1.0000                                         
     4  3  2.50        -1.3606   0.0000                                         
   Description                                                                  
     l       E           TYP  RCUT    TYP  RCUT                                 
     1    -35.7012140     23  2.300                                             
     1     -1.3605826     23  2.300                                             
     2     -1.9156996     23  2.500                                             
     2     -0.4063033     23  2.500                                             
     0     -3.7290856     23  2.500                                             
     0     20.4087390     23  2.500                                             
  local pseudopotential read in
  partial core-charges read in
  partial kinetic energy density read in
  atomic valenz-charges read in
  non local Contribution for L=           1  read in
    real space projection operators read in
  non local Contribution for L=           1  read in
    real space projection operators read in
  non local Contribution for L=           2  read in
    real space projection operators read in
  non local Contribution for L=           2  read in
    real space projection operators read in
  non local Contribution for L=           0  read in
    real space projection operators read in
  non local Contribution for L=           0  read in
    real space projection operators read in
    PAW grid and wavefunctions read in
 
   number of l-projection  operators is LMAX  =           6
   number of lm-projection operators is LMMAX =          18
 
 POTCAR:    PAW_PBE O 08Apr2002                   
   VRHFIN =O: s2p4                                                              
   LEXCH  = PE                                                                  
   EATOM  =   432.3788 eV,   31.7789 Ry                                         
                                                                                
   TITEL  = PAW_PBE O 08Apr2002                                                 
   LULTRA =        F    use ultrasoft PP ?                                      
   IUNSCR =        1    unscreen: 0-lin 1-nonlin 2-no                           
   RPACOR =    1.200    partial core radius                                     
   POMASS =   16.000; ZVAL   =    6.000    mass and valenz                      
   RCORE  =    1.520    outmost cutoff radius                                   
   RWIGS  =    1.550; RWIGS  =    0.820    wigner-seitz radius (au A)           
   ENMAX  =  400.000; ENMIN  =  300.000 eV                                      
   ICORE  =        2    local potential                                         
   LCOR   =        T    correct aug charges                                     
   LPAW   =        T    paw PP                                                  
   EAUG   =  605.392                                                            
   DEXC   =    0.000                                                            
   RMAX   =    1.553    core radius for proj-oper                               
   RAUG   =    1.300    factor for augmentation sphere                          
   RDEP   =    1.550    radius for radial grids                                 
   RDEPT  =    1.329    core radius for aug-charge                              
                                                                                
   Atomic configuration                                                         
    4 entries                                                                   
     n  l   j            E        occ.                                          
     1  0  0.50      -514.6923   2.0000                                         
     2  0  0.50       -23.9615   2.0000                                         
     2  1  0.50        -9.0305   4.0000                                         
     3  2  1.50        -9.5241   0.0000                                         
   Description                                                                  
     l       E           TYP  RCUT    TYP  RCUT                                 
     0    -23.9615318     23  1.200                                             
     0     -9.5240782     23  1.200                                             
     1     -9.0304911     23  1.520                                             
     1      8.1634956     23  1.520                                             
     2     -9.5240782      7  1.500                                             
  local pseudopotential read in
  partial core-charges read in
  partial kinetic energy density read in
  kinetic energy density of atom read in
  atomic valenz-charges read in
  non local Contribution for L=           0  read in
    real space projection operators read in
  non local Contribution for L=           0  read in
    real space projection operators read in
  non local Contribution for L=           1  read in
    real space projection operators read in
  non local Contribution for L=           1  read in
    real space projection operators read in
    PAW grid and wavefunctions read in
 
   number of l-projection  operators is LMAX  =           4
   number of lm-projection operators is LMMAX =           8
 
 POTCAR:    PAW_PBE F 08Apr2002                   
   VRHFIN =F: s2p5                                                              
   LEXCH  = PE                                                                  
   EATOM  =   659.6475 eV,   48.4827 Ry                                         
                                                                                
   TITEL  = PAW_PBE F 08Apr2002                                                 
   LULTRA =        F    use ultrasoft PP ?                                      
   IUNSCR =        1    unscreen: 0-lin 1-nonlin 2-no                           
   RPACOR =    1.200    partial core radius                                     
   POMASS =   18.998; ZVAL   =    7.000    mass and valenz                      
   RCORE  =    1.520    outmost cutoff radius                                   
   RWIGS  =    1.500; RWIGS  =    0.794    wigner-seitz radius (au A)           
   ENMAX  =  400.000; ENMIN  =  300.000 eV                                      
   ICORE  =        2    local potential                                         
   LCOR   =        T    correct aug charges                                     
   LPAW   =        T    paw PP                                                  
   EAUG   =  613.614                                                            
   RMAX   =    1.555    core radius for proj-oper                               
   RAUG   =    1.300    factor for augmentation sphere                          
   RDEP   =    1.539    radius for radial grids                                 
   RDEPT  =    1.299    core radius for aug-charge                              
                                                                                
   Atomic configuration                                                         
    4 entries                                                                   
     n  l   j            E        occ.                                          
     1  0  0.50      -663.3661   2.0000                                         
     2  0  0.50       -29.8995   2.0000                                         
     2  1  0.50       -11.1114   5.0000                                         
     3  2  1.50       -10.8847   0.0000                                         
   Description                                                                  
     l       E           TYP  RCUT    TYP  RCUT                                 
     0    -29.8995018     23  1.200                                             
     0     -9.5240782     23  1.200                                             
     1    -11.1113914     23  1.520                                             
     1      1.3605826     23  1.520                                             
     2    -10.8846608      7  1.500                                             
  local pseudopotential read in
  partial core-charges read in
  partial kinetic energy density read in
  atomic valenz-charges read in
  non local Contribution for L=           0  read in
    real space projection operators read in
  non local Contribution for L=           0  read in
    real space projection operators read in
  non local Contribution for L=           1  read in
    real space projection operators read in
  non local Contribution for L=           1  read in
    real space projection operators read in
    PAW grid and wavefunctions read in
 
   number of l-projection  operators is LMAX  =           4
   number of lm-projection operators is LMMAX =           8
 
 Optimization of the real space projectors (new method)

 maximal supplied QI-value         = 22.11
 optimisation between [QCUT,QGAM] = [ 11.28, 22.77] = [ 35.61,145.23] Ry 
 Optimized for a Real-space Cutoff    1.31 Angstroem

   l    n(q)    QCUT    max X(q) W(low)/X(q) W(high)/X(q)  e(spline) 
   0      9    11.276    10.506    0.19E-04    0.17E-04    0.32E-07
   0      9    11.276     8.367    0.38E-04    0.40E-04    0.65E-07
   1      8    11.276     8.983    0.55E-04    0.98E-04    0.20E-06
 Optimization of the real space projectors (new method)

 maximal supplied QI-value         = 15.12
 optimisation between [QCUT,QGAM] = [ 11.34, 22.83] = [ 36.00,145.93] Ry 
 Optimized for a Real-space Cutoff    1.56 Angstroem

   l    n(q)    QCUT    max X(q) W(low)/X(q) W(high)/X(q)  e(spline) 
   1     10    11.338     4.216    0.27E-04    0.12E-04    0.66E-07
   1     10    11.338     5.422    0.81E-04    0.24E-04    0.19E-06
   2     10    11.338    72.084    0.64E-04    0.21E-03    0.51E-06
   2     10    11.338    65.965    0.63E-04    0.21E-03    0.50E-06
   0     11    11.338    41.531    0.33E-04    0.54E-04    0.13E-06
   0     11    11.338    16.290    0.26E-04    0.41E-04    0.11E-06
 Optimization of the real space projectors (new method)

 maximal supplied QI-value         = 24.76
 optimisation between [QCUT,QGAM] = [ 11.39, 22.77] = [ 36.31,145.25] Ry 
 Optimized for a Real-space Cutoff    1.20 Angstroem

   l    n(q)    QCUT    max X(q) W(low)/X(q) W(high)/X(q)  e(spline) 
   0      8    11.387    20.381    0.89E-04    0.31E-03    0.27E-06
   0      8    11.387    15.268    0.93E-04    0.32E-03    0.29E-06
   1      8    11.387     5.964    0.53E-04    0.28E-03    0.29E-06
   1      8    11.387     5.382    0.37E-04    0.22E-03    0.26E-06
 Optimization of the real space projectors (new method)

 maximal supplied QI-value         = 24.76
 optimisation between [QCUT,QGAM] = [ 11.39, 22.77] = [ 36.31,145.25] Ry 
 Optimized for a Real-space Cutoff    1.20 Angstroem

   l    n(q)    QCUT    max X(q) W(low)/X(q) W(high)/X(q)  e(spline) 
   0      8    11.387    14.049    0.69E-04    0.23E-03    0.18E-06
   0      8    11.387     8.945    0.88E-04    0.30E-03    0.26E-06
   1      8    11.387     7.086    0.62E-04    0.27E-03    0.27E-06
   1      8    11.387     6.747    0.46E-04    0.23E-03    0.25E-06

 ----------------------------------------------------------------------------- 
|                                                                             |
|  ADVICE TO THIS USER RUNNING 'VASP/VAMP'   (HEAR YOUR MASTER'S VOICE ...):  |
|                                                                             |
|      You enforced a specific xc-type in the INCAR file,                     |
|      a different type was found on the POTCAR file                          |
|          I HOPE YOU KNOW, WHAT YOU ARE  DOING                               |
|                                                                             |
 ----------------------------------------------------------------------------- 

  PAW_PBE Li_sv 10Sep2004               :
 energy of atom  1       EATOM= -202.7858
 kinetic energy error for atom=    0.0143 (will be added to EATOM!!)
  PAW_PBE Ti_pv 07Sep2000               :
 energy of atom  2       EATOM=-1042.5995
 kinetic energy error for atom=    0.0024 (will be added to EATOM!!)
  PAW_PBE O 08Apr2002                   :
 energy of atom  3       EATOM= -432.3788
 kinetic energy error for atom=    0.0224 (will be added to EATOM!!)
  PAW_PBE F 08Apr2002                   :
 energy of atom  4       EATOM= -659.6475
 kinetic energy error for atom=    0.0354 (will be added to EATOM!!)
 
 
 POSCAR: config 21                               
  positions in direct lattice
  velocities in cartesian coordinates
 exchange correlation table for  LEXCH =       14
   RHO(1)=    0.500       N(1)  =     2000
   RHO(2)=  100.500       N(2)  =     4000

 VTST: version 3.2, (02/03/18)

 CHAIN: initializing optimizer
 
 OPT: Using VASP QUASI-newton optimizer
 CHAIN: Read ICHAIN            0
 
 POSCAR: config 21                               
  positions in direct lattice
  velocities in cartesian coordinates
 


--------------------------------------------------------------------------------------------------------


 ion  position               nearest neighbor table
   1  0.375  0.377  0.050- 192 1.90 245 1.95 120 1.98 109 1.99  22 2.73  50 2.86   8 2.88
   2  0.995  0.995  0.994- 118 1.86  68 1.88 103 1.89 171 2.02 212 2.03 130 2.05
   3  1.000  0.992  0.493- 119 1.81  67 1.82 172 1.94 193 1.96 131 2.01 213 2.08
   4  0.004  0.495  0.998-  89 1.84 117 1.85 138 1.93 132 1.98 194 2.00 214 2.02
   5  0.994  0.503  0.507-  66 1.83 104 1.84 215 1.93 223 2.00 173 2.01 137 2.03
   6  0.494  0.994  0.000- 101 1.82 121 1.84 140 1.95 133 1.97 174 2.03 216 2.03
   7  0.501  0.008  0.500- 112 1.77 191 1.91 134 1.92 139 1.92 175 1.93 225 2.02
   8  0.508  0.497  0.997-  90 1.85  70 1.88 120 1.88 217 2.03 135 2.05 192 2.09   1 2.88
   9  0.492  0.499  0.496- 102 1.80  69 1.86 224 1.97 218 1.99 136 2.01 176 2.06
  10  0.007  0.003  0.256-  91 1.83  67 1.86 219 1.95 227 1.97 130 2.00 197 2.06
  11  0.001  0.008  0.757-  68 1.79 113 1.84 177 1.95 198 1.99 228 2.04 131 2.06
  12  0.994  0.494  0.252- 107 1.82 122 1.86 137 1.93 132 1.97 220 2.00 178 2.02
  13  0.993  0.499  0.742- 108 1.82  66 1.83 226 1.93 221 1.96 138 2.02 179 2.04
  14  0.506  0.009  0.251- 114 1.82  92 1.84 133 1.93 139 1.97 195 2.00 231 2.05
  15  0.493  0.005  0.753- 105 1.80 115 1.84 140 1.93 134 2.00 232 2.01 180 2.03
  16  0.493  0.497  0.258-  69 1.82 106 1.84 229 1.96 222 2.00 135 2.02 181 2.04
  17  0.501  0.504  0.759-  70 1.81 116 1.87 182 1.95 196 1.97 230 2.03 136 2.07
  18  0.993  0.257  0.001- 117 1.83 110 1.86 183 1.95 141 1.96 146 1.97 212 2.02
  19  0.999  0.248  0.491-  74 1.77 213 1.91 184 1.93 202 1.93 223 1.94 142 2.01
  20  0.998  0.758  0.006- 118 1.81  71 1.85 203 1.95 185 1.97 148 2.05 214 2.06
  21  0.997  0.757  0.506- 119 1.83  72 1.83 204 1.94 186 1.96 147 2.02 215 2.02
  22  0.495  0.256  0.002- 109 1.77 120 1.88 150 1.96 143 1.99 216 2.04 187 2.04   1 2.73
  23  0.509  0.245  0.499-  93 1.80 112 1.90 144 1.92 149 1.94 224 1.97 199 2.00
  24  0.507  0.756  1.000-  94 1.83 121 1.83 152 1.94 145 1.99 217 2.01 200 2.02
  25  0.507  0.753  0.510-  73 1.79  95 1.83 225 1.96 218 1.96 201 2.01 151 2.07
  26  0.000  0.258  0.255- 122 1.79  74 1.88 188 1.95 209 1.95 141 1.99 219 2.03
  27  0.006  0.242  0.747- 113 1.80  96 1.83 142 1.96 146 1.97 226 2.05 210 2.05
  28  0.007  0.749  0.243-  71 1.82  97 1.83 220 1.95 227 1.98 147 2.04 211 2.06
  29  0.993  0.751  0.743- 111 1.83  72 1.84 228 1.93 221 1.98 189 2.02 148 2.02
  30  0.509  0.242  0.252-  98 1.82 114 1.82 143 1.93 149 1.96 229 2.02 205 2.02
  31  0.506  0.243  0.751-  99 1.84 115 1.84 150 1.93 144 1.98 206 2.01 230 2.02
  32  0.507  0.752  0.253- 100 1.79 151 1.92 231 1.93 145 1.94 222 1.94 207 2.00
  33  0.502  0.742  0.744- 116 1.81  73 1.84 190 1.93 208 1.97 152 2.02 232 2.06
  34  0.256  0.997  0.006-  75 1.85 101 1.87 233 1.91 246 1.93 171 2.02 157 2.05
  35  0.250  0.994  0.506- 128 1.83  76 1.84 172 1.94 191 1.99 234 2.02 156 2.02
  36  0.241  0.509  0.998- 123 1.81  89 1.82 159 1.93 153 1.99 245 2.01 192 2.09
  37  0.254  0.495  0.507-  77 1.85 102 1.88 127 1.88 173 2.03 235 2.04 158 2.05
  38  0.757  0.001  0.994- 103 1.79  81 1.87 236 1.96 249 1.96 174 2.04 154 2.05
  39  0.750  0.007  0.494-  80 1.83 124 1.83 193 1.93 175 1.99 155 1.99 250 2.02
  40  0.744  0.501  0.005-  90 1.80  78 1.86 237 1.95 247 1.95 194 2.02 161 2.03
  41  0.755  0.498  0.506-  79 1.84 104 1.85 248 1.95 238 1.98 176 2.01 160 2.02
  42  0.245  0.003  0.244-  75 1.83  91 1.85 239 1.94 252 1.97 156 2.04 195 2.06
  43  0.257  0.997  0.744-  76 1.84 105 1.84 253 1.93 240 1.97 157 2.02 177 2.02
  44  0.255  0.492  0.253- 129 1.81 106 1.85 158 1.93 153 1.98 178 2.04 241 2.05
  45  0.247  0.506  0.741-  77 1.79 125 1.83 179 1.95 196 1.97 251 2.02 159 2.07
  46  0.745  0.001  0.256-  92 1.85  80 1.86 256 1.95 242 1.95 154 1.99 197 1.99
  47  0.748  0.006  0.756-  81 1.82 126 1.83 180 1.94 198 1.97 257 2.04 155 2.06
  48  0.756  0.499  0.243-  78 1.82 107 1.85 243 1.95 254 1.96 181 2.02 160 2.04
  49  0.757  0.498  0.743- 108 1.83  79 1.84 255 1.93 244 1.97 161 2.03 182 2.03
  50  0.250  0.248  0.003-  82 1.94 233 2.00 168 2.00 109 2.02 183 2.04 245 2.05   1 2.86
  51  0.253  0.257  0.505- 127 1.81  83 1.85 199 1.96 167 2.00 184 2.01 234 2.05
  52  0.252  0.743  0.994- 123 1.82  86 1.83 200 1.94 185 1.96 246 2.01 162 2.04
  53  0.252  0.755  0.493-  85 1.83 128 1.86 201 1.95 186 1.97 235 2.00 163 2.04
  54  0.756  0.251  0.008- 110 1.80  84 1.86 236 1.94 247 1.95 187 2.00 170 2.04
  55  0.743  0.243  0.498- 124 1.82  93 1.84 169 1.93 164 1.95 248 2.02 202 2.03
  56  0.742  0.750  0.994-  94 1.82  88 1.83 237 1.94 249 1.95 203 2.01 165 2.04
  57  0.741  0.752  0.494-  95 1.81  87 1.86 250 1.94 238 1.96 166 2.01 204 2.03
  58  0.251  0.258  0.244-  82 1.77 129 1.85 205 1.98 188 2.00 239 2.03 167 2.06
  59  0.244  0.251  0.743-  83 1.83  96 1.85 251 1.94 240 1.98 168 2.02 206 2.05
  60  0.244  0.748  0.256-  97 1.83  85 1.84 241 1.93 252 1.98 162 2.02 207 2.06
  61  0.248  0.742  0.757- 125 1.81  86 1.84 189 1.93 208 1.98 163 2.03 253 2.04
  62  0.743  0.251  0.243-  84 1.80  98 1.83 254 1.94 242 1.95 209 2.03 169 2.06
  63  0.744  0.242  0.751- 126 1.82  99 1.84 170 1.93 164 2.00 210 2.01 255 2.04
  64  0.745  0.750  0.257-  87 1.81 100 1.90 243 1.94 256 1.95 211 1.98 165 2.02
  65  0.757  0.751  0.757- 111 1.82  88 1.84 257 1.93 244 1.97 190 2.03 166 2.05
  66  0.009  0.502  0.625-  13 1.83   5 1.83
  67  0.995  0.006  0.376-   3 1.82  10 1.86
  68  0.999  0.002  0.873-  11 1.79   2 1.88
  69  0.498  0.491  0.376-  16 1.82   9 1.86
  70  0.493  0.495  0.876-  17 1.81   8 1.88
  71  0.998  0.746  0.126-  28 1.82  20 1.85
  72  0.001  0.746  0.624-  21 1.83  29 1.84
  73  0.501  0.753  0.625-  25 1.79  33 1.84
  74  0.994  0.247  0.376-  19 1.77  26 1.88
  75  0.255  0.003  0.125-  42 1.83  34 1.85
  76  0.254  0.003  0.625-  43 1.84  35 1.84
  77  0.238  0.495  0.626-  45 1.79  37 1.85
  78  0.750  0.492  0.126-  48 1.82  40 1.86
  79  0.745  0.494  0.624-  49 1.84  41 1.84
  80  0.751  0.999  0.376-  39 1.83  46 1.86
  81  0.746  0.998  0.874-  47 1.82  38 1.87
  82  0.244  0.255  0.129-  58 1.77  50 1.94
  83  0.253  0.250  0.625-  59 1.83  51 1.85
  84  0.740  0.258  0.127-  62 1.80  54 1.86
  85  0.254  0.746  0.375-  53 1.83  60 1.84
  86  0.251  0.752  0.875-  52 1.83  61 1.84
  87  0.751  0.752  0.374-  64 1.81  57 1.86
  88  0.747  0.753  0.876-  56 1.83  65 1.84
  89  0.123  0.503  0.994-  36 1.82   4 1.84
  90  0.628  0.507  0.997-  40 1.80   8 1.85
  91  0.125  0.005  0.252-  10 1.83  42 1.85
  92  0.625  0.003  0.250-  14 1.84  46 1.85
  93  0.625  0.256  0.495-  23 1.80  55 1.84
  94  0.625  0.741  0.005-  56 1.82  24 1.83
  95  0.624  0.762  0.497-  57 1.81  25 1.83
  96  0.124  0.250  0.749-  27 1.83  59 1.85
  97  0.125  0.750  0.252-  60 1.83  28 1.83
  98  0.627  0.244  0.266-  30 1.82  62 1.83
  99  0.625  0.252  0.748-  31 1.84  63 1.84
 100  0.623  0.754  0.251-  32 1.79  64 1.90
 101  0.376  0.997  0.993-   6 1.82  34 1.87
 102  0.375  0.505  0.506-   9 1.80  37 1.88
 103  0.872  0.002  0.000-  38 1.79   2 1.89
 104  0.875  0.501  0.501-   5 1.84  41 1.85
 105  0.376  0.996  0.757-  15 1.80  43 1.84
 106  0.375  0.494  0.246-  16 1.84  44 1.85
 107  0.876  0.497  0.252-  12 1.82  48 1.85
 108  0.875  0.507  0.745-  13 1.82  49 1.83
 109  0.381  0.253  0.013-  22 1.77   1 1.99  50 2.02
 110  0.872  0.246  0.007-  54 1.80  18 1.86
 111  0.875  0.744  0.750-  65 1.82  29 1.83
 112  0.510  0.122  0.494-   7 1.77  23 1.90
 113  0.995  0.126  0.743-  27 1.80  11 1.84
 114  0.494  0.125  0.265-  14 1.82  30 1.82
 115  0.500  0.123  0.750-  15 1.84  31 1.84
 116  0.501  0.625  0.751-  33 1.81  17 1.87
 117  0.996  0.376  0.005-  18 1.83   4 1.85
 118  0.001  0.875  0.001-  20 1.81   2 1.86
 119  0.998  0.875  0.498-   3 1.81  21 1.83
 120  0.499  0.377  0.015-  22 1.88   8 1.88   1 1.98
 121  0.506  0.875  0.006-  24 1.83   6 1.84
 122  0.008  0.374  0.247-  26 1.79  12 1.86
 123  0.256  0.626  0.004-  36 1.81  52 1.82
 124  0.743  0.125  0.504-  55 1.82  39 1.83
 125  0.249  0.624  0.750-  61 1.81  45 1.83
 126  0.752  0.124  0.745-  63 1.82  47 1.83
 127  0.251  0.374  0.493-  51 1.81  37 1.88
 128  0.251  0.876  0.500-  35 1.83  53 1.86
 129  0.242  0.376  0.261-  44 1.81  58 1.85
 130  1.000  0.002  0.127-  10 2.00   2 2.05
 131  0.005  0.997  0.623-   3 2.01  11 2.06
 132  0.001  0.509  0.125-  12 1.97   4 1.98
 133  0.493  0.010  0.127-  14 1.93   6 1.97
 134  0.497  0.996  0.623-   7 1.92  15 2.00
 135  0.505  0.512  0.128-  16 2.02   8 2.05
 136  0.509  0.501  0.625-   9 2.01  17 2.07
 137  0.003  0.495  0.376-  12 1.93   5 2.03
 138  0.994  0.497  0.873-   4 1.93  13 2.02
 139  0.504  0.988  0.377-   7 1.92  14 1.97
 140  0.516  0.999  0.876-  15 1.93   6 1.95
 141  0.007  0.246  0.127-  18 1.96  26 1.99
 142  0.999  0.259  0.621-  27 1.96  19 2.01
 143  0.517  0.235  0.128-  30 1.93  22 1.99
 144  0.495  0.245  0.623-  23 1.92  31 1.98
 145  0.495  0.743  0.128-  32 1.94  24 1.99
 146  0.992  0.250  0.874-  18 1.97  27 1.97
 147  0.994  0.751  0.375-  21 2.02  28 2.04
 148  0.002  0.751  0.874-  29 2.02  20 2.05
 149  0.492  0.266  0.376-  23 1.94  30 1.96
 150  0.499  0.255  0.875-  31 1.93  22 1.96
 151  0.493  0.756  0.376-  32 1.92  25 2.07
 152  0.500  0.752  0.875-  24 1.94  33 2.02
 153  0.243  0.492  0.125-  44 1.98  36 1.99
 154  0.749  0.005  0.127-  46 1.99  38 2.05
 155  0.745  0.996  0.623-  39 1.99  47 2.06
 156  0.253  0.002  0.376-  35 2.02  42 2.04
 157  0.243  0.990  0.874-  43 2.02  34 2.05
 158  0.251  0.515  0.376-  44 1.93  37 2.05
 159  0.261  0.500  0.875-  36 1.93  45 2.07
 160  0.748  0.507  0.375-  41 2.02  48 2.04
 161  0.755  0.505  0.874-  40 2.03  49 2.03
 162  0.253  0.755  0.125-  60 2.02  52 2.04
 163  0.249  0.751  0.625-  61 2.03  53 2.04
 164  0.751  0.261  0.623-  55 1.95  63 2.00
 165  0.753  0.747  0.126-  64 2.02  56 2.04
 166  0.748  0.748  0.625-  57 2.01  65 2.05
 167  0.252  0.242  0.376-  51 2.00  58 2.06
 168  0.254  0.252  0.873-  50 2.00  59 2.02
 169  0.764  0.243  0.375-  55 1.93  62 2.06
 170  0.753  0.245  0.876-  63 1.93  54 2.04
 171  0.125  0.000  0.002-   2 2.02  34 2.02
 172  0.125  0.006  0.497-   3 1.94  35 1.94
 173  0.124  0.502  0.491-   5 2.01  37 2.03
 174  0.625  0.001  0.009-   6 2.03  38 2.04
 175  0.624  0.983  0.502-   7 1.93  39 1.99
 176  0.625  0.493  0.497-  41 2.01   9 2.06
 177  0.127  0.002  0.748-  11 1.95  43 2.02
 178  0.124  0.509  0.250-  12 2.02  44 2.04
 179  0.123  0.494  0.765-  45 1.95  13 2.04
 180  0.623  0.996  0.741-  47 1.94  15 2.03
 181  0.626  0.499  0.252-  48 2.02  16 2.04
 182  0.626  0.493  0.758-  17 1.95  49 2.03
 183  0.119  0.251  0.992-  18 1.95  50 2.04
 184  0.124  0.245  0.500-  19 1.93  51 2.01
 185  0.125  0.744  0.002-  52 1.96  20 1.97
 186  0.124  0.749  0.496-  21 1.96  53 1.97
 187  0.627  0.254  0.991-  54 2.00  22 2.04
 188  0.124  0.236  0.258-  26 1.95  58 2.00
 189  0.123  0.753  0.751-  61 1.93  29 2.02
 190  0.626  0.753  0.750-  33 1.93  65 2.03
 191  0.377  0.007  0.496-   7 1.91  35 1.99
 192  0.374  0.495  0.015-   1 1.90   8 2.09  36 2.09
 193  0.875  0.006  0.510-  39 1.93   3 1.96
 194  0.875  0.500  0.000-   4 2.00  40 2.02
 195  0.377  0.995  0.256-  14 2.00  42 2.06
 196  0.375  0.498  0.740-  17 1.97  45 1.97
 197  0.874  0.998  0.247-  46 1.99  10 2.06
 198  0.874  0.993  0.742-  47 1.97  11 1.99
 199  0.379  0.242  0.497-  51 1.96  23 2.00
 200  0.377  0.758  0.001-  52 1.94  24 2.02
 201  0.377  0.743  0.503-  53 1.95  25 2.01
 202  0.874  0.251  0.506-  19 1.93  55 2.03
 203  0.872  0.755  0.998-  20 1.95  56 2.01
 204  0.872  0.744  0.503-  21 1.94  57 2.03
 205  0.380  0.260  0.245-  58 1.98  30 2.02
 206  0.376  0.250  0.752-  31 2.01  59 2.05
 207  0.377  0.750  0.248-  32 2.00  60 2.06
 208  0.375  0.755  0.750-  33 1.97  61 1.98
 209  0.874  0.258  0.243-  26 1.95  62 2.03
 210  0.874  0.255  0.746-  63 2.01  27 2.05
 211  0.873  0.748  0.249-  64 1.98  28 2.06
 212  0.003  0.126  0.001-  18 2.02   2 2.03
 213  0.996  0.126  0.510-  19 1.91   3 2.08
 214  0.994  0.625  0.994-   4 2.02  20 2.06
 215  0.001  0.626  0.492-   5 1.93  21 2.02
 216  0.506  0.124  0.995-   6 2.03  22 2.04
 217  0.489  0.627  0.998-  24 2.01   8 2.03
 218  0.509  0.626  0.496-  25 1.96   9 1.99
 219  0.990  0.128  0.246-  10 1.95  26 2.03
 220  0.998  0.623  0.258-  28 1.95  12 2.00
 221  0.010  0.624  0.756-  13 1.96  29 1.98
 222  0.501  0.626  0.260-  32 1.94  16 2.00
 223  0.004  0.374  0.498-  19 1.94   5 2.00
 224  0.493  0.372  0.511-  23 1.97   9 1.97
 225  0.487  0.878  0.500-  25 1.96   7 2.02
 226  0.996  0.374  0.751-  13 1.93  27 2.05
 227  0.997  0.876  0.251-  10 1.97  28 1.98
 228  0.000  0.876  0.748-  29 1.93  11 2.04
 229  0.506  0.372  0.236-  16 1.96  30 2.02
 230  0.497  0.373  0.743-  31 2.02  17 2.03
 231  0.497  0.876  0.244-  32 1.93  14 2.05
 232  0.503  0.875  0.754-  15 2.01  33 2.06
 233  0.247  0.119  0.990-  34 1.91  50 2.00
 234  0.250  0.124  0.498-  35 2.02  51 2.05
 235  0.246  0.627  0.507-  53 2.00  37 2.04
 236  0.741  0.126  0.002-  54 1.94  38 1.96
 237  0.761  0.626  0.003-  56 1.94  40 1.95
 238  0.743  0.625  0.501-  57 1.96  41 1.98
 239  0.262  0.127  0.252-  42 1.94  58 2.03
 240  0.253  0.124  0.758-  43 1.97  59 1.98
 241  0.253  0.624  0.240-  60 1.93  44 2.05
 242  0.760  0.126  0.249-  62 1.95  46 1.95
 243  0.747  0.625  0.248-  64 1.94  48 1.95
 244  0.739  0.625  0.748-  65 1.97  49 1.97
 245  0.259  0.380  1.000-   1 1.95  36 2.01  50 2.05
 246  0.243  0.873  0.004-  34 1.93  52 2.01
 247  0.752  0.375  0.989-  54 1.95  40 1.95
 248  0.754  0.372  0.489-  41 1.95  55 2.02
 249  0.745  0.875  0.009-  56 1.95  38 1.96
 250  0.762  0.876  0.504-  57 1.94  39 2.02
 251  0.253  0.376  0.757-  59 1.94  45 2.02
 252  0.253  0.876  0.252-  42 1.97  60 1.98
 253  0.245  0.873  0.745-  43 1.93  61 2.04
 254  0.747  0.374  0.265-  62 1.94  48 1.96
 255  0.754  0.374  0.758-  49 1.93  63 2.04
 256  0.753  0.875  0.242-  64 1.95  46 1.95
 257  0.750  0.875  0.743-  65 1.93  47 2.04
 

IMPORTANT INFORMATION: All symmetrisations will be switched off!
NOSYMM: (Re-)initialisation of all symmetry stuff for point group C_1.

 
 
 KPOINTS: Title                                   

Automatic generation of k-mesh.
Space group operators:
 irot       det(A)        alpha          n_x          n_y          n_z        tau_x        tau_y        tau_z
    1     1.000000     0.000001     1.000000     0.000000     0.000000     0.000000     0.000000     0.000000
 
 Subroutine IBZKPT returns following result:
 ===========================================
 
 Found      4 irreducible k-points:
 
 Following reciprocal coordinates:
            Coordinates               Weight
  0.250000  0.250000  0.250000      2.000000
 -0.250000  0.250000  0.250000      2.000000
  0.250000 -0.250000  0.250000      2.000000
 -0.250000 -0.250000  0.250000      2.000000
 
 Following cartesian coordinates:
            Coordinates               Weight
  0.016206  0.016206  0.016206      2.000000
 -0.016206  0.016206  0.016206      2.000000
  0.016206 -0.016206  0.016206      2.000000
 -0.016206 -0.016206  0.016206      2.000000
 


--------------------------------------------------------------------------------------------------------




 Dimension of arrays:
   k-points           NKPTS =      4   k-points in BZ     NKDIM =      4   number of bands    NBANDS=   1164
   number of dos      NEDOS =   3001   number of ions     NIONS =    257
   non local maximal  LDIM  =      6   non local SUM 2l+1 LMDIM =     18
   total plane-waves  NPLWV = ******
   max r-space proj   IRMAX =   7595   max aug-charges    IRDMAX= 146383
   dimension x,y,z NGX =   120 NGY =  120 NGZ =  120
   dimension x,y,z NGXF=   240 NGYF=  240 NGZF=  240
   support grid    NGXF=   480 NGYF=  480 NGZF=  480
   ions per type =               1  64  64 128
   NGX,Y,Z   is equivalent  to a cutoff of  12.93, 12.93, 12.93 a.u.
   NGXF,Y,Z  is equivalent  to a cutoff of  25.86, 25.86, 25.86 a.u.

 SYSTEM =  LTO                                     
 POSCAR =  config 21                               

 Startparameter for this run:
   NWRITE =      2    write-flag & timer
   PREC   = accura    normal or accurate (medium, high low for compatibility)
   ISTART =      1    job   : 0-new  1-cont  2-samecut
   ICHARG =      0    charge: 1-file 2-atom 10-const
   ISPIN  =      2    spin polarized calculation?
   LNONCOLLINEAR =      F non collinear calculations
   LSORBIT =      F    spin-orbit coupling
   INIWAV =      1    electr: 0-lowe 1-rand  2-diag
   LASPH  =      T    aspherical Exc in radial PAW
   METAGGA=      F    non-selfconsistent MetaGGA calc.

 Electronic Relaxation 1
   ENCUT  =  500.0 eV  36.75 Ry    6.06 a.u.  28.13 28.13 28.13*2*pi/ulx,y,z
   ENINI  =  500.0     initial cutoff
   ENAUG  =  628.9 eV  augmentation charge cutoff
   NELM   =     60;   NELMIN=  2; NELMDL=  0     # of ELM steps 
   EDIFF  = 0.1E-05   stopping-criterion for ELM
   LREAL  =      T    real-space projection
   NLSPLINE    = F    spline interpolate recip. space projectors
   LCOMPAT=      F    compatible to vasp.4.4
   GGA_COMPAT  = T    GGA compatible to vasp.4.4-vasp.4.6
   LMAXPAW     = -100 max onsite density
   LMAXMIX     =    4 max onsite mixed and CHGCAR
   VOSKOWN=      0    Vosko Wilk Nusair interpolation
   ROPT   =   -0.00010  -0.00010  -0.00010  -0.00010
 Ionic relaxation
   EDIFFG = -.5E-01   stopping-criterion for IOM
   NSW    =    100    number of steps for IOM
   NBLOCK =      1;   KBLOCK =    100    inner block; outer block 
   IBRION =      1    ionic relax: 0-MD 1-quasi-New 2-CG
   NFREE  =      0    steps in history (QN), initial steepest desc. (CG)
   ISIF   =      2    stress and relaxation
   IWAVPR =     11    prediction:  0-non 1-charg 2-wave 3-comb
   ISYM   =      0    0-nonsym 1-usesym 2-fastsym
   LCORR  =      T    Harris-Foulkes like correction to forces

   POTIM  = 0.5000    time-step for ionic-motion
   TEIN   =    0.0    initial temperature
   TEBEG  =    0.0;   TEEND  =   0.0 temperature during run
   SMASS  =  -3.00    Nose mass-parameter (am)
   estimated Nose-frequenzy (Omega)   =  0.10E-29 period in steps =****** mass=  -0.544E-26a.u.
   SCALEE = 1.0000    scale energy and forces
   NPACO  =    256;   APACO  = 16.0  distance and # of slots for P.C.
   PSTRESS=    0.0 pullay stress

  Mass of Ions in am
   POMASS =   7.01 47.88 16.00 19.00
  Ionic Valenz
   ZVAL   =   3.00 10.00  6.00  7.00
  Atomic Wigner-Seitz radii
   RWIGS  =  -1.00 -1.00 -1.00 -1.00
  virtual crystal weights 
   VCA    =   1.00  1.00  1.00  1.00
   NELECT =    1923.0000    total number of electrons
   NUPDOWN=       1.0000    fix difference up-down

 DOS related values:
   EMIN   =  10.00;   EMAX   =-10.00  energy-range for DOS
   EFERMI =   0.00
   ISMEAR =     0;   SIGMA  =   0.01  broadening in eV -4-tet -1-fermi 0-gaus

 Electronic relaxation 2 (details)
   IALGO  =     38    algorithm
   LDIAG  =      T    sub-space diagonalisation (order eigenvalues)
   LSUBROT=      F    optimize rotation matrix (better conditioning)
   TURBO    =      0    0=normal 1=particle mesh
   IRESTART =      0    0=no restart 2=restart with 2 vectors
   NREBOOT  =      0    no. of reboots
   NMIN     =      0    reboot dimension
   EREF     =   0.00    reference energy to select bands
   IMIX   =      4    mixing-type and parameters
     AMIX     =   0.40;   BMIX     =  1.00
     AMIX_MAG =   1.60;   BMIX_MAG =  1.00
     AMIN     =   0.10
     WC   =   100.;   INIMIX=   1;  MIXPRE=   1;  MAXMIX= -45

 Intra band minimization:
   WEIMIN = 0.0010     energy-eigenvalue tresh-hold
   EBREAK =  0.21E-09  absolut break condition
   DEPER  =   0.30     relativ break condition  

   TIME   =   0.40     timestep for ELM

  volume/ion in A,a.u.               =      14.28        96.39
  Fermi-wavevector in a.u.,A,eV,Ry     =   1.319690  2.493853 23.695660  1.741582
  Thomas-Fermi vector in A             =   2.449570
 
 Write flags
   LWAVE        =      T    write WAVECAR
   LDOWNSAMPLE  =      F    k-point downsampling of WAVECAR
   LCHARG       =      T    write CHGCAR
   LVTOT        =      F    write LOCPOT, total local potential
   LVHAR        =      F    write LOCPOT, Hartree potential only
   LELF         =      F    write electronic localiz. function (ELF)
   LORBIT       =     11    0 simple, 1 ext, 2 COOP (PROOUT), +10 PAW based schemes


 Dipole corrections
   LMONO  =      F    monopole corrections only (constant potential shift)
   LDIPOL =      F    correct potential (dipole corrections)
   IDIPOL =      0    1-x, 2-y, 3-z, 4-all directions 
   EPSILON=  1.0000000 bulk dielectric constant

 LDA+U is selected, type is set to LDAUTYPE =  2
   angular momentum for each species LDAUL =    -1    2   -1   -1
   U (eV)           for each species LDAUU =   0.0  4.2  0.0  0.0
   J (eV)           for each species LDAUJ =   0.0  0.0  0.0  0.0
 Exchange correlation treatment:
   GGA     =    PS    GGA type
   LEXCH   =    14    internal setting for exchange type
   VOSKOWN=      0    Vosko Wilk Nusair interpolation
   LHFCALC =     F    Hartree Fock is set to
   LHFONE  =     F    Hartree Fock one center treatment
   AEXX    =    0.0000 exact exchange contribution

 Linear response parameters
   LEPSILON=     F    determine dielectric tensor
   LRPA    =     F    only Hartree local field effects (RPA)
   LNABLA  =     F    use nabla operator in PAW spheres
   LVEL    =     F    velocity operator in full k-point grid
   LINTERFAST=   F  fast interpolation
   KINTER  =     0    interpolate to denser k-point grid
   CSHIFT  =0.1000    complex shift for real part using Kramers Kronig
   OMEGAMAX=  -1.0    maximum frequency
   DEG_THRESHOLD= 0.2000000E-02 threshold for treating states as degnerate
   RTIME   =   -0.100 relaxation time in fs
  (WPLASMAI=    0.000 imaginary part of plasma frequency in eV, 0.658/RTIME)
   DFIELD  = 0.0000000 0.0000000 0.0000000 field for delta impulse in time
 
 Orbital magnetization related:
   ORBITALMAG=     F  switch on orbital magnetization
   LCHIMAG   =     F  perturbation theory with respect to B field
   DQ        =  0.001000  dq finite difference perturbation B field
   LLRAUG    =     F  two centre corrections for induced B field



--------------------------------------------------------------------------------------------------------


 quasi-Newton-method for relaxation of ions
 charge density and potential will be updated during run
 spin polarized calculation
 Variant of blocked Davidson
 Davidson routine will perform the subspace rotation
 perform sub-space diagonalisation
    after iterative eigenvector-optimisation
 modified Broyden-mixing scheme, WC =      100.0
 initial mixing is a Kerker type mixing with AMIX =  0.4000 and BMIX =      1.0000
 Hartree-type preconditioning will be used
 using additional bands          202
 real space projection scheme for non local part
 use partial core corrections
 calculate Harris-corrections to forces 
   (improved forces if not selfconsistent)
 use gradient corrections 
 use of overlap-Matrix (Vanderbilt PP)
 Gauss-broadening in eV      SIGMA  =   0.01


--------------------------------------------------------------------------------------------------------


  energy-cutoff  :      500.00
  volume of cell :     3671.03
      direct lattice vectors                 reciprocal lattice vectors
    15.426331000  0.000000000  0.000000000     0.064824228  0.000000000  0.000000000
     0.000000000 15.426331000  0.000000000     0.000000000  0.064824228  0.000000000
     0.000000000  0.000000000 15.426331000     0.000000000  0.000000000  0.064824228

  length of vectors
    15.426331000 15.426331000 15.426331000     0.064824228  0.064824228  0.064824228


 
 old parameters found on file WAVECAR:
  energy-cutoff  :      500.00
  volume of cell :     3671.03
      direct lattice vectors                 reciprocal lattice vectors
    15.426331000  0.000000000  0.000000000     0.064824228  0.000000000  0.000000000
     0.000000000 15.426331000  0.000000000     0.000000000  0.064824228  0.000000000
     0.000000000  0.000000000 15.426331000     0.000000000  0.000000000  0.064824228

  length of vectors

 
 k-points in units of 2pi/SCALE and weight: Title                                   
   0.01620606  0.01620606  0.01620606       0.250
  -0.01620606  0.01620606  0.01620606       0.250
   0.01620606 -0.01620606  0.01620606       0.250
  -0.01620606 -0.01620606  0.01620606       0.250
 
 k-points in reciprocal lattice and weights: Title                                   
   0.25000000  0.25000000  0.25000000       0.250
  -0.25000000  0.25000000  0.25000000       0.250
   0.25000000 -0.25000000  0.25000000       0.250
  -0.25000000 -0.25000000  0.25000000       0.250
 
 position of ions in fractional coordinates (direct lattice) 
   0.37531878  0.37668301  0.04967627
   0.99479030  0.99507317  0.99435421
   0.99965842  0.99204653  0.49330532
   0.00421967  0.49472207  0.99764419
   0.99431201  0.50262098  0.50735353
   0.49418113  0.99357083  0.00022121
   0.50101061  0.00793334  0.49990709
   0.50810993  0.49693453  0.99650276
   0.49182140  0.49875895  0.49621846
   0.00679450  0.00321053  0.25600795
   0.00095867  0.00767822  0.75650708
   0.99398756  0.49374602  0.25153667
   0.99283049  0.49906539  0.74181600
   0.50608543  0.00906186  0.25088310
   0.49253990  0.00473560  0.75263530
   0.49319428  0.49672213  0.25801101
   0.50066956  0.50384116  0.75909949
   0.99258718  0.25683981  0.00123527
   0.99876323  0.24830490  0.49132094
   0.99793895  0.75769001  0.00633982
   0.99746872  0.75675899  0.50604960
   0.49521082  0.25574064  0.00240704
   0.50855165  0.24545237  0.49936341
   0.50744102  0.75630554  0.99998807
   0.50658786  0.75277482  0.50961362
   0.00010986  0.25839754  0.25498384
   0.00591780  0.24224448  0.74709642
   0.00675079  0.74851494  0.24335802
   0.99269531  0.75064768  0.74343080
   0.50945424  0.24207920  0.25249854
   0.50638950  0.24272630  0.75091315
   0.50666610  0.75169031  0.25250803
   0.50152479  0.74174785  0.74427362
   0.25617854  0.99695211  0.00583498
   0.24991873  0.99385955  0.50649705
   0.24087683  0.50948054  0.99771064
   0.25424488  0.49453954  0.50710471
   0.75663245  0.00050669  0.99419073
   0.75047640  0.00651557  0.49443898
   0.74409403  0.50069928  0.00535614
   0.75547933  0.49763491  0.50569835
   0.24496733  0.00272010  0.24366134
   0.25739669  0.99729218  0.74434955
   0.25516648  0.49188810  0.25315050
   0.24689607  0.50587462  0.74127738
   0.74480534  0.00062247  0.25571662
   0.74810096  0.00619012  0.75606471
   0.75598704  0.49898116  0.24323973
   0.75719455  0.49803658  0.74273040
   0.25046506  0.24804084  0.00315091
   0.25320959  0.25691815  0.50476449
   0.25184952  0.74298629  0.99383740
   0.25151065  0.75518622  0.49299796
   0.75561246  0.25071432  0.00763409
   0.74321243  0.24251215  0.49786647
   0.74167485  0.74979875  0.99429564
   0.74138253  0.75225856  0.49435566
   0.25121926  0.25780183  0.24353617
   0.24386278  0.25113156  0.74280795
   0.24384460  0.74791824  0.25591857
   0.24785902  0.74153192  0.75666714
   0.74265485  0.25084334  0.24296656
   0.74405216  0.24183979  0.75091567
   0.74545538  0.75027824  0.25689562
   0.75718714  0.75063118  0.75698402
   0.00940454  0.50181056  0.62470291
   0.99477611  0.00613797  0.37605099
   0.99861675  0.00235415  0.87265783
   0.49777277  0.49090436  0.37601962
   0.49288288  0.49533069  0.87563605
   0.99834606  0.74567186  0.12596445
   0.00097969  0.74613332  0.62432962
   0.50076658  0.75261870  0.62540041
   0.99433539  0.24716268  0.37645428
   0.25476528  0.00268983  0.12545248
   0.25404608  0.00290837  0.62538056
   0.23772168  0.49460888  0.62617596
   0.75024940  0.49247442  0.12570564
   0.74496474  0.49377142  0.62434850
   0.75096116  0.99861848  0.37606059
   0.74603621  0.99766610  0.87353783
   0.24423636  0.25496257  0.12875587
   0.25305614  0.25010565  0.62473638
   0.73998219  0.25765261  0.12673733
   0.25448778  0.74578142  0.37491707
   0.25058914  0.75183233  0.87546109
   0.75143677  0.75249356  0.37433125
   0.74713510  0.75335324  0.87558313
   0.12347826  0.50252995  0.99380335
   0.62779410  0.50715169  0.99653045
   0.12536891  0.00491233  0.25230844
   0.62500310  0.00262580  0.25000290
   0.62464236  0.25602318  0.49502724
   0.62462619  0.74065566  0.00450154
   0.62428914  0.76218272  0.49706888
   0.12433765  0.24957608  0.74933154
   0.12532321  0.75048528  0.25198287
   0.62663859  0.24418786  0.26560239
   0.62515834  0.25162177  0.74774369
   0.62274375  0.75359485  0.25072019
   0.37640970  0.99708143  0.99259305
   0.37543332  0.50463857  0.50642317
   0.87241988  0.00214028  0.00038860
   0.87545850  0.50050508  0.50084802
   0.37598255  0.99551133  0.75697137
   0.37481313  0.49369091  0.24575564
   0.87572816  0.49686561  0.25184363
   0.87524298  0.50743890  0.74491251
   0.38096598  0.25344411  0.01272263
   0.87248011  0.24572941  0.00684705
   0.87469445  0.74396035  0.75025709
   0.50991286  0.12239790  0.49442796
   0.99461818  0.12593632  0.74309528
   0.49425032  0.12549182  0.26527713
   0.50036521  0.12349618  0.75016125
   0.50068427  0.62489567  0.75133251
   0.99622620  0.37557891  0.00452200
   0.00120574  0.87462592  0.00132754
   0.99781012  0.87493754  0.49808027
   0.49865316  0.37686570  0.01522437
   0.50572580  0.87473188  0.00585621
   0.00829281  0.37415630  0.24707039
   0.25618428  0.62568887  0.00396147
   0.74321629  0.12487825  0.50354595
   0.24855284  0.62440868  0.74955769
   0.75172501  0.12446009  0.74485095
   0.25136315  0.37354044  0.49306470
   0.25136289  0.87562607  0.49955146
   0.24154527  0.37576899  0.26147818
   0.99994868  0.00203958  0.12683763
   0.00538966  0.99708194  0.62349544
   0.00078397  0.50910164  0.12522242
   0.49348421  0.01020519  0.12672503
   0.49697401  0.99567280  0.62339989
   0.50526207  0.51207983  0.12827565
   0.50908376  0.50146274  0.62532578
   0.00273637  0.49523632  0.37620151
   0.99364276  0.49713871  0.87297217
   0.50373331  0.98823614  0.37705823
   0.51564259  0.99876077  0.87562175
   0.00739678  0.24565663  0.12714320
   0.99895693  0.25924621  0.62136121
   0.51653824  0.23534354  0.12796421
   0.49539548  0.24492899  0.62327253
   0.49532638  0.74343931  0.12752532
   0.99204395  0.25018156  0.87377124
   0.99366726  0.75067779  0.37519708
   0.00214467  0.75088083  0.87401590
   0.49207344  0.26588705  0.37633036
   0.49876965  0.25538367  0.87531434
   0.49319861  0.75582753  0.37621825
   0.49991085  0.75233543  0.87474190
   0.24347462  0.49152271  0.12524923
   0.74935153  0.00507221  0.12670423
   0.74543682  0.99615346  0.62299681
   0.25295941  0.00192322  0.37563912
   0.24338612  0.99007415  0.87405915
   0.25080157  0.51485656  0.37607810
   0.26147299  0.49955654  0.87456899
   0.74762906  0.50698890  0.37500699
   0.75457728  0.50531787  0.87425180
   0.25251995  0.75487348  0.12548369
   0.24909685  0.75126524  0.62525802
   0.75086421  0.26061938  0.62301097
   0.75296699  0.74741399  0.12608022
   0.74774194  0.74758347  0.62453352
   0.25246338  0.24188038  0.37582211
   0.25375584  0.25163783  0.87341024
   0.76410020  0.24336789  0.37456908
   0.75327630  0.24525440  0.87581309
   0.12531681  0.00024833  0.00196860
   0.12482869  0.00625097  0.49701524
   0.12374009  0.50162118  0.49109317
   0.62503426  0.00106448  0.00890328
   0.62387101  0.98347257  0.50207819
   0.62527996  0.49296571  0.49683182
   0.12673224  0.00246504  0.74810178
   0.12422422  0.50903297  0.25026002
   0.12332392  0.49406773  0.76457721
   0.62344900  0.99555681  0.74107223
   0.62555956  0.49941566  0.25189354
   0.62634843  0.49334657  0.75753161
   0.11875728  0.25104835  0.99198459
   0.12355038  0.24478045  0.49954394
   0.12491465  0.74381339  0.00163543
   0.12391054  0.74858996  0.49569883
   0.62726346  0.25407146  0.99117447
   0.12417445  0.23573860  0.25789382
   0.12321066  0.75281994  0.75065016
   0.62614837  0.75336472  0.74959568
   0.37749085  0.00714627  0.49591750
   0.37423373  0.49482497  0.01506234
   0.87462153  0.00573094  0.50981410
   0.87472172  0.50014896  0.00036945
   0.37742712  0.99525210  0.25647566
   0.37461790  0.49766635  0.73973869
   0.87376438  0.99758725  0.24678598
   0.87398857  0.99280948  0.74161137
   0.37910242  0.24234827  0.49692731
   0.37654932  0.75823500  0.00100957
   0.37697835  0.74299252  0.50263853
   0.87431522  0.25140500  0.50575840
   0.87209219  0.75462973  0.99816896
   0.87217621  0.74359062  0.50317834
   0.37971430  0.26001955  0.24465492
   0.37618162  0.25006233  0.75188032
   0.37714105  0.74983619  0.24818674
   0.37500417  0.75528184  0.75024992
   0.87434502  0.25750473  0.24328851
   0.87367490  0.25472334  0.74562073
   0.87341119  0.74787218  0.24949504
   0.00251044  0.12627484  0.00140509
   0.99642776  0.12585864  0.50964370
   0.99358593  0.62510609  0.99399585
   0.00077205  0.62637214  0.49234854
   0.50560238  0.12433722  0.99479151
   0.48895385  0.62713580  0.99798706
   0.50858109  0.62639790  0.49624209
   0.98986288  0.12777944  0.24635119
   0.99781845  0.62341124  0.25819368
   0.01019456  0.62438955  0.75559651
   0.50054168  0.62612177  0.25951154
   0.00395225  0.37396755  0.49801421
   0.49339392  0.37166720  0.51054750
   0.48714152  0.87788398  0.49962785
   0.99636441  0.37446297  0.75106710
   0.99679287  0.87602000  0.25136645
   0.00045585  0.87561137  0.74771537
   0.50645189  0.37192342  0.23632218
   0.49685743  0.37319036  0.74346571
   0.49744252  0.87647722  0.24437909
   0.50311461  0.87487310  0.75395134
   0.24656352  0.11920372  0.98951375
   0.25039725  0.12429168  0.49845693
   0.24608619  0.62661246  0.50696519
   0.74054080  0.12606060  0.00159931
   0.76147207  0.62572728  0.00261069
   0.74295546  0.62536264  0.50149908
   0.26208263  0.12673771  0.25248242
   0.25274842  0.12403608  0.75792755
   0.25310860  0.62386838  0.23997077
   0.76046223  0.12612865  0.24900871
   0.74682337  0.62507913  0.24754963
   0.73928615  0.62464594  0.74810910
   0.25933367  0.38035136  0.99989549
   0.24336059  0.87250600  0.00442108
   0.75177904  0.37545004  0.98893838
   0.75407969  0.37240928  0.48874803
   0.74473040  0.87498893  0.00937245
   0.76168031  0.87616697  0.50406159
   0.25268222  0.37584441  0.75651180
   0.25285079  0.87577324  0.25196374
   0.24536738  0.87290955  0.74498208
   0.74709342  0.37434621  0.26467089
   0.75386532  0.37379866  0.75797402
   0.75295251  0.87540064  0.24244969
   0.75042417  0.87487588  0.74329631
 
 position of ions in cartesian coordinates  (Angst):
   5.78979180  5.81083675  0.76632256
  15.34596441 15.35032808 15.33923716
  15.42106173 15.30363820  7.60989109
   0.06509407  7.63174644 15.38998948
  15.33858625  7.75359758  7.82660346
   7.62340170 15.32715246  0.00341245
   7.72875556  0.12238237  7.71173226
   7.83827191  7.66587649 15.37238146
   7.58699964  7.69402063  7.65483027
   0.10481417  0.04952664  3.94926341
   0.01478871  0.11844677 11.67012855
  15.33358114  7.61668947  3.88028793
  15.31573172  7.69874789 11.44349914
   7.80704132  0.13979127  3.87020581
   7.59808353  0.07305288 11.61040121
   7.60817825  7.66260001  3.98016331
   7.72349440  7.77242043 11.71011994
  15.31197843  3.96209590  0.01905571
  15.40725212  3.83043352  7.57927940
  15.39453659 11.68837684  0.09780023
  15.38728271 11.67401470  7.80648858
   7.63928606  3.94513978  0.03713180
   7.84508611  3.78642943  7.70334531
   7.82795321 11.66701962 15.42614691
   7.81479207 11.61255350  7.86146838
   0.00169479  3.98612596  3.93346505
   0.09128993  3.73694351 11.52495661
   0.10413988 11.54683919  3.75412135
  15.31364650 11.57973956 11.46840962
   7.85900969  3.73439390  3.89512608
   7.81173200  3.74437620 11.58383483
   7.81599898 11.59582355  3.89527248
   7.73668746 11.44244789 11.48141116
   3.95189502 15.37931319  0.09001234
   3.85532912 15.33160645  7.81339118
   3.71584577  7.85941548 15.39101457
   3.92206565  7.62893057  7.82276509
  11.67206256  0.00781643 15.33671535
  11.57709732  0.10051136  7.62737939
  11.47864079  7.72395276  0.08262565
  11.65427427  7.67668079  7.80107015
   3.77894711  0.04196119  3.75880047
   3.97068656 15.38455922 11.48258253
   3.93628251  7.58802867  3.90518346
   3.80870054  7.80378934 11.43519029
  11.48961372  0.00960244  3.94476918
  11.54045306  0.09549090 11.66330441
  11.66210638  7.69744847  3.75229658
  11.68073381  7.68287710 11.45760500
   3.86375697  3.82636017  0.04860698
   3.90609494  3.96330442  7.78666405
   3.88511404 11.46155250 15.33126471
   3.87988661 11.64975253  7.60514974
  11.65632796  3.86760206  0.11776597
  11.46504097  3.74107267  7.68025290
  11.44132178 11.56664363 15.33833360
  11.43681224 11.60458959  7.62609408
   3.87539144  3.97693641  3.75686952
   3.76190791  3.87403858 11.45880136
   3.76162744 11.53763435  3.94788459
   3.82355536 11.43911686 11.67259779
  11.45643954  3.86959237  3.74808263
  11.47799489  3.73070070 11.58387363
  11.49964151 11.57404040  3.96295684
  11.68061951 11.57948497 11.67748610
   0.14507753  7.74109575  9.63687392
  15.34574561  0.09468637  5.80108705
  15.40499248  0.03631584 13.46190856
   7.67880755  7.57285317  5.80060305
   7.60337442  7.64113522 13.50785149
  15.40081676 11.50298093  1.94316929
   0.01511297 11.51009954  9.63111530
   7.72499103 11.61014516  9.64763367
  15.33894683  3.81281330  5.80730830
   3.93009361  0.04149417  1.93527155
   3.91899890  0.04486555  9.64732758
   3.66717332  7.63000027  9.65959755
  11.57359563  7.59707345  1.93917680
  11.49207272  7.61708129  9.63140670
  11.58457545 15.40501925  5.80123518
  11.50860155 15.39032749 13.47548365
   3.76767094  3.93313696  1.98623065
   3.90372784  3.85821258  9.63739018
  11.41521018  3.97463449  1.95509197
   3.92581270 11.50467102  5.78359485
   3.86567098 11.59801446 13.50515251
  11.59191232 11.60821479  5.77455781
  11.52555338 11.62147644 13.50703513
   1.90481650  7.75219333 15.33073940
   9.68455965  7.82348983 15.37280852
   1.93398224  0.07577916  3.89219356
   9.64150474  0.04050651  3.85662748
   9.63593981  3.94949835  7.63645401
   9.63569041 11.42559942  0.06944223
   9.63049098 11.75768288  7.66794914
   1.91807381  3.85004327 11.55943636
   1.93327727 11.57723428  3.88717111
   9.66673428  3.76692279  4.09727041
   9.64389946  3.88160078 11.53494164
   9.60665121 11.62520361  3.86769265
   5.80662068 15.38130818 15.31206893
   5.79155871  7.78472158  7.81225139
  13.45823791  0.03301663  0.00599472
  13.50511254  7.72095707  7.72624728
   5.80003125 15.35708727 11.67729084
   5.78199142  7.61583937  3.79110790
  13.50927243  7.66481340  3.88502324
  13.50178791  7.82792048 11.49126698
   5.87690734  3.90971266  0.19626349
  13.45916701  3.79070322  0.10562491
  13.49332612 11.47657864 11.57371428
   7.86608451  1.88815055  7.62720936
  15.34330933  1.94273530 11.46323380
   7.62446908  1.93587828  4.09225289
   7.71879928  1.90509302 11.57223577
   7.72372121  9.63984749 11.59030401
  15.36811508  5.79380460  0.06975784
   0.01860010 13.49226892  0.02047912
  15.39254922 13.49707606  7.68355117
   7.69238874  5.81365510  0.23485624
   7.80149361 13.49390346  0.09033980
   0.12792768  5.77185890  3.81138960
   3.95198344  9.65208354  0.06111087
  11.46510044  1.92641318  7.76786644
   3.83425838  9.63233494 11.56292506
  11.59635880  1.91996262 11.49031737
   3.87761120  5.76235842  7.60617923
   3.87760715 13.50769761  7.70624616
   3.72615732  5.79673680  4.03364901
  15.42553925  0.03146317  1.95663924
   0.08314260 15.38131606  9.61824706
   0.01209374  7.85357040  1.93172257
   7.61265072  0.15742861  1.95490232
   7.66648565 15.35957821  9.61677305
   7.79434000  7.89951292  1.97882258
   7.85329454  7.73573021  9.64648254
   0.04221216  7.63967940  5.80340900
  15.32826214  7.66902634 13.46675766
   7.77075672 15.24485781  5.81662501
   7.95447325 15.40721426 13.50763088
   0.11410522  3.78958051  1.96135308
  15.41024031  3.99921787  9.58532362
   7.96828981  3.63048740  1.97401829
   7.64213464  3.77835562  9.61480831
   7.64106871 11.46854081  1.96724783
  15.30359836  3.85938358 13.47908440
  15.32864013 11.58020403  5.78791441
   0.03308440 11.58333619 13.48285864
   7.59088784  4.10166169  5.80539669
   7.69418565  3.93963300 13.50288881
   7.60824497 11.65964565  5.80366731
   7.71179032 11.60577534 13.49405804
   3.75592008  7.58239204  1.93213612
  11.55974466  0.07824561  1.95458137
  11.49935508 15.36699302  9.61055496
   3.90223555  0.02966828  5.79473334
   3.75455489 15.27321150 13.48352579
   3.86894808  7.94234775  5.80150533
   4.03356883  7.70632450 13.49139066
  11.53317331  7.82097855  5.78498202
  11.64035895  7.79520069 13.48649772
   3.89545626 11.64492810  1.93575291
   3.84265040 11.58926624  9.64543714
  11.58307991  4.02040075  9.61077338
  11.61551800 11.52985557  1.94495517
  11.53491466 11.53247010  9.63426075
   3.89458361  3.73132681  5.79755627
   3.91452151  3.88184851 13.47351540
  11.78726262  3.75427358  5.77822654
  11.62028948  3.78337563 13.51058267
   1.93317860  0.00383077  0.03036832
   1.92564874  0.09642957  7.66712166
   1.90885557  7.73817436  7.57576580
   9.64198532  0.01642105  0.13734492
   9.62404068 15.17137342  7.74522427
   9.64577563  7.60465215  7.66429218
   1.95501343  0.03802652 11.54046574
   1.91632398  7.85251111  3.86059383
   1.90243560  7.62165231 11.79462105
   9.61753069 15.35778891 11.43202552
   9.65008889  7.70415126  3.88579314
   9.66225827  7.61052754 11.68593338
   1.83198912  3.87275488 15.30268266
   1.90592901  3.77606417  7.70613013
   1.92697477 11.47431154  0.02522869
   1.91148507 11.54799649  7.64681423
   9.67637370  3.91939046 15.29018552
   1.91555612  3.63658167  3.97835550
   1.90068839 11.61324953 11.57977783
   9.65917208 11.62165359 11.56351103
   5.82329886  0.11024070  7.65018754
   5.77305338  7.63333371  0.23235666
  13.49220118  0.08840742  7.86456102
  13.49374682  7.71546337  0.00569923
   5.82231569 15.35308837  3.95647838
   5.77897967  7.67716584 11.41145395
  13.47897859 15.38911117  3.80700228
  13.48243691 15.31540769 11.44034251
   5.84815944  3.73854470  7.66576516
   5.80877448 11.69678402  0.01557398
   5.81539283 11.46164857  7.75386835
  13.48747594  3.87825672  7.80199653
  13.45318281 11.64116793 15.39808471
  13.45447898 11.47087504  7.76219570
   5.85759843  4.01114770  3.77412783
   5.80310213  3.85754434 11.59875470
   5.81790263 11.56722121  3.82861084
   5.78493850 11.65122773 11.57360357
  13.48793568  3.97235314  3.75304909
  13.47759813  3.92944649 11.50219212
  13.47353016 11.53692381  3.84879314
   0.03872691  1.94795747  0.02167541
  15.37122445  1.94153706  7.86193237
  15.32738546  9.64309343 15.33370894
   0.01190987  9.66262396  7.59513162
   7.79958964  1.91806705 15.34598317
   7.54276387  9.67440443 15.39527868
   7.84554020  9.66302132  7.65519471
  15.26995237  1.97116788  3.80029502
  15.39267771  9.61694810  3.98298111
   0.15726460  9.63203992 11.65608181
   7.72152169  9.65876162  4.00331096
   0.06096874  5.76894727  7.68253202
   7.61125792  5.73346119  7.87587477
   7.51480638 13.54252882  7.70742462
  15.37024714  5.77658977 11.58620961
  15.37685682 13.51377453  3.87766206
   0.00703211 13.50747084 11.53450477
   7.81269454  5.73741382  3.64558417
   7.66468725  5.75695795 11.46894815
   7.67371302 13.52082765  3.76987268
   7.76121255 13.49608195 11.63070295
   3.80357054  1.83887599 15.26456659
   3.86271084  1.91736458  7.68936162
   3.79620702  9.66633127  7.82061279
  11.42382757  1.94465250  0.02467149
  11.74672027  9.65267619  0.04027339
  11.46107679  9.64705112  7.73629075
   4.04297333  1.95509788  3.89487733
   3.89898083  1.91342169 11.69204120
   3.90453704  9.62400013  3.70186854
  11.73114208  1.94570225  3.84129076
  11.52074443  9.64267760  3.81878248
  11.40447286  9.63599499 11.54057865
   4.00056704  5.86742604 15.42471881
   3.75416103 13.45956630  0.06820110
  11.59719230  5.79181652 15.25569085
  11.63268282  5.74490881  7.53958885
  11.48845765 13.49786883  0.14458247
  11.74993262 13.51604165  7.77582093
   3.89795963  5.79790024 11.67020148
   3.90055993 13.50996789  3.88687601
   3.78511843 13.46579167 11.49234019
  11.52491035  5.77478854  4.08290080
  11.62937596  5.76634189 11.69275812
  11.61529468 13.50421998  3.74010914
  11.57629157 13.49612491 11.46633490
 


--------------------------------------------------------------------------------------------------------


 k-point  1 :   0.2500 0.2500 0.2500  plane waves:   93161
 k-point  2 :  -0.2500 0.2500 0.2500  plane waves:   93161
 k-point  3 :   0.2500-0.2500 0.2500  plane waves:   93161
 k-point  4 :  -0.2500-0.2500 0.2500  plane waves:   93161

 maximum and minimum number of plane-waves per node :     11686    11606

 maximum number of plane-waves:     93161
 maximum index in each direction: 
   IXMAX=   28   IYMAX=   28   IZMAX=   27
   IXMIN=  -28   IYMIN=  -28   IZMIN=  -28


 real space projection operators:
  total allocation   :     105566.99 KBytes
  max/ min on nodes  :      13247.11      13155.12


 parallel 3D FFT for wavefunctions:
    minimum data exchange during FFTs selected (reduces bandwidth)
 parallel 3D FFT for charge:
    minimum data exchange during FFTs selected (reduces bandwidth)


 total amount of memory used by VASP MPI-rank0   291466. kBytes
=======================================================================

   base      :      30000. kBytes
   nonlr-proj:      49431. kBytes
   fftplans  :      27976. kBytes
   grid      :      34041. kBytes
   one-center:       1026. kBytes
   wavefun   :     148992. kBytes
 
     INWAV:  cpu time   51.7634: real time   52.0661
 Broyden mixing: mesh for mixing (old mesh)
   NGX = 57   NGY = 57   NGZ = 57
  (NGX  =240   NGY  =240   NGZ  =240)
  gives a total of 185193 points

 charge density for first step will be calculated from the start-wavefunctions


--------------------------------------------------------------------------------------------------------


 Maximum index for non-local projection operator          969
 Maximum index for augmentation-charges         3291 (set IRDMAX)


--------------------------------------------------------------------------------------------------------


 initial charge from wavefunction
 First call to EWALD:  gamma=   0.115
 Maximum number of real-space cells 3x 3x 3
 Maximum number of reciprocal cells 3x 3x 3

    FEWALD:  cpu time    0.0259: real time    0.0264


--------------------------------------- Iteration      1(   1)  ---------------------------------------


    POTLOK:  cpu time    0.3303: real time    0.3487
    SETDIJ:  cpu time    1.2412: real time    1.4191
     EDDAV:  cpu time  132.2647: real time  133.2398
       DOS:  cpu time    0.0036: real time    0.0171
    CHARGE:  cpu time    5.2357: real time    5.2400
    MIXING:  cpu time    0.0137: real time    0.0160
    --------------------------------------------
      LOOP:  cpu time  139.0893: real time  140.2807

 eigenvalue-minimisations  : 23796
 total energy-change (2. order) :-0.1847686E+04  (-0.3609466E+03)
 number of electron    1923.0000027 magnetization       1.0000000
 augmentation part      503.3601857 magnetization       0.8311077

 Broyden mixing:
  rms(total) = 0.76575E+01    rms(broyden)= 0.76545E+01
  rms(prec ) = 0.11597E+02
  weight for this iteration     100.00

 Free energy of the ion-electron system (eV)
  ---------------------------------------------------
  alpha Z        PSCENC =      6118.73324990
  Ewald energy   TEWEN  =   -103196.20087902
  -Hartree energ DENC   =    -65416.52526490
  -exchange      EXHF   =         0.00000000
  -V(xc)+E(xc)   XCENC  =      8960.65174851
  PAW double counting   =    198679.52310798  -199675.59232260
  entropy T*S    EENTRO =        -0.00343612
  eigenvalues    EBANDS =    -25895.52502095
  atomic energy  EATOM  =    178577.25249613
  Solvation  Ediel_sol  =         0.00000000
  ---------------------------------------------------
  free energy    TOTEN  =     -1847.68632106 eV

  energy without entropy =    -1847.68288494  energy(sigma->0) =    -1847.68460300


--------------------------------------------------------------------------------------------------------




--------------------------------------- Iteration      1(   2)  ---------------------------------------


    POTLOK:  cpu time    0.2842: real time    0.2867
    SETDIJ:  cpu time    1.4399: real time    1.4404
     EDDAV:  cpu time  143.6124: real time  144.4430
       DOS:  cpu time    0.0029: real time    0.0029
    CHARGE:  cpu time    5.1992: real time    5.2261
    MIXING:  cpu time    0.0078: real time    0.0085
    --------------------------------------------
      LOOP:  cpu time  150.5464: real time  151.4075

 eigenvalue-minimisations  : 26376
 total energy-change (2. order) : 0.1792149E+02  (-0.2452672E+03)
 number of electron    1923.0000027 magnetization       1.0000000
 augmentation part      502.9124352 magnetization       0.5277534

 Broyden mixing:
  rms(total) = 0.74927E+01    rms(broyden)= 0.74885E+01
  rms(prec ) = 0.10829E+02
  weight for this iteration     100.00

 eigenvalues of (default mixing * dielectric matrix)
  average eigenvalue GAMMA=   0.4958
  0.4958

 Free energy of the ion-electron system (eV)
  ---------------------------------------------------
  alpha Z        PSCENC =      6118.73324990
  Ewald energy   TEWEN  =   -103196.20087902
  -Hartree energ DENC   =    -65463.10045753
  -exchange      EXHF   =         0.00000000
  -V(xc)+E(xc)   XCENC  =      8960.81490003
  PAW double counting   =    200499.86632152  -201473.99897435
  entropy T*S    EENTRO =        -0.00183044
  eigenvalues    EBANDS =    -25853.12966196
  atomic energy  EATOM  =    178577.25249613
  Solvation  Ediel_sol  =         0.00000000
  ---------------------------------------------------
  free energy    TOTEN  =     -1829.76483572 eV

  energy without entropy =    -1829.76300528  energy(sigma->0) =    -1829.76392050


--------------------------------------------------------------------------------------------------------




--------------------------------------- Iteration      1(   3)  ---------------------------------------


    POTLOK:  cpu time    0.2605: real time    0.2634
    SETDIJ:  cpu time    1.4491: real time    1.4496
     EDDAV:  cpu time  143.0627: real time  143.6970
       DOS:  cpu time    0.0024: real time    0.0024
    CHARGE:  cpu time    5.2493: real time    5.2705
    MIXING:  cpu time    0.0190: real time    0.0200
    --------------------------------------------
      LOOP:  cpu time  150.0431: real time  150.7029

 eigenvalue-minimisations  : 26424
 total energy-change (2. order) : 0.6073573E+01  (-0.7856698E+02)
 number of electron    1923.0000027 magnetization       1.0000000
 augmentation part      493.1720020 magnetization       0.5856999

 Broyden mixing:
  rms(total) = 0.49653E+01    rms(broyden)= 0.49635E+01
  rms(prec ) = 0.56991E+01
  weight for this iteration     100.00

 eigenvalues of (default mixing * dielectric matrix)
  average eigenvalue GAMMA=   0.4758
  0.4758  0.4758

 Free energy of the ion-electron system (eV)
  ---------------------------------------------------
  alpha Z        PSCENC =      6118.73324990
  Ewald energy   TEWEN  =   -103196.20087902
  -Hartree energ DENC   =    -65526.05859689
  -exchange      EXHF   =         0.00000000
  -V(xc)+E(xc)   XCENC  =      8963.07331325
  PAW double counting   =    200450.98505187  -201422.10085634
  entropy T*S    EENTRO =        -0.00075941
  eigenvalues    EBANDS =    -25789.37428187
  atomic energy  EATOM  =    178577.25249613
  Solvation  Ediel_sol  =         0.00000000
  ---------------------------------------------------
  free energy    TOTEN  =     -1823.69126236 eV

  energy without entropy =    -1823.69050296  energy(sigma->0) =    -1823.69088266


--------------------------------------------------------------------------------------------------------




--------------------------------------- Iteration      1(   4)  ---------------------------------------


    POTLOK:  cpu time    0.2836: real time    0.2904
    SETDIJ:  cpu time    1.4716: real time    1.4885
     EDDAV:  cpu time  141.1184: real time  142.0088
       DOS:  cpu time    0.0025: real time    0.0024
    CHARGE:  cpu time    5.2836: real time    5.2874
    MIXING:  cpu time    0.0075: real time    0.0078
    --------------------------------------------
      LOOP:  cpu time  148.1672: real time  149.0854

 eigenvalue-minimisations  : 25524
 total energy-change (2. order) : 0.3119732E+02  (-0.2266886E+02)
 number of electron    1923.0000027 magnetization       1.0000000
 augmentation part      494.2609158 magnetization       0.6163938

 Broyden mixing:
  rms(total) = 0.35105E+01    rms(broyden)= 0.35097E+01
  rms(prec ) = 0.40659E+01
  weight for this iteration     100.00

 eigenvalues of (default mixing * dielectric matrix)
  average eigenvalue GAMMA=   0.5864
  0.6187  0.6187  0.5219

 Free energy of the ion-electron system (eV)
  ---------------------------------------------------
  alpha Z        PSCENC =      6118.73324990
  Ewald energy   TEWEN  =   -103196.20087902
  -Hartree energ DENC   =    -65500.95116977
  -exchange      EXHF   =         0.00000000
  -V(xc)+E(xc)   XCENC  =      8968.09687081
  PAW double counting   =    200516.13234132  -201501.41802957
  entropy T*S    EENTRO =        -0.00514661
  eigenvalues    EBANDS =    -25774.13367696
  atomic energy  EATOM  =    178577.25249613
  Solvation  Ediel_sol  =         0.00000000
  ---------------------------------------------------
  free energy    TOTEN  =     -1792.49394377 eV

  energy without entropy =    -1792.48879716  energy(sigma->0) =    -1792.49137046


--------------------------------------------------------------------------------------------------------




--------------------------------------- Iteration      1(   5)  ---------------------------------------


    POTLOK:  cpu time    0.2602: real time    0.2629
    SETDIJ:  cpu time    1.3801: real time    1.3807
     EDDAV:  cpu time  146.6471: real time  147.7258
       DOS:  cpu time    0.0019: real time    0.0019
    CHARGE:  cpu time    5.2232: real time    5.2260
    MIXING:  cpu time    0.0081: real time    0.0081
    --------------------------------------------
      LOOP:  cpu time  153.5205: real time  154.6054

 eigenvalue-minimisations  : 27024
 total energy-change (2. order) : 0.2306128E+02  (-0.7266365E+01)
 number of electron    1923.0000027 magnetization       1.0000000
 augmentation part      494.8448988 magnetization       0.6051823

 Broyden mixing:
  rms(total) = 0.20679E+01    rms(broyden)= 0.20673E+01
  rms(prec ) = 0.23915E+01
  weight for this iteration     100.00

 eigenvalues of (default mixing * dielectric matrix)
  average eigenvalue GAMMA=   0.6661
  0.8125  0.8125  0.5196  0.5196

 Free energy of the ion-electron system (eV)
  ---------------------------------------------------
  alpha Z        PSCENC =      6118.73324990
  Ewald energy   TEWEN  =   -103196.20087902
  -Hartree energ DENC   =    -65501.76678497
  -exchange      EXHF   =         0.00000000
  -V(xc)+E(xc)   XCENC  =      8971.94110758
  PAW double counting   =    200037.28870158  -201033.44494098
  entropy T*S    EENTRO =        -0.00000000
  eigenvalues    EBANDS =    -25743.23561442
  atomic energy  EATOM  =    178577.25249613
  Solvation  Ediel_sol  =         0.00000000
  ---------------------------------------------------
  free energy    TOTEN  =     -1769.43266420 eV

  energy without entropy =    -1769.43266420  energy(sigma->0) =    -1769.43266420


--------------------------------------------------------------------------------------------------------




--------------------------------------- Iteration      1(   6)  ---------------------------------------


    POTLOK:  cpu time    0.2595: real time    0.2623
    SETDIJ:  cpu time    1.3747: real time    1.3752
     EDDAV:  cpu time  146.4908: real time  147.4985
       DOS:  cpu time    0.0019: real time    0.0019
    CHARGE:  cpu time    5.2453: real time    5.2488
    MIXING:  cpu time    0.0370: real time    0.0370
    --------------------------------------------
      LOOP:  cpu time  153.4091: real time  154.4237

 eigenvalue-minimisations  : 26952
 total energy-change (2. order) : 0.9526809E+01  (-0.3356397E+01)
 number of electron    1923.0000027 magnetization       1.0000000
 augmentation part      495.8140407 magnetization       0.5543425

 Broyden mixing:
  rms(total) = 0.12877E+01    rms(broyden)= 0.12875E+01
  rms(prec ) = 0.13914E+01
  weight for this iteration     100.00

 eigenvalues of (default mixing * dielectric matrix)
  average eigenvalue GAMMA=   0.7208
  0.9585  0.9585  0.6020  0.6020  0.4832

 Free energy of the ion-electron system (eV)
  ---------------------------------------------------
  alpha Z        PSCENC =      6118.73324990
  Ewald energy   TEWEN  =   -103196.20087902
  -Hartree energ DENC   =    -65464.13378122
  -exchange      EXHF   =         0.00000000
  -V(xc)+E(xc)   XCENC  =      8972.69187177
  PAW double counting   =    199599.45119535  -200601.53719862
  entropy T*S    EENTRO =        -0.00000000
  eigenvalues    EBANDS =    -25766.16280911
  atomic energy  EATOM  =    178577.25249613
  Solvation  Ediel_sol  =         0.00000000
  ---------------------------------------------------
  free energy    TOTEN  =     -1759.90585482 eV

  energy without entropy =    -1759.90585482  energy(sigma->0) =    -1759.90585482


--------------------------------------------------------------------------------------------------------




--------------------------------------- Iteration      1(   7)  ---------------------------------------


    POTLOK:  cpu time    0.2965: real time    0.2968
    SETDIJ:  cpu time    1.4246: real time    1.4253
     EDDAV:  cpu time  151.8256: real time  152.6921
       DOS:  cpu time    0.0020: real time    0.0020
    CHARGE:  cpu time    5.2524: real time    5.2556
    MIXING:  cpu time    0.0176: real time    0.0176
    --------------------------------------------
      LOOP:  cpu time  158.8188: real time  159.6894

 eigenvalue-minimisations  : 28080
 total energy-change (2. order) : 0.1510616E+01  (-0.8194633E+00)
 number of electron    1923.0000027 magnetization       1.0000000
 augmentation part      496.6686333 magnetization       0.5780523

 Broyden mixing:
  rms(total) = 0.89833E+00    rms(broyden)= 0.89768E+00
  rms(prec ) = 0.94094E+00
  weight for this iteration     100.00

 eigenvalues of (default mixing * dielectric matrix)
  average eigenvalue GAMMA=   0.8585
  1.3167  1.3167  0.7073  0.7073  0.5516  0.5516

 Free energy of the ion-electron system (eV)
  ---------------------------------------------------
  alpha Z        PSCENC =      6118.73324990
  Ewald energy   TEWEN  =   -103196.20087902
  -Hartree energ DENC   =    -65434.51346793
  -exchange      EXHF   =         0.00000000
  -V(xc)+E(xc)   XCENC  =      8971.88766880
  PAW double counting   =    199246.27710414  -200251.32318875
  entropy T*S    EENTRO =        -0.00000000
  eigenvalues    EBANDS =    -25790.50822195
  atomic energy  EATOM  =    178577.25249613
  Solvation  Ediel_sol  =         0.00000000
  ---------------------------------------------------
  free energy    TOTEN  =     -1758.39523867 eV

  energy without entropy =    -1758.39523867  energy(sigma->0) =    -1758.39523867


--------------------------------------------------------------------------------------------------------




--------------------------------------- Iteration      1(   8)  ---------------------------------------


    POTLOK:  cpu time    0.2847: real time    0.2855
    SETDIJ:  cpu time    1.4458: real time    1.4463
     EDDAV:  cpu time  142.8813: real time  143.7108
       DOS:  cpu time    0.0020: real time    0.0020
    CHARGE:  cpu time    5.2348: real time    5.2540
    MIXING:  cpu time    0.0087: real time    0.0087
    --------------------------------------------
      LOOP:  cpu time  149.8573: real time  150.7074

 eigenvalue-minimisations  : 26124
 total energy-change (2. order) :-0.3161131E+00  (-0.8441528E+00)
[...]
   81        1.574   3.461   0.000   5.035
   82        1.574   3.466   0.000   5.041
   83        1.574   3.463   0.000   5.037
   84        1.576   3.471   0.000   5.047
   85        1.575   3.463   0.000   5.038
   86        1.575   3.466   0.000   5.041
   87        1.575   3.463   0.000   5.039
   88        1.575   3.466   0.000   5.040
   89        1.575   3.469   0.000   5.044
   90        1.576   3.468   0.000   5.044
   91        1.574   3.460   0.000   5.034
   92        1.574   3.461   0.000   5.035
   93        1.577   3.472   0.000   5.049
   94        1.577   3.473   0.000   5.050
   95        1.576   3.474   0.000   5.051
   96        1.574   3.463   0.000   5.037
   97        1.575   3.466   0.000   5.041
   98        1.576   3.474   0.000   5.051
   99        1.575   3.463   0.000   5.038
  100        1.576   3.459   0.000   5.034
  101        1.574   3.459   0.000   5.033
  102        1.575   3.460   0.000   5.035
  103        1.576   3.459   0.000   5.035
  104        1.574   3.461   0.000   5.035
  105        1.577   3.472   0.000   5.048
  106        1.574   3.463   0.000   5.037
  107        1.575   3.462   0.000   5.037
  108        1.576   3.473   0.000   5.049
  109        1.570   3.474   0.000   5.044
  110        1.576   3.466   0.000   5.043
  111        1.576   3.473   0.000   5.049
  112        1.577   3.463   0.000   5.040
  113        1.576   3.474   0.000   5.050
  114        1.577   3.474   0.000   5.050
  115        1.574   3.465   0.000   5.040
  116        1.575   3.463   0.000   5.037
  117        1.575   3.462   0.000   5.037
  118        1.576   3.463   0.000   5.038
  119        1.576   3.476   0.000   5.053
  120        1.566   3.483   0.000   5.050
  121        1.575   3.466   0.000   5.041
  122        1.577   3.468   0.000   5.045
  123        1.577   3.479   0.000   5.056
  124        1.576   3.471   0.000   5.047
  125        1.576   3.475   0.000   5.051
  126        1.576   3.471   0.000   5.047
  127        1.575   3.458   0.000   5.033
  128        1.574   3.460   0.000   5.035
  129        1.576   3.470   0.000   5.046
  130        1.737   4.369   0.000   6.106
  131        1.737   4.370   0.000   6.107
  132        1.737   4.379   0.000   6.116
  133        1.738   4.386   0.000   6.124
  134        1.738   4.384   0.000   6.122
  135        1.737   4.368   0.000   6.105
  136        1.736   4.367   0.000   6.103
  137        1.739   4.380   0.000   6.119
  138        1.738   4.381   0.000   6.119
  139        1.739   4.387   0.000   6.126
  140        1.739   4.386   0.000   6.125
  141        1.738   4.380   0.000   6.118
  142        1.738   4.380   0.000   6.118
  143        1.738   4.384   0.000   6.122
  144        1.739   4.386   0.000   6.124
  145        1.738   4.381   0.000   6.120
  146        1.737   4.381   0.000   6.118
  147        1.737   4.369   0.000   6.106
  148        1.736   4.368   0.000   6.104
  149        1.739   4.383   0.000   6.123
  150        1.738   4.387   0.000   6.125
  151        1.738   4.376   0.000   6.114
  152        1.738   4.380   0.000   6.118
  153        1.737   4.381   0.000   6.118
  154        1.737   4.371   0.000   6.108
  155        1.737   4.372   0.000   6.109
  156        1.737   4.369   0.000   6.106
  157        1.737   4.368   0.000   6.105
  158        1.738   4.375   0.000   6.113
  159        1.738   4.374   0.000   6.112
  160        1.737   4.369   0.000   6.105
  161        1.736   4.369   0.000   6.106
  162        1.737   4.370   0.000   6.106
  163        1.736   4.367   0.000   6.104
  164        1.738   4.378   0.000   6.116
  165        1.737   4.369   0.000   6.106
  166        1.736   4.369   0.000   6.106
  167        1.737   4.371   0.000   6.108
  168        1.737   4.380   0.000   6.116
  169        1.739   4.376   0.000   6.115
  170        1.738   4.379   0.000   6.116
  171        1.737   4.370   0.000   6.107
  172        1.738   4.388   0.000   6.126
  173        1.737   4.370   0.000   6.107
  174        1.737   4.370   0.000   6.107
  175        1.739   4.382   0.000   6.121
  176        1.737   4.367   0.000   6.103
  177        1.738   4.379   0.000   6.117
  178        1.737   4.369   0.000   6.105
  179        1.738   4.375   0.000   6.113
  180        1.738   4.379   0.000   6.117
  181        1.736   4.369   0.000   6.106
  182        1.738   4.377   0.000   6.114
  183        1.737   4.378   0.000   6.115
  184        1.738   4.380   0.000   6.117
  185        1.737   4.382   0.000   6.119
  186        1.737   4.381   0.000   6.119
  187        1.737   4.375   0.000   6.112
  188        1.738   4.378   0.000   6.116
  189        1.738   4.382   0.000   6.120
  190        1.738   4.381   0.000   6.119
  191        1.739   4.386   0.000   6.125
  192        1.736   4.384   0.000   6.120
  193        1.739   4.388   0.000   6.127
  194        1.738   4.376   0.000   6.113
  195        1.737   4.370   0.000   6.107
  196        1.737   4.380   0.000   6.118
  197        1.737   4.369   0.000   6.106
  198        1.737   4.380   0.000   6.117
  199        1.738   4.381   0.000   6.119
  200        1.738   4.380   0.000   6.118
  201        1.738   4.380   0.000   6.118
  202        1.738   4.379   0.000   6.118
  203        1.738   4.381   0.000   6.118
  204        1.738   4.378   0.000   6.116
  205        1.737   4.375   0.000   6.112
  206        1.737   4.369   0.000   6.106
  207        1.737   4.369   0.000   6.106
  208        1.737   4.381   0.000   6.118
  209        1.737   4.378   0.000   6.115
  210        1.737   4.370   0.000   6.107
  211        1.737   4.371   0.000   6.108
  212        1.737   4.369   0.000   6.106
  213        1.739   4.374   0.000   6.113
  214        1.736   4.367   0.000   6.104
  215        1.738   4.380   0.000   6.119
  216        1.736   4.370   0.000   6.106
  217        1.737   4.369   0.000   6.106
  218        1.737   4.380   0.000   6.116
  219        1.738   4.378   0.000   6.116
  220        1.738   4.380   0.000   6.118
  221        1.738   4.380   0.000   6.118
  222        1.737   4.379   0.000   6.117
  223        1.738   4.381   0.000   6.119
  224        1.738   4.381   0.000   6.119
  225        1.738   4.380   0.000   6.118
  226        1.738   4.379   0.000   6.117
  227        1.737   4.379   0.000   6.116
  228        1.738   4.378   0.000   6.115
  229        1.738   4.377   0.000   6.114
  230        1.737   4.369   0.000   6.106
  231        1.738   4.376   0.000   6.114
  232        1.737   4.369   0.000   6.106
  233        1.738   4.387   0.000   6.125
  234        1.737   4.370   0.000   6.107
  235        1.737   4.370   0.000   6.107
  236        1.739   4.387   0.000   6.126
  237        1.739   4.387   0.000   6.126
  238        1.737   4.380   0.000   6.117
  239        1.738   4.378   0.000   6.116
  240        1.737   4.379   0.000   6.117
  241        1.738   4.376   0.000   6.114
  242        1.738   4.387   0.000   6.125
  243        1.738   4.387   0.000   6.126
  244        1.738   4.380   0.000   6.118
  245        1.736   4.395   0.000   6.131
  246        1.739   4.383   0.000   6.122
  247        1.738   4.386   0.000   6.125
  248        1.738   4.379   0.000   6.117
  249        1.738   4.385   0.000   6.124
  250        1.738   4.378   0.000   6.117
  251        1.738   4.380   0.000   6.118
  252        1.737   4.380   0.000   6.117
  253        1.738   4.379   0.000   6.118
  254        1.739   4.387   0.000   6.126
  255        1.738   4.377   0.000   6.115
  256        1.739   4.386   0.000   6.124
  257        1.738   4.379   0.000   6.117
--------------------------------------------------
tot        345.5761195.622 112.6341653.832
 


 magnetization (x)
 
# of ion       s       p       d       tot
------------------------------------------
    1       -0.000  -0.000   0.000  -0.000
    2        0.000   0.000   0.000   0.000
    3       -0.000  -0.000  -0.000  -0.000
    4        0.000   0.000   0.003   0.003
    5        0.000  -0.000   0.000   0.000
    6        0.000   0.000   0.003   0.003
    7        0.000   0.000   0.000   0.000
    8        0.000   0.000   0.005   0.005
    9       -0.000  -0.000   0.000   0.000
   10        0.000  -0.000   0.000   0.000
   11       -0.000  -0.000   0.000  -0.000
   12       -0.000  -0.000   0.000  -0.000
   13       -0.000  -0.000   0.000   0.000
   14       -0.000  -0.000   0.000   0.000
   15       -0.000  -0.000   0.000   0.000
   16       -0.000  -0.000   0.000   0.000
   17       -0.000  -0.000  -0.000  -0.000
   18       -0.000  -0.000   0.007   0.007
   19        0.000   0.000   0.000   0.000
   20        0.000   0.000   0.000   0.000
   21       -0.000  -0.000  -0.000  -0.000
   22        0.000   0.001   0.045   0.045
   23       -0.000  -0.000   0.000   0.000
   24        0.000   0.000   0.000   0.000
   25        0.000  -0.000   0.000   0.000
   26        0.000  -0.000   0.000   0.000
   27       -0.000  -0.000   0.000   0.000
   28       -0.000  -0.000   0.000  -0.000
   29        0.000  -0.000   0.000   0.000
   30       -0.000  -0.000   0.000   0.000
   31       -0.000  -0.000   0.000   0.000
   32       -0.000  -0.000   0.000   0.000
   33        0.000  -0.000  -0.000  -0.000
   34       -0.000   0.000   0.009   0.009
   35       -0.000  -0.000   0.000   0.000
   36       -0.000   0.000   0.003   0.003
   37        0.000   0.000  -0.000  -0.000
   38        0.000   0.000   0.000   0.000
   39       -0.000  -0.000  -0.000  -0.000
   40        0.000   0.000   0.001   0.001
   41       -0.000  -0.000  -0.000  -0.000
   42       -0.000  -0.000  -0.000  -0.000
   43       -0.000  -0.000   0.000   0.000
   44        0.000  -0.000  -0.000  -0.000
   45       -0.000  -0.000   0.000   0.000
   46       -0.000  -0.000  -0.000  -0.000
   47       -0.000  -0.000  -0.000  -0.000
   48       -0.000  -0.000  -0.000  -0.000
   49       -0.000  -0.000  -0.000  -0.000
   50        0.005   0.007   0.894   0.906
   51       -0.000  -0.000  -0.000  -0.000
   52        0.000   0.000   0.000   0.000
   53        0.000   0.000   0.000   0.000
   54       -0.000  -0.000   0.001   0.001
   55        0.000   0.000   0.000   0.000
   56        0.000   0.000   0.000   0.000
   57       -0.000  -0.000  -0.000  -0.000
   58       -0.000  -0.000  -0.003  -0.003
   59       -0.000  -0.000   0.000  -0.000
   60        0.000   0.000   0.000   0.000
   61       -0.000  -0.000   0.000   0.000
   62       -0.000  -0.000   0.000   0.000
   63       -0.000   0.000   0.000   0.000
   64       -0.000  -0.000  -0.000  -0.000
   65       -0.000  -0.000  -0.000  -0.000
   66       -0.000  -0.000   0.000  -0.000
   67        0.000  -0.000   0.000  -0.000
   68       -0.000  -0.000   0.000  -0.000
   69       -0.000  -0.000   0.000  -0.000
   70       -0.000  -0.000   0.000  -0.000
   71       -0.000  -0.000   0.000  -0.000
   72        0.000   0.000   0.000   0.000
   73       -0.000  -0.000   0.000  -0.000
   74       -0.000  -0.000   0.000  -0.000
   75       -0.000  -0.000   0.000  -0.000
   76       -0.000  -0.000   0.000  -0.000
   77       -0.000  -0.000   0.000  -0.000
   78       -0.000  -0.000   0.000  -0.000
   79        0.000   0.000   0.000   0.000
   80        0.000   0.000   0.000   0.000
   81       -0.000  -0.000   0.000  -0.000
   82       -0.001  -0.014   0.000  -0.014
   83       -0.000  -0.000   0.000  -0.000
   84       -0.000  -0.000   0.000  -0.000
   85       -0.000  -0.000   0.000  -0.000
   86       -0.000  -0.000   0.000  -0.000
   87        0.000   0.000   0.000   0.000
   88       -0.000  -0.000   0.000  -0.000
   89       -0.000  -0.001   0.000  -0.001
   90       -0.000  -0.000   0.000  -0.000
   91       -0.000  -0.000   0.000  -0.000
   92       -0.000  -0.000   0.000  -0.000
   93       -0.000  -0.000   0.000  -0.000
   94       -0.000  -0.000   0.000  -0.000
   95        0.000   0.000   0.000   0.000
   96       -0.000  -0.000   0.000  -0.000
   97       -0.000  -0.000   0.000  -0.000
   98       -0.000  -0.000   0.000  -0.000
   99       -0.000  -0.000   0.000  -0.000
  100        0.000   0.000   0.000   0.000
  101       -0.000  -0.001   0.000  -0.001
  102       -0.000  -0.000   0.000  -0.000
  103        0.000  -0.000   0.000  -0.000
  104        0.000   0.000   0.000   0.000
  105       -0.000  -0.000   0.000  -0.000
  106        0.000   0.000   0.000   0.000
  107       -0.000  -0.000   0.000  -0.000
  108       -0.000  -0.000   0.000  -0.000
  109       -0.001  -0.019   0.000  -0.020
  110       -0.000  -0.001   0.000  -0.001
  111        0.000   0.000   0.000   0.000
  112       -0.000  -0.000   0.000  -0.000
  113       -0.000  -0.000   0.000  -0.000
  114       -0.000  -0.000   0.000  -0.000
  115       -0.000  -0.000   0.000  -0.000
  116       -0.000  -0.000   0.000  -0.000
  117       -0.000  -0.001   0.000  -0.001
  118        0.000  -0.000   0.000  -0.000
  119       -0.000   0.000   0.000   0.000
  120       -0.000  -0.001   0.000  -0.001
  121       -0.000  -0.000   0.000  -0.000
  122       -0.000  -0.000   0.000  -0.000
  123        0.000  -0.000   0.000  -0.000
  124       -0.000   0.000   0.000   0.000
  125       -0.000  -0.000   0.000  -0.000
  126       -0.000  -0.000   0.000  -0.000
  127        0.000  -0.000   0.000  -0.000
  128       -0.000  -0.000   0.000  -0.000
  129        0.000  -0.000   0.000  -0.000
  130       -0.000  -0.000   0.000  -0.000
  131        0.000   0.000   0.000   0.000
  132       -0.000  -0.000   0.000  -0.000
  133       -0.000  -0.000   0.000  -0.000
  134        0.000  -0.000   0.000  -0.000
  135       -0.000  -0.000   0.000  -0.000
  136       -0.000  -0.000   0.000  -0.000
  137       -0.000  -0.000   0.000  -0.000
  138       -0.000  -0.000   0.000  -0.000
  139        0.000  -0.000   0.000  -0.000
  140       -0.000  -0.000   0.000  -0.000
  141       -0.000  -0.000   0.000  -0.000
  142       -0.000  -0.000   0.000  -0.000
  143       -0.000  -0.000   0.000  -0.000
  144       -0.000  -0.000   0.000  -0.000
  145       -0.000  -0.000   0.000  -0.000
  146       -0.000  -0.000   0.000  -0.000
  147       -0.000   0.000   0.000   0.000
  148        0.000  -0.000   0.000  -0.000
  149       -0.000  -0.000   0.000  -0.000
  150       -0.000  -0.000   0.000  -0.000
  151        0.000  -0.000   0.000  -0.000
  152       -0.000  -0.000   0.000  -0.000
  153       -0.000  -0.000   0.000  -0.000
  154        0.000  -0.000   0.000  -0.000
  155        0.000   0.000   0.000   0.000
  156       -0.000  -0.000   0.000  -0.000
  157       -0.000  -0.000   0.000  -0.000
  158       -0.000  -0.000   0.000  -0.000
  159       -0.000  -0.000   0.000  -0.000
  160       -0.000  -0.000   0.000  -0.000
  161       -0.000  -0.000   0.000  -0.000
  162       -0.000  -0.000   0.000  -0.000
  163        0.000  -0.000   0.000  -0.000
  164       -0.000  -0.000   0.000  -0.000
  165       -0.000  -0.000   0.000  -0.000
  166        0.000   0.000   0.000   0.000
  167       -0.000  -0.000   0.000  -0.000
  168       -0.000  -0.006   0.000  -0.006
  169       -0.000  -0.000   0.000  -0.000
  170       -0.000  -0.000   0.000  -0.000
  171        0.000   0.000   0.000   0.000
  172       -0.000   0.000   0.000   0.000
  173       -0.000  -0.000   0.000  -0.000
  174        0.000   0.000   0.000   0.000
  175       -0.000   0.000   0.000   0.000
  176       -0.000   0.000   0.000   0.000
  177       -0.000  -0.000   0.000  -0.000
  178        0.000   0.000   0.000   0.000
  179       -0.000  -0.000   0.000  -0.000
  180        0.000  -0.000   0.000   0.000
  181        0.000  -0.000   0.000  -0.000
  182        0.000  -0.000   0.000  -0.000
  183       -0.000   0.002   0.000   0.002
  184        0.000  -0.000   0.000  -0.000
  185       -0.000  -0.000   0.000  -0.000
  186        0.000   0.000   0.000   0.000
  187       -0.000  -0.000   0.000  -0.000
  188       -0.000  -0.000   0.000  -0.000
  189        0.000  -0.000   0.000  -0.000
  190        0.000   0.000   0.000   0.000
  191        0.000  -0.000   0.000  -0.000
  192       -0.000   0.000   0.000   0.000
  193       -0.000   0.000   0.000   0.000
  194       -0.000  -0.000   0.000  -0.000
  195       -0.000  -0.000   0.000  -0.000
  196        0.000  -0.000   0.000  -0.000
  197        0.000   0.000   0.000   0.000
  198        0.000   0.000   0.000   0.000
  199       -0.000  -0.000   0.000  -0.000
  200       -0.000  -0.000   0.000  -0.000
  201        0.000  -0.000   0.000  -0.000
  202        0.000  -0.000   0.000  -0.000
  203       -0.000  -0.000   0.000  -0.000
  204        0.000   0.000   0.000   0.000
  205       -0.000  -0.000   0.000  -0.000
  206       -0.000  -0.000   0.000  -0.000
  207        0.000  -0.000   0.000  -0.000
  208       -0.000  -0.000   0.000  -0.000
  209       -0.000  -0.000   0.000  -0.000
  210       -0.000  -0.000   0.000  -0.000
  211       -0.000   0.000   0.000   0.000
  212        0.000   0.000   0.000   0.000
  213       -0.000  -0.000   0.000  -0.000
  214       -0.000  -0.000   0.000  -0.000
  215        0.000   0.000   0.000   0.000
  216       -0.000  -0.000   0.000  -0.000
  217        0.000  -0.000   0.000  -0.000
  218        0.000  -0.000   0.000  -0.000
  219       -0.000  -0.000   0.000  -0.000
  220       -0.000  -0.000   0.000  -0.000
  221        0.000  -0.000   0.000  -0.000
  222       -0.000  -0.000   0.000  -0.000
  223        0.000  -0.000   0.000  -0.000
  224       -0.000  -0.000   0.000  -0.000
  225        0.000  -0.000   0.000  -0.000
  226       -0.000  -0.000   0.000  -0.000
  227        0.000   0.000   0.000   0.000
  228        0.000   0.000   0.000   0.000
  229       -0.000  -0.000   0.000  -0.000
  230        0.000  -0.000   0.000  -0.000
  231        0.000  -0.000   0.000  -0.000
  232        0.000  -0.000   0.000  -0.000
  233       -0.000   0.001   0.000   0.001
  234       -0.000  -0.000   0.000  -0.000
  235       -0.000  -0.000   0.000  -0.000
  236       -0.000  -0.000   0.000  -0.000
  237       -0.000   0.000   0.000   0.000
  238        0.000   0.000   0.000   0.000
  239       -0.000  -0.000   0.000  -0.000
  240       -0.000  -0.000   0.000  -0.000
  241        0.000  -0.000   0.000  -0.000
  242        0.000  -0.000   0.000  -0.000
  243       -0.000   0.000   0.000   0.000
  244        0.000   0.000   0.000   0.000
  245       -0.000   0.003   0.000   0.002
  246       -0.000  -0.000   0.000  -0.000
  247       -0.000  -0.000   0.000  -0.000
  248       -0.000   0.000   0.000   0.000
  249        0.000  -0.000   0.000  -0.000
  250        0.000   0.000   0.000   0.000
  251       -0.000  -0.000   0.000  -0.000
  252       -0.000  -0.000   0.000  -0.000
  253       -0.000  -0.000   0.000  -0.000
  254        0.000  -0.000   0.000  -0.000
  255       -0.000  -0.000   0.000  -0.000
  256       -0.000   0.000   0.000   0.000
  257        0.000   0.000   0.000   0.000
--------------------------------------------------
tot          0.001  -0.035   0.970   0.937
 

 total amount of memory used by VASP MPI-rank0   291466. kBytes
=======================================================================

   base      :      30000. kBytes
   nonlr-proj:      49431. kBytes
   fftplans  :      27976. kBytes
   grid      :      34041. kBytes
   one-center:       1026. kBytes
   wavefun   :     148992. kBytes
 
  
  
 General timing and accounting informations for this job:
 ========================================================
  
                  Total CPU time used (sec):     3878.768
                            User time (sec):     3486.780
                          System time (sec):      391.988
                         Elapsed time (sec):     3911.153
  
                   Maximum memory used (kb):      631348.
                   Average memory used (kb):           0.
  
                          Minor page faults:       271279
                          Major page faults:           22
                 Voluntary context switches:        29677
