 vasp.5.4.4.18Apr17-6-g9f103f2a35 (build Apr 30 2017 20:10:35) complex          
  
 executed on             LinuxIFC date 2017.08.07  10:49:58
 running on   64 total cores
 distrk:  each k-point on   64 cores,    1 groups
 distr:  one band on NCORES_PER_BAND=   8 cores,    8 groups


--------------------------------------------------------------------------------------------------------


 INCAR:
 POTCAR:   PAW_PBE Ti_pv 07Sep2000                
 POTCAR:   PAW_PBE O 08Apr2002                    
 POTCAR:    PAW_PBE F 08Apr2002                   
 POTCAR:   PAW_PBE Ti_pv 07Sep2000                
   VRHFIN =Ti: d3 s1                                                            
   LEXCH  = PE                                                                  
   EATOM  =  1042.3781 eV,   76.6126 Ry                                         
                                                                                
   TITEL  = PAW_PBE Ti_pv 07Sep2000                                             
   LULTRA =        F    use ultrasoft PP ?                                      
   IUNSCR =        1    unscreen: 0-lin 1-nonlin 2-no                           
   RPACOR =    2.200    partial core radius                                     
   POMASS =   47.880; ZVAL   =   10.000    mass and valenz                      
   RCORE  =    2.500    outmost cutoff radius                                   
   RWIGS  =    2.500; RWIGS  =    1.323    wigner-seitz radius (au A)           
   ENMAX  =  222.338; ENMIN  =  166.753 eV                                      
   RCLOC  =    1.701    cutoff for local pot                                    
   LCOR   =        T    correct aug charges                                     
   LPAW   =        T    paw PP                                                  
   EAUG   =  482.848                                                            
   DEXC   =    -.008                                                            
   RMAX   =    3.092    core radius for proj-oper                               
   RAUG   =    1.300    factor for augmentation sphere                          
   RDEP   =    2.538    radius for radial grids                                 
   QCUT   =   -4.042; QGAM   =    8.085    optimization parameters              
                                                                                
   Description                                                                  
     l     E      TYP  RCUT    TYP  RCUT                                        
     1   .000     23  2.300                                                     
     1  -.100     23  2.300                                                     
     2   .000     23  2.500                                                     
     2   .000     23  2.500                                                     
     0   .000     23  2.500                                                     
     0  1.500     23  2.500                                                     
     3   .000      7   .000                                                     
  local pseudopotential read in
  partial core-charges read in
  atomic valenz-charges read in
  non local Contribution for L=           1  read in
    real space projection operators read in
  non local Contribution for L=           1  read in
    real space projection operators read in
  non local Contribution for L=           2  read in
    real space projection operators read in
  non local Contribution for L=           2  read in
    real space projection operators read in
  non local Contribution for L=           0  read in
    real space projection operators read in
  non local Contribution for L=           0  read in
    real space projection operators read in
    PAW grid and wavefunctions read in
 
   number of l-projection  operators is LMAX  =           6
   number of lm-projection operators is LMMAX =          18
 
 POTCAR:   PAW_PBE O 08Apr2002                    
   VRHFIN =O: s2p4                                                              
   LEXCH  = PE                                                                  
   EATOM  =   432.3788 eV,   31.7789 Ry                                         
                                                                                
   TITEL  = PAW_PBE O 08Apr2002                                                 
   LULTRA =        F    use ultrasoft PP ?                                      
   IUNSCR =        0    unscreen: 0-lin 1-nonlin 2-no                           
   RPACOR =     .000    partial core radius                                     
   POMASS =   16.000; ZVAL   =    6.000    mass and valenz                      
   RCORE  =    1.520    outmost cutoff radius                                   
   RWIGS  =    1.550; RWIGS  =     .820    wigner-seitz radius (au A)           
   ENMAX  =  400.000; ENMIN  =  300.000 eV                                      
   ICORE  =        2    local potential                                         
   LCOR   =        T    correct aug charges                                     
   LPAW   =        T    paw PP                                                  
   EAUG   =  605.392                                                            
   DEXC   =     .000                                                            
   RMAX   =    2.264    core radius for proj-oper                               
   RAUG   =    1.300    factor for augmentation sphere                          
   RDEP   =    1.550    radius for radial grids                                 
   QCUT   =   -5.520; QGAM   =   11.041    optimization parameters              
                                                                                
   Description                                                                  
     l     E      TYP  RCUT    TYP  RCUT                                        
     0   .000     23  1.200                                                     
     0  -.700     23  1.200                                                     
     1   .000     23  1.520                                                     
     1   .600     23  1.520                                                     
     2   .000      7  1.500                                                     
  local pseudopotential read in
  atomic valenz-charges read in
  non local Contribution for L=           0  read in
    real space projection operators read in
  non local Contribution for L=           0  read in
    real space projection operators read in
  non local Contribution for L=           1  read in
    real space projection operators read in
  non local Contribution for L=           1  read in
    real space projection operators read in
    PAW grid and wavefunctions read in
 
   number of l-projection  operators is LMAX  =           4
   number of lm-projection operators is LMMAX =           8
 
 POTCAR:    PAW_PBE F 08Apr2002                   
   VRHFIN =F: s2p5                                                              
   LEXCH  = PE                                                                  
   EATOM  =   659.6475 eV,   48.4827 Ry                                         
                                                                                
   TITEL  = PAW_PBE F 08Apr2002                                                 
   LULTRA =        F    use ultrasoft PP ?                                      
   IUNSCR =        1    unscreen: 0-lin 1-nonlin 2-no                           
   RPACOR =    1.200    partial core radius                                     
   POMASS =   18.998; ZVAL   =    7.000    mass and valenz                      
   RCORE  =    1.520    outmost cutoff radius                                   
   RWIGS  =    1.500; RWIGS  =    0.794    wigner-seitz radius (au A)           
   ENMAX  =  400.000; ENMIN  =  300.000 eV                                      
   ICORE  =        2    local potential                                         
   LCOR   =        T    correct aug charges                                     
   LPAW   =        T    paw PP                                                  
   EAUG   =  613.614                                                            
   RMAX   =    1.555    core radius for proj-oper                               
   RAUG   =    1.300    factor for augmentation sphere                          
   RDEP   =    1.539    radius for radial grids                                 
   RDEPT  =    1.299    core radius for aug-charge                              
                                                                                
   Atomic configuration                                                         
    4 entries                                                                   
     n  l   j            E        occ.                                          
     1  0  0.50      -663.3661   2.0000                                         
     2  0  0.50       -29.8995   2.0000                                         
     2  1  0.50       -11.1114   5.0000                                         
     3  2  1.50       -10.8847   0.0000                                         
   Description                                                                  
     l       E           TYP  RCUT    TYP  RCUT                                 
     0    -29.8995018     23  1.200                                             
     0     -9.5240782     23  1.200                                             
     1    -11.1113914     23  1.520                                             
     1      1.3605826     23  1.520                                             
     2    -10.8846608      7  1.500                                             
  local pseudopotential read in
  partial core-charges read in
  partial kinetic energy density read in
  atomic valenz-charges read in
  non local Contribution for L=           0  read in
    real space projection operators read in
  non local Contribution for L=           0  read in
    real space projection operators read in
  non local Contribution for L=           1  read in
    real space projection operators read in
  non local Contribution for L=           1  read in
    real space projection operators read in
    PAW grid and wavefunctions read in
 
   number of l-projection  operators is LMAX  =           4
   number of lm-projection operators is LMMAX =           8
 
 Optimization of the real space projectors (new method)

 maximal supplied QI-value         = 15.12
 optimisation between [QCUT,QGAM] = [ 13.45, 27.06] = [ 50.69,205.06] Ry 
 Optimized for a Real-space Cutoff    1.49 Angstroem

   l    n(q)    QCUT    max X(q) W(low)/X(q) W(high)/X(q)  e(spline) 
   1     12    13.455     4.841    0.13E-05    0.83E-06    0.56E-07
   1     12    13.455     5.701    0.32E-04    0.25E-04    0.17E-06
   2     11    13.455     4.569    0.64E-05    0.34E-05    0.50E-07
   2     11    13.455    32.276    0.49E-04    0.38E-04    0.46E-06
   0     12    13.455    30.046    0.17E-04    0.41E-05    0.51E-07
   0     12    13.455    45.433    0.12E-04    0.27E-04    0.38E-06
 Optimization of the real space projectors (new method)

 maximal supplied QI-value         = 24.76
 optimisation between [QCUT,QGAM] = [ 13.37, 26.98] = [ 50.04,203.89] Ry 
 Optimized for a Real-space Cutoff    1.17 Angstroem

   l    n(q)    QCUT    max X(q) W(low)/X(q) W(high)/X(q)  e(spline) 
   0      9    13.368     4.192    0.20E-04    0.58E-05    0.56E-07
   0      9    13.368     8.473    0.60E-04    0.52E-04    0.21E-06
   1      9    13.368     2.474    0.22E-04    0.17E-04    0.28E-07
   1      9    13.368     3.912    0.94E-04    0.97E-04    0.20E-06
 Optimization of the real space projectors (new method)

 maximal supplied QI-value         = 24.76
 optimisation between [QCUT,QGAM] = [ 13.37, 26.98] = [ 50.04,203.89] Ry 
 Optimized for a Real-space Cutoff    1.17 Angstroem

   l    n(q)    QCUT    max X(q) W(low)/X(q) W(high)/X(q)  e(spline) 
   0      9    13.368    14.049    0.39E-04    0.34E-04    0.16E-06
   0      9    13.368     8.945    0.54E-04    0.47E-04    0.20E-06
   1      9    13.368     7.086    0.99E-04    0.10E-03    0.23E-06
   1      9    13.368     6.747    0.86E-04    0.89E-04    0.21E-06

 ----------------------------------------------------------------------------- 
|                                                                             |
|  ADVICE TO THIS USER RUNNING 'VASP/VAMP'   (HEAR YOUR MASTER'S VOICE ...):  |
|                                                                             |
|      You enforced a specific xc-type in the INCAR file,                     |
|      a different type was found on the POTCAR file                          |
|          I HOPE YOU KNOW, WHAT YOU ARE  DOING                               |
|                                                                             |
 ----------------------------------------------------------------------------- 

 PAW_PBE Ti_pv 07Sep2000                :
 energy of atom  1       EATOM=-1042.3781
 kinetic energy error for atom=    0.0006 (will be added to EATOM!!)
 PAW_PBE O 08Apr2002                    :
 energy of atom  2       EATOM= -432.3788
 kinetic energy error for atom=    0.0091 (will be added to EATOM!!)
  PAW_PBE F 08Apr2002                   :
 energy of atom  3       EATOM= -659.6475
 kinetic energy error for atom=    0.0140 (will be added to EATOM!!)
 
 
 POSCAR: TiOF2 2x2x2 config 2152                 
  positions in direct lattice
  velocities in cartesian coordinates
 exchange correlation table for  LEXCH =       14
   RHO(1)=    0.500       N(1)  =     2000
   RHO(2)=  100.500       N(2)  =     4000

 VTST: version 3.1, (03/28/14)

 CHAIN: initializing optimizer
 
 OPT: Using VASP QUASI-newton optimizer
 CHAIN: Read ICHAIN            0
 
 POSCAR: TiOF2 2x2x2 config 2152                 
  positions in direct lattice
  velocities in cartesian coordinates
 


--------------------------------------------------------------------------------------------------------


 ion  position               nearest neighbor table
   1  0.000  0.001  0.001-  28 1.92  29 1.92  23 1.96  25 1.96  17 2.02  20 2.03
   2  0.998  0.979  0.500-  11 1.73  21 1.93  18 1.93  28 1.97  29 1.97  24 2.03
   3  0.001  0.500  0.978-  14 1.74  23 1.93  25 1.94  22 1.94  19 1.95  30 2.04
   4  0.016  0.500  0.499-   9 1.78  14 1.99  11 2.00  30 2.01  24 2.02  10 2.09
   5  0.500  0.002  0.002-  31 1.86  32 1.86  26 1.87  27 1.87  20 1.90  17 1.90
   6  0.498  0.995  0.503-  13 1.78  12 1.90  21 2.00  18 2.00  32 2.02  31 2.02
   7  0.502  0.502  0.995-  16 1.78  15 1.93  22 1.99  19 2.00  27 2.01  26 2.02
   8  0.500  0.488  0.492-  12 1.93  15 1.94  10 1.96   9 2.02  16 2.12  13 2.16
   9  0.243  0.498  0.497-   4 1.78   8 2.02
  10  0.750  0.497  0.493-   8 1.96   4 2.09
  11  1.000  0.757  0.497-   2 1.73   4 2.00
  12  0.497  0.240  0.504-   6 1.90   8 1.93
  13  0.496  0.766  0.502-   6 1.78   8 2.16
  14  0.997  0.498  0.754-   3 1.74   4 1.99
  15  0.509  0.502  0.243-   7 1.93   8 1.94
  16  0.504  0.500  0.765-   7 1.78   8 2.12
  17  0.258  0.001  0.001-   5 1.90   1 2.02
  18  0.242  0.007  0.502-   2 1.93   6 2.00
  19  0.248  0.502  0.007-   3 1.95   7 2.00
  20  0.742  0.001  0.001-   5 1.90   1 2.03
  21  0.753  0.005  0.502-   2 1.93   6 2.00
  22  0.755  0.502  0.005-   3 1.94   7 1.99
  23  0.002  0.253  0.005-   3 1.93   1 1.96
  24  0.998  0.240  0.498-   4 2.02   2 2.03
  25  0.002  0.749  0.004-   3 1.94   1 1.96
  26  0.499  0.242  0.003-   5 1.87   7 2.02
  27  0.499  0.761  0.002-   5 1.87   7 2.01
  28  0.998  0.005  0.248-   1 1.92   2 1.97
  29  0.999  0.004  0.753-   1 1.92   2 1.97
  30  0.997  0.499  0.240-   4 2.01   3 2.04
  31  0.500  0.002  0.242-   5 1.86   6 2.02
  32  0.499  0.002  0.763-   5 1.86   6 2.02
 

IMPORTANT INFORMATION: All symmetrisations will be switched off!
NOSYMM: (Re-)initialisation of all symmetry stuff for point group C_1.

 
 
 KPOINTS: Title                                   

Automatic generation of k-mesh.
Space group operators:
 irot       det(A)        alpha          n_x          n_y          n_z        tau_x        tau_y        tau_z
    1     1.000000     0.000000     1.000000     0.000000     0.000000     0.000000     0.000000     0.000000
 
 Subroutine IBZKPT returns following result:
 ===========================================
 
 Found     32 irreducible k-points:
 
 Following reciprocal coordinates:
            Coordinates               Weight
  0.125000  0.125000  0.125000      2.000000
  0.375000  0.125000  0.125000      2.000000
 -0.375000  0.125000  0.125000      2.000000
 -0.125000  0.125000  0.125000      2.000000
  0.125000  0.375000  0.125000      2.000000
  0.375000  0.375000  0.125000      2.000000
 -0.375000  0.375000  0.125000      2.000000
 -0.125000  0.375000  0.125000      2.000000
  0.125000 -0.375000  0.125000      2.000000
  0.375000 -0.375000  0.125000      2.000000
 -0.375000 -0.375000  0.125000      2.000000
 -0.125000 -0.375000  0.125000      2.000000
  0.125000 -0.125000  0.125000      2.000000
  0.375000 -0.125000  0.125000      2.000000
 -0.375000 -0.125000  0.125000      2.000000
 -0.125000 -0.125000  0.125000      2.000000
  0.125000  0.125000  0.375000      2.000000
  0.375000  0.125000  0.375000      2.000000
 -0.375000  0.125000  0.375000      2.000000
 -0.125000  0.125000  0.375000      2.000000
  0.125000  0.375000  0.375000      2.000000
  0.375000  0.375000  0.375000      2.000000
 -0.375000  0.375000  0.375000      2.000000
 -0.125000  0.375000  0.375000      2.000000
  0.125000 -0.375000  0.375000      2.000000
  0.375000 -0.375000  0.375000      2.000000
 -0.375000 -0.375000  0.375000      2.000000
 -0.125000 -0.375000  0.375000      2.000000
  0.125000 -0.125000  0.375000      2.000000
  0.375000 -0.125000  0.375000      2.000000
 -0.375000 -0.125000  0.375000      2.000000
 -0.125000 -0.125000  0.375000      2.000000
 
 Following cartesian coordinates:
            Coordinates               Weight
  0.015996  0.016116  0.016192      2.000000
  0.047855  0.016122  0.016316      2.000000
 -0.047723  0.016104  0.015944      2.000000
 -0.015864  0.016110  0.016068      2.000000
  0.016001  0.048303  0.016231      2.000000
  0.047860  0.048309  0.016355      2.000000
 -0.047717  0.048291  0.015982      2.000000
 -0.015858  0.048297  0.016106      2.000000
  0.015984 -0.048258  0.016115      2.000000
  0.047843 -0.048252  0.016239      2.000000
 -0.047734 -0.048270  0.015866      2.000000
 -0.015875 -0.048264  0.015991      2.000000
  0.015990 -0.016071  0.016153      2.000000
  0.047849 -0.016065  0.016277      2.000000
 -0.047729 -0.016083  0.015905      2.000000
 -0.015869 -0.016077  0.016029      2.000000
  0.016122  0.016155  0.048413      2.000000
  0.047981  0.016161  0.048537      2.000000
 -0.047597  0.016143  0.048165      2.000000
 -0.015737  0.016149  0.048289      2.000000
  0.016127  0.048342  0.048452      2.000000
  0.047987  0.048348  0.048576      2.000000
 -0.047591  0.048329  0.048204      2.000000
 -0.015732  0.048335  0.048328      2.000000
  0.016110 -0.048219  0.048336      2.000000
  0.047969 -0.048213  0.048460      2.000000
 -0.047608 -0.048231  0.048088      2.000000
 -0.015749 -0.048225  0.048212      2.000000
  0.016116 -0.016032  0.048374      2.000000
  0.047975 -0.016026  0.048499      2.000000
 -0.047602 -0.016044  0.048126      2.000000
 -0.015743 -0.016038  0.048250      2.000000
 


--------------------------------------------------------------------------------------------------------




 Dimension of arrays:
   k-points           NKPTS =     32   k-points in BZ     NKDIM =     32   number of bands    NBANDS=    160
   number of dos      NEDOS =   3001   number of ions     NIONS =     32
   non local maximal  LDIM  =      6   non local SUM 2l+1 LMDIM =     18
   total plane-waves  NPLWV = 343000
   max r-space proj   IRMAX =  10057   max aug-charges    IRDMAX= 225447
   dimension x,y,z NGX =    70 NGY =   70 NGZ =   70
   dimension x,y,z NGXF=   140 NGYF=  140 NGZF=  140
   support grid    NGXF=   280 NGYF=  280 NGZF=  280
   ions per type =               8   8  16
   NGX,Y,Z   is equivalent  to a cutoff of  14.83, 14.98, 15.00 a.u.
   NGXF,Y,Z  is equivalent  to a cutoff of  29.66, 29.97, 30.00 a.u.

 SYSTEM =  LTO                                     
 POSCAR =  TiOF2 2x2x2 config 2152                 

 Startparameter for this run:
   NWRITE =      2    write-flag & timer
   PREC   = accura    normal or accurate (medium, high low for compatibility)
   ISTART =      1    job   : 0-new  1-cont  2-samecut
   ICHARG =      0    charge: 1-file 2-atom 10-const
   ISPIN  =      2    spin polarized calculation?
   LNONCOLLINEAR =      F non collinear calculations
   LSORBIT =      F    spin-orbit coupling
   INIWAV =      1    electr: 0-lowe 1-rand  2-diag
   LASPH  =      T    aspherical Exc in radial PAW
   METAGGA=      F    non-selfconsistent MetaGGA calc.

 Electronic Relaxation 1
   ENCUT  =  700.0 eV  51.45 Ry    7.17 a.u.  16.93 16.76 16.74*2*pi/ulx,y,z
   ENINI  =  700.0     initial cutoff
   ENAUG  =  613.6 eV  augmentation charge cutoff
   NELM   =     60;   NELMIN=  2; NELMDL=  0     # of ELM steps 
   EDIFF  = 0.1E-05   stopping-criterion for ELM
   LREAL  =      T    real-space projection
   NLSPLINE    = F    spline interpolate recip. space projectors
   LCOMPAT=      F    compatible to vasp.4.4
   GGA_COMPAT  = T    GGA compatible to vasp.4.4-vasp.4.6
   LMAXPAW     = -100 max onsite density
   LMAXMIX     =    4 max onsite mixed and CHGCAR
   VOSKOWN=      0    Vosko Wilk Nusair interpolation
   ROPT   =   -0.00010  -0.00010  -0.00010
 Ionic relaxation
   EDIFFG = -.1E-01   stopping-criterion for IOM
   NSW    =    100    number of steps for IOM
   NBLOCK =      1;   KBLOCK =    100    inner block; outer block 
   IBRION =      1    ionic relax: 0-MD 1-quasi-New 2-CG
   NFREE  =      0    steps in history (QN), initial steepest desc. (CG)
   ISIF   =      3    stress and relaxation
   IWAVPR =     11    prediction:  0-non 1-charg 2-wave 3-comb
   ISYM   =      0    0-nonsym 1-usesym 2-fastsym
   LCORR  =      T    Harris-Foulkes like correction to forces

   POTIM  = 0.5000    time-step for ionic-motion
   TEIN   =    0.0    initial temperature
   TEBEG  =    0.0;   TEEND  =   0.0 temperature during run
   SMASS  =  -3.00    Nose mass-parameter (am)
   estimated Nose-frequenzy (Omega)   =  0.10E-29 period in steps =****** mass=  -0.141E-26a.u.
   SCALEE = 1.0000    scale energy and forces
   NPACO  =    256;   APACO  = 16.0  distance and # of slots for P.C.
   PSTRESS=    0.0 pullay stress

  Mass of Ions in am
   POMASS =  47.88 16.00 19.00
  Ionic Valenz
   ZVAL   =  10.00  6.00  7.00
  Atomic Wigner-Seitz radii
   RWIGS  =  -1.00 -1.00 -1.00
  virtual crystal weights 
   VCA    =   1.00  1.00  1.00
   NELECT =     240.0000    total number of electrons
   NUPDOWN=      -1.0000    fix difference up-down

 DOS related values:
   EMIN   =  10.00;   EMAX   =-10.00  energy-range for DOS
   EFERMI =   0.00
   ISMEAR =     0;   SIGMA  =   0.01  broadening in eV -4-tet -1-fermi 0-gaus

 Electronic relaxation 2 (details)
   IALGO  =     38    algorithm
   LDIAG  =      T    sub-space diagonalisation (order eigenvalues)
   LSUBROT=      F    optimize rotation matrix (better conditioning)
   TURBO    =      0    0=normal 1=particle mesh
   IRESTART =      0    0=no restart 2=restart with 2 vectors
   NREBOOT  =      0    no. of reboots
   NMIN     =      0    reboot dimension
   EREF     =   0.00    reference energy to select bands
   IMIX   =      4    mixing-type and parameters
     AMIX     =   0.40;   BMIX     =  1.00
     AMIX_MAG =   1.60;   BMIX_MAG =  1.00
     AMIN     =   0.10
     WC   =   100.;   INIMIX=   1;  MIXPRE=   1;  MAXMIX= -45

 Intra band minimization:
   WEIMIN = 0.0010     energy-eigenvalue tresh-hold
   EBREAK =  0.16E-08  absolut break condition
   DEPER  =   0.30     relativ break condition  

   TIME   =   0.40     timestep for ELM

  volume/ion in A,a.u.               =      14.78        99.73
  Fermi-wavevector in a.u.,A,eV,Ry     =   1.305830  2.467661 23.200546  1.705192
  Thomas-Fermi vector in A             =   2.436673
 
 Write flags
   LWAVE        =      T    write WAVECAR
   LDOWNSAMPLE  =      F    k-point downsampling of WAVECAR
   LCHARG       =      T    write CHGCAR
   LVTOT        =      F    write LOCPOT, total local potential
   LVHAR        =      F    write LOCPOT, Hartree potential only
   LELF         =      F    write electronic localiz. function (ELF)
   LORBIT       =     11    0 simple, 1 ext, 2 COOP (PROOUT), +10 PAW based schemes


 Dipole corrections
   LMONO  =      F    monopole corrections only (constant potential shift)
   LDIPOL =      F    correct potential (dipole corrections)
   IDIPOL =      0    1-x, 2-y, 3-z, 4-all directions 
   EPSILON=  1.0000000 bulk dielectric constant

 LDA+U is selected, type is set to LDAUTYPE =  2
   angular momentum for each species LDAUL =     2   -1   -1
   U (eV)           for each species LDAUU =   4.2  0.0  0.0
   J (eV)           for each species LDAUJ =   0.0  0.0  0.0
 Exchange correlation treatment:
   GGA     =    PS    GGA type
   LEXCH   =    14    internal setting for exchange type
   VOSKOWN=      0    Vosko Wilk Nusair interpolation
   LHFCALC =     F    Hartree Fock is set to
   LHFONE  =     F    Hartree Fock one center treatment
   AEXX    =    0.0000 exact exchange contribution

 Linear response parameters
   LEPSILON=     F    determine dielectric tensor
   LRPA    =     F    only Hartree local field effects (RPA)
   LNABLA  =     F    use nabla operator in PAW spheres
   LVEL    =     F    velocity operator in full k-point grid
   LINTERFAST=   F  fast interpolation
   KINTER  =     0    interpolate to denser k-point grid
   CSHIFT  =0.1000    complex shift for real part using Kramers Kronig
   OMEGAMAX=  -1.0    maximum frequency
   DEG_THRESHOLD= 0.2000000E-02 threshold for treating states as degnerate
   RTIME   =   -0.100 relaxation time in fs
  (WPLASMAI=    0.000 imaginary part of plasma frequency in eV, 0.658/RTIME)
   DFIELD  = 0.0000000 0.0000000 0.0000000 field for delta impulse in time
 
 Orbital magnetization related:
   ORBITALMAG=     F  switch on orbital magnetization
   LCHIMAG   =     F  perturbation theory with respect to B field
   DQ        =  0.001000  dq finite difference perturbation B field
   LLRAUG    =     F  two centre corrections for induced B field



--------------------------------------------------------------------------------------------------------


 quasi-Newton-method for relaxation of ions
 charge density and potential will be updated during run
 spin polarized calculation
 Variant of blocked Davidson
 Davidson routine will perform the subspace rotation
 perform sub-space diagonalisation
    after iterative eigenvector-optimisation
 modified Broyden-mixing scheme, WC =      100.0
 initial mixing is a Kerker type mixing with AMIX =  0.4000 and BMIX =      1.0000
 Hartree-type preconditioning will be used
 using additional bands           40
 real space projection scheme for non local part
 use partial core corrections
 calculate Harris-corrections to forces 
   (improved forces if not selfconsistent)
 use gradient corrections 
 use of overlap-Matrix (Vanderbilt PP)
 Gauss-broadening in eV      SIGMA  =   0.01


--------------------------------------------------------------------------------------------------------


  energy-cutoff  :      700.00
  volume of cell :      472.91
      direct lattice vectors                 reciprocal lattice vectors
     7.847182990 -0.001404227 -0.030697551     0.127436212  0.000024306  0.000496366
    -0.001444934  7.767173826 -0.009366629     0.000023643  0.128747148  0.000154512
    -0.030219704 -0.009306165  7.759008958     0.000504214  0.000155519  0.128884590

  length of vectors
     7.847243159  7.767179609  7.759073388     0.127437181  0.128747243  0.128885670


 
 old parameters found on file WAVECAR:
  energy-cutoff  :      700.00
  volume of cell :      472.52
      direct lattice vectors                 reciprocal lattice vectors
     7.846258603 -0.001475238 -0.031204820     0.127451291  0.000025611  0.000504872
    -0.001518998  7.763852756 -0.010381888     0.000024899  0.128802265  0.000171390
    -0.030725265 -0.010315715  7.756894101     0.000512751  0.000172493  0.128919838

  length of vectors

 
 k-points in units of 2pi/SCALE and weight: Title                                   
   0.01599551  0.01611587  0.01619193       0.031
   0.04785456  0.01612195  0.01631603       0.031
  -0.04772260  0.01610372  0.01594375       0.031
  -0.01586354  0.01610980  0.01606784       0.031
   0.01600142  0.04830266  0.01623056       0.031
   0.04786047  0.04830874  0.01635465       0.031
  -0.04771669  0.04829051  0.01598238       0.031
  -0.01585763  0.04829658  0.01610647       0.031
   0.01598369 -0.04825770  0.01611468       0.031
   0.04784274 -0.04825163  0.01623877       0.031
  -0.04773442 -0.04826986  0.01586649       0.031
  -0.01587537 -0.04826378  0.01599059       0.031
   0.01598960 -0.01607092  0.01615331       0.031
   0.04784865 -0.01606484  0.01627740       0.031
  -0.04772851 -0.01608307  0.01590512       0.031
  -0.01586946 -0.01607699  0.01602921       0.031
   0.01612156  0.01615475  0.04841308       0.031
   0.04798061  0.01616083  0.04853717       0.031
  -0.04759654  0.01614260  0.04816490       0.031
  -0.01573749  0.01614867  0.04828899       0.031
   0.01612747  0.04834154  0.04845171       0.031
   0.04798653  0.04834761  0.04857580       0.031
  -0.04759063  0.04832939  0.04820353       0.031
  -0.01573158  0.04833546  0.04832762       0.031
   0.01610974 -0.04821882  0.04833583       0.031
   0.04796879 -0.04821275  0.04845992       0.031
  -0.04760837 -0.04823098  0.04808764       0.031
  -0.01574931 -0.04822490  0.04821173       0.031
   0.01611565 -0.01603204  0.04837445       0.031
   0.04797470 -0.01602596  0.04849854       0.031
  -0.04760245 -0.01604419  0.04812627       0.031
  -0.01574340 -0.01603811  0.04825036       0.031
 
 k-points in reciprocal lattice and weights: Title                                   
   0.12500000  0.12500000  0.12500000       0.031
   0.37500000  0.12500000  0.12500000       0.031
  -0.37500000  0.12500000  0.12500000       0.031
  -0.12500000  0.12500000  0.12500000       0.031
   0.12500000  0.37500000  0.12500000       0.031
   0.37500000  0.37500000  0.12500000       0.031
  -0.37500000  0.37500000  0.12500000       0.031
  -0.12500000  0.37500000  0.12500000       0.031
   0.12500000 -0.37500000  0.12500000       0.031
   0.37500000 -0.37500000  0.12500000       0.031
  -0.37500000 -0.37500000  0.12500000       0.031
  -0.12500000 -0.37500000  0.12500000       0.031
   0.12500000 -0.12500000  0.12500000       0.031
   0.37500000 -0.12500000  0.12500000       0.031
  -0.37500000 -0.12500000  0.12500000       0.031
  -0.12500000 -0.12500000  0.12500000       0.031
   0.12500000  0.12500000  0.37500000       0.031
   0.37500000  0.12500000  0.37500000       0.031
  -0.37500000  0.12500000  0.37500000       0.031
  -0.12500000  0.12500000  0.37500000       0.031
   0.12500000  0.37500000  0.37500000       0.031
   0.37500000  0.37500000  0.37500000       0.031
  -0.37500000  0.37500000  0.37500000       0.031
  -0.12500000  0.37500000  0.37500000       0.031
   0.12500000 -0.37500000  0.37500000       0.031
   0.37500000 -0.37500000  0.37500000       0.031
  -0.37500000 -0.37500000  0.37500000       0.031
  -0.12500000 -0.37500000  0.37500000       0.031
   0.12500000 -0.12500000  0.37500000       0.031
   0.37500000 -0.12500000  0.37500000       0.031
  -0.37500000 -0.12500000  0.37500000       0.031
  -0.12500000 -0.12500000  0.37500000       0.031
 
 position of ions in fractional coordinates (direct lattice) 
   0.00006845  0.00114361  0.00085411
   0.99764247  0.97937099  0.50010745
   0.00068333  0.50046580  0.97772008
   0.01604757  0.50021644  0.49859892
   0.49998890  0.00159779  0.00242736
   0.49761901  0.99505459  0.50252557
   0.50217716  0.50162233  0.99460413
   0.49976293  0.48818203  0.49232955
   0.24262560  0.49787393  0.49677370
   0.74968368  0.49716419  0.49267454
   0.99952847  0.75729940  0.49702177
   0.49700371  0.24022405  0.50385893
   0.49565726  0.76585098  0.50246616
   0.99687812  0.49772556  0.75403773
   0.50879370  0.50150939  0.24300531
   0.50353904  0.50049107  0.76539925
   0.25783887  0.00073460  0.00075723
   0.24246242  0.00741962  0.50204757
   0.24824815  0.50155821  0.00692713
   0.74199718  0.00072531  0.00134507
   0.75279310  0.00525368  0.50199865
   0.75508398  0.50202581  0.00505081
   0.00181060  0.25337178  0.00464431
   0.99753879  0.24023661  0.49763974
   0.00199981  0.74850078  0.00375220
   0.49942587  0.24212275  0.00283079
   0.49944280  0.76089215  0.00241083
   0.99813178  0.00467366  0.24804353
   0.99861241  0.00390720  0.75323254
   0.99722333  0.49899977  0.24007612
   0.50031477  0.00217603  0.24220070
   0.49937676  0.00160990  0.76263822
 
 position of ions in cartesian coordinates  (Angst):
   0.00050965  0.00887454  0.00661424
   7.81215482  7.60088971  3.84053963
  -0.02490732  3.87810509  7.58143017
   0.11013791  3.88060548  3.86345556
   3.92342873  0.01168562  0.00347052
   3.88828347  7.72338660  3.87450438
   3.90989461  3.88622673  7.69702826
   3.90614775  3.78651124  3.80007524
   1.88819571  3.86210960  3.84236016
   5.86729814  3.85592305  3.79499597
   7.82736873  5.87604713  3.81861991
   3.88450546  1.86047502  3.89193906
   3.87322227  5.94312560  3.87625050
   7.79917903  3.85750391  5.81532176
   3.98452903  3.89233472  1.86516423
   3.92750968  3.87957113  5.91859430
   2.02328482  0.00533666 -0.00204652
   1.88746449  0.05261688  3.88787907
   1.94711461  3.89527671  0.04142916
   5.82254599  0.00457919 -0.01234787
   5.89212734  0.03507746  3.87185392
   5.92440412  3.89821442  0.01130773
   0.01370164  1.96793686  0.03360646
   7.81248377  1.85992759  3.82831902
   0.01449794  5.81369796  0.02204100
   3.91865082  1.87988182  0.00436512
   3.91804672  5.90925786 -0.00375303
   7.82502021  0.03259118  1.89388801
   7.81352622  0.02193593  5.81364649
   7.81741791  3.87218344  1.82746650
   3.91873914  0.01394508  1.86385856
   3.89565178  0.00470586  5.90197208
 


--------------------------------------------------------------------------------------------------------


 k-point  1 :   0.1250 0.1250 0.1250  plane waves:   19882
 k-point  2 :   0.3750 0.1250 0.1250  plane waves:   19915
 k-point  3 :  -0.3750 0.1250 0.1250  plane waves:   19898
 k-point  4 :  -0.1250 0.1250 0.1250  plane waves:   19892
 k-point  5 :   0.1250 0.3750 0.1250  plane waves:   19866
 k-point  6 :   0.3750 0.3750 0.1250  plane waves:   19898
 k-point  7 :  -0.3750 0.3750 0.1250  plane waves:   19887
 k-point  8 :  -0.1250 0.3750 0.1250  plane waves:   19892
 k-point  9 :   0.1250-0.3750 0.1250  plane waves:   19863
 k-point 10 :   0.3750-0.3750 0.1250  plane waves:   19889
 k-point 11 :  -0.3750-0.3750 0.1250  plane waves:   19892
 k-point 12 :  -0.1250-0.3750 0.1250  plane waves:   19901
 k-point 13 :   0.1250-0.1250 0.1250  plane waves:   19887
 k-point 14 :   0.3750-0.1250 0.1250  plane waves:   19912
 k-point 15 :  -0.3750-0.1250 0.1250  plane waves:   19898
 k-point 16 :  -0.1250-0.1250 0.1250  plane waves:   19888
 k-point 17 :   0.1250 0.1250 0.3750  plane waves:   19874
 k-point 18 :   0.3750 0.1250 0.3750  plane waves:   19881
 k-point 19 :  -0.3750 0.1250 0.3750  plane waves:   19892
 k-point 20 :  -0.1250 0.1250 0.3750  plane waves:   19874
 k-point 21 :   0.1250 0.3750 0.3750  plane waves:   19878
 k-point 22 :   0.3750 0.3750 0.3750  plane waves:   19912
 k-point 23 :  -0.3750 0.3750 0.3750  plane waves:   19890
 k-point 24 :  -0.1250 0.3750 0.3750  plane waves:   19882
 k-point 25 :   0.1250-0.3750 0.3750  plane waves:   19871
 k-point 26 :   0.3750-0.3750 0.3750  plane waves:   19897
 k-point 27 :  -0.3750-0.3750 0.3750  plane waves:   19892
 k-point 28 :  -0.1250-0.3750 0.3750  plane waves:   19883
 k-point 29 :   0.1250-0.1250 0.3750  plane waves:   19875
 k-point 30 :   0.3750-0.1250 0.3750  plane waves:   19886
 k-point 31 :  -0.3750-0.1250 0.3750  plane waves:   19890
 k-point 32 :  -0.1250-0.1250 0.3750  plane waves:   19878

 maximum and minimum number of plane-waves per node :      2520     2457

 maximum number of plane-waves:     19915
 maximum index in each direction: 
   IXMAX=   17   IYMAX=   17   IZMAX=   16
   IXMIN=  -17   IYMIN=  -17   IZMIN=  -17


 real space projection operators:
  total allocation   :      18099.14 KBytes
  max/ min on nodes  :       2408.56       1878.72


 parallel 3D FFT for wavefunctions:
    minimum data exchange during FFTs selected (reduces bandwidth)
 parallel 3D FFT for charge:
    minimum data exchange during FFTs selected (reduces bandwidth)


 total amount of memory used by VASP MPI-rank0   107978. kBytes
=======================================================================

   base      :      30000. kBytes
   nonlr-proj:       8382. kBytes
   fftplans  :       8425. kBytes
   grid      :       8783. kBytes
   one-center:        124. kBytes
   wavefun   :      52264. kBytes
 
     INWAV:  cpu time   30.5454: real time   37.3594
 Broyden mixing: mesh for mixing (old mesh)
   NGX = 33   NGY = 33   NGZ = 33
  (NGX  =140   NGY  =140   NGZ  =140)
  gives a total of  35937 points

 charge density for first step will be calculated from the start-wavefunctions


--------------------------------------------------------------------------------------------------------


 Maximum index for non-local projection operator         1351
 Maximum index for augmentation-charges         7092 (set IRDMAX)


--------------------------------------------------------------------------------------------------------


 initial charge from wavefunction
 First call to EWALD:  gamma=   0.228
 Maximum number of real-space cells 3x 3x 3
 Maximum number of reciprocal cells 3x 3x 3

    FEWALD:  cpu time    0.0030: real time    0.0029


--------------------------------------- Iteration      1(   1)  ---------------------------------------


    POTLOK:  cpu time    0.1770: real time    0.1847
    SETDIJ:  cpu time    0.8409: real time    0.8388
     EDDAV:  cpu time   28.3617: real time   28.3457
       DOS:  cpu time    0.0050: real time    0.0052
    CHARGE:  cpu time    1.1778: real time    1.1761
    MIXING:  cpu time    0.0020: real time    0.0019
    --------------------------------------------
      LOOP:  cpu time   30.5644: real time   30.5524

 eigenvalue-minimisations  : 20480
 total energy-change (2. order) :-0.2077997E+03  (-0.9759551E-03)
 number of electron     240.0000004 magnetization       2.0000000
 augmentation part       62.0699952 magnetization       0.7666209

 Broyden mixing:
  rms(total) = 0.20794E-02    rms(broyden)= 0.20781E-02
  rms(prec ) = 0.30621E-02
  weight for this iteration     100.00

 Free energy of the ion-electron system (eV)
  ---------------------------------------------------
  alpha Z        PSCENC =       740.45437949
  Ewald energy   TEWEN  =    -12591.94380102
  -Hartree energ DENC   =     -8401.03641455
  -exchange      EXHF   =         0.00000000
  -V(xc)+E(xc)   XCENC  =      1119.16619507
  PAW double counting   =     17996.87029717   -18116.37193812
  entropy T*S    EENTRO =        -0.00010161
  eigenvalues    EBANDS =     -3257.29154998
  atomic energy  EATOM  =     22302.35321627
  Solvation  Ediel_sol  =         0.00000000
  ---------------------------------------------------
  free energy    TOTEN  =      -207.79971728 eV

  energy without entropy =     -207.79961567  energy(sigma->0) =     -207.79966647


--------------------------------------------------------------------------------------------------------




--------------------------------------- Iteration      1(   2)  ---------------------------------------


    POTLOK:  cpu time    0.1520: real time    0.1654
    SETDIJ:  cpu time    0.8339: real time    0.8326
     EDDAV:  cpu time   34.7267: real time   34.7193
       DOS:  cpu time    0.0050: real time    0.0052
    CHARGE:  cpu time    1.2378: real time    1.2376
    MIXING:  cpu time    0.0010: real time    0.0019
    --------------------------------------------
      LOOP:  cpu time   36.9564: real time   36.9621

 eigenvalue-minimisations  : 26872
 total energy-change (2. order) :-0.3884525E-06  (-0.5200353E-05)
 number of electron     240.0000004 magnetization       2.0000000
 augmentation part       62.0703093 magnetization       0.7666012

 Broyden mixing:
  rms(total) = 0.24152E-02    rms(broyden)= 0.24139E-02
  rms(prec ) = 0.32554E-02
  weight for this iteration     100.00

 eigenvalues of (default mixing * dielectric matrix)
  average eigenvalue GAMMA=   0.4558
  0.4558

 Free energy of the ion-electron system (eV)
  ---------------------------------------------------
  alpha Z        PSCENC =       740.45437949
  Ewald energy   TEWEN  =    -12591.94380102
  -Hartree energ DENC   =     -8401.03027424
  -exchange      EXHF   =         0.00000000
  -V(xc)+E(xc)   XCENC  =      1119.16630375
  PAW double counting   =     17996.86235519   -18116.36470916
  entropy T*S    EENTRO =        -0.00010908
  eigenvalues    EBANDS =     -3257.29707888
  atomic energy  EATOM  =     22302.35321627
  Solvation  Ediel_sol  =         0.00000000
  ---------------------------------------------------
  free energy    TOTEN  =      -207.79971767 eV

  energy without entropy =     -207.79960859  energy(sigma->0) =     -207.79966313


--------------------------------------------------------------------------------------------------------




--------------------------------------- Iteration      1(   3)  ---------------------------------------


    POTLOK:  cpu time    0.1540: real time    0.1666
    SETDIJ:  cpu time    0.8359: real time    0.8351
     EDDAV:  cpu time   27.4668: real time   27.4546
       DOS:  cpu time    0.0050: real time    0.0049
    CHARGE:  cpu time    1.1878: real time    1.1858
    MIXING:  cpu time    0.0080: real time    0.0082
    --------------------------------------------
      LOOP:  cpu time   29.6575: real time   29.6552

 eigenvalue-minimisations  : 19680
 total energy-change (2. order) : 0.2961162E-05  (-0.1060404E-05)
 number of electron     240.0000004 magnetization       2.0000000
 augmentation part       62.0702017 magnetization       0.7666156

 Broyden mixing:
  rms(total) = 0.16379E-02    rms(broyden)= 0.16371E-02
  rms(prec ) = 0.19678E-02
  weight for this iteration     100.00

 eigenvalues of (default mixing * dielectric matrix)
  average eigenvalue GAMMA=   0.7643
  1.0133  0.5154

 Free energy of the ion-electron system (eV)
  ---------------------------------------------------
  alpha Z        PSCENC =       740.45437949
  Ewald energy   TEWEN  =    -12591.94380102
  -Hartree energ DENC   =     -8401.03254240
  -exchange      EXHF   =         0.00000000
  -V(xc)+E(xc)   XCENC  =      1119.16637332
  PAW double counting   =     17996.86734117   -18116.36924024
  entropy T*S    EENTRO =        -0.00010755
  eigenvalues    EBANDS =     -3257.29533374
  atomic energy  EATOM  =     22302.35321627
  Solvation  Ediel_sol  =         0.00000000
  ---------------------------------------------------
  free energy    TOTEN  =      -207.79971471 eV

  energy without entropy =     -207.79960716  energy(sigma->0) =     -207.79966093


--------------------------------------------------------------------------------------------------------




--------------------------------------- Iteration      1(   4)  ---------------------------------------


    POTLOK:  cpu time    0.1470: real time    0.1627
    SETDIJ:  cpu time    0.8309: real time    0.8395
     EDDAV:  cpu time   20.9338: real time   21.0747
       DOS:  cpu time    0.0040: real time    0.0049
    --------------------------------------------
      LOOP:  cpu time   21.9157: real time   22.0818

 eigenvalue-minimisations  : 13224
 total energy-change (2. order) :-0.1671942E-06  (-0.1484906E-06)
 number of electron     240.0000004 magnetization       2.0000000
 augmentation part       62.0702017 magnetization       0.7666156

 Free energy of the ion-electron system (eV)
  ---------------------------------------------------
  alpha Z        PSCENC =       740.45437949
  Ewald energy   TEWEN  =    -12591.94380102
  -Hartree energ DENC   =     -8401.03261348
  -exchange      EXHF   =         0.00000000
  -V(xc)+E(xc)   XCENC  =      1119.16638690
  PAW double counting   =     17996.86705596   -18116.36899114
  entropy T*S    EENTRO =        -0.00010718
  eigenvalues    EBANDS =     -3257.29524068
  atomic energy  EATOM  =     22302.35321627
  Solvation  Ediel_sol  =         0.00000000
  ---------------------------------------------------
  free energy    TOTEN  =      -207.79971488 eV

  energy without entropy =     -207.79960770  energy(sigma->0) =     -207.79966129


--------------------------------------------------------------------------------------------------------




 average (electrostatic) potential at core
  the test charge radii are     1.0397  0.7215  0.7167
  (the norm of the test charge is              1.0000)
       1 -58.4299       2 -59.0291       3 -59.0174       4 -57.9119       5 -60.8870
       6 -58.1045       7 -58.3678       8 -57.4452       9 -72.9984      10 -73.4224
      11 -74.1848      12 -72.7192      13 -72.8865      14 -74.1635      15 -73.0871
      16 -73.1884      17 -80.5161      18 -79.3194      19 -79.3772      20 -80.5176
      21 -79.3401      22 -79.3747      23 -79.8161      24 -78.3785      25 -79.8329
      26 -80.3560      27 -80.3606      28 -80.2006      29 -80.2219      30 -78.4039
      31 -80.3718      32 -80.3712
 
 
 
 E-fermi :   0.4524     XC(G=0):  -8.8647     alpha+bet : -7.4720


 spin component 1

 k-point     1 :       0.1250    0.1250    0.1250
  band No.  band energies     occupation 
      1     -36.8570      1.00000
      2     -36.8184      1.00000
      3     -36.8015      1.00000
      4     -35.3832      1.00000
      5     -35.1372      1.00000
      6     -35.1326      1.00000
      7     -35.0514      1.00000
      8     -35.0402      1.00000
      9     -34.8180      1.00000
     10     -34.8174      1.00000
     11     -34.7902      1.00000
     12     -34.7330      1.00000
     13     -34.5190      1.00000
     14     -34.4817      1.00000
     15     -34.3033      1.00000
     16     -34.2285      1.00000
     17     -33.9195      1.00000
     18     -33.8817      1.00000
     19     -33.8551      1.00000
     20     -33.6415      1.00000
     21     -33.6006      1.00000
     22     -33.2206      1.00000
     23     -33.1952      1.00000
     24     -33.1763      1.00000
     25     -24.5145      1.00000
     26     -24.2386      1.00000
     27     -24.1380      1.00000
     28     -24.0867      1.00000
     29     -23.9088      1.00000
     30     -23.7148      1.00000
     31     -23.6978      1.00000
     32     -23.6948      1.00000
     33     -23.6012      1.00000
     34     -23.2496      1.00000
     35     -23.1965      1.00000
     36     -23.1672      1.00000
     37     -22.8088      1.00000
     38     -22.7544      1.00000
     39     -22.1017      1.00000
     40     -22.0139      1.00000
     41     -16.6215      1.00000
     42     -16.4441      1.00000
     43     -16.2158      1.00000
     44     -15.8851      1.00000
     45     -15.5655      1.00000
     46     -15.2716      1.00000
     47     -15.2289      1.00000
     48     -14.8658      1.00000
     49      -8.0157      1.00000
     50      -7.9136      1.00000
     51      -7.8462      1.00000
     52      -7.6292      1.00000
     53      -7.2374      1.00000
     54      -6.7489      1.00000
     55      -6.7166      1.00000
     56      -6.6986      1.00000
     57      -6.6730      1.00000
     58      -6.5728      1.00000
     59      -6.3907      1.00000
     60      -6.3714      1.00000
     61      -6.3555      1.00000
     62      -6.1727      1.00000
     63      -6.0197      1.00000
     64      -5.9385      1.00000
     65      -5.7339      1.00000
     66      -5.6714      1.00000
     67      -5.6444      1.00000
     68      -5.5561      1.00000
     69      -5.5155      1.00000
     70      -5.4884      1.00000
     71      -5.4522      1.00000
     72      -5.2464      1.00000
     73      -5.1626      1.00000
     74      -5.1324      1.00000
     75      -5.0161      1.00000
     76      -5.0003      1.00000
     77      -4.9544      1.00000
     78      -4.9253      1.00000
     79      -4.8890      1.00000
     80      -4.8670      1.00000
     81      -4.8178      1.00000
     82      -4.7871      1.00000
     83      -4.7192      1.00000
     84      -4.6252      1.00000
     85      -4.5551      1.00000
     86      -4.5126      1.00000
     87      -4.2019      1.00000
     88      -4.1920      1.00000
     89      -4.1503      1.00000
     90      -4.0980      1.00000
     91      -3.9210      1.00000
     92      -3.8913      1.00000
     93      -3.8425      1.00000
     94      -3.6830      1.00000
     95      -3.6296      1.00000
     96      -3.4591      1.00000
     97      -3.3707      1.00000
     98      -3.2814      1.00000
     99      -3.1837      1.00000
    100      -3.1546      1.00000
    101      -2.8099      1.00000
    102      -2.4597      1.00000
    103      -2.2962      1.00000
    104      -2.2697      1.00000
    105      -1.9442      1.00000
    106      -1.9286      1.00000
    107      -1.7325      1.00000
    108      -1.7034      1.00000
    109      -1.5528      1.00000
    110      -1.5076      1.00000
    111      -1.3390      1.00000
    112      -0.8711      1.00000
    113      -0.8622      1.00000
    114      -0.6818      1.00000
    115      -0.6477      1.00000
    116      -0.4755      1.00000
    117      -0.4288      1.00000
    118      -0.3723      1.00000
    119      -0.3100      1.00000
    120      -0.1716      1.00000
    121      -0.0398      1.00000
    122       1.0222      0.00000
    123       1.1103      0.00000
    124       1.2180      0.00000
    125       2.0629      0.00000
    126       2.1313      0.00000
    127       2.2889      0.00000
    128       2.3998      0.00000
    129       2.5412      0.00000
    130       2.6954      0.00000
    131       2.7043      0.00000
    132       2.7626      0.00000
    133       2.8474      0.00000
    134       3.0037      0.00000
    135       3.1053      0.00000
    136       3.1348      0.00000
    137       3.2050      0.00000
    138       3.3023      0.00000
    139       3.4965      0.00000
    140       3.5210      0.00000
    141       3.6188      0.00000
    142       3.6750      0.00000
    143       3.8876      0.00000
    144       3.9794      0.00000
    145       4.1502      0.00000
    146       4.1793      0.00000
    147       4.2628      0.00000
    148       4.3048      0.00000
    149       4.5164      0.00000
    150       4.9214      0.00000
    151       4.9867      0.00000
    152       4.9994      0.00000
    153       5.0617      0.00000
    154       5.0868      0.00000
    155       5.2477      0.00000
    156       5.4204      0.00000
    157       5.5305      0.00000
    158       6.3601      0.00000
    159       6.4195      0.00000
    160       7.2217      0.00000

 k-point     2 :       0.3750    0.1250    0.1250
  band No.  band energies     occupation 
      1     -36.8563      1.00000
      2     -36.8184      1.00000
      3     -36.8015      1.00000
      4     -35.3832      1.00000
      5     -35.1372      1.00000
      6     -35.1326      1.00000
      7     -35.0493      1.00000
      8     -35.0372      1.00000
      9     -34.8180      1.00000
     10     -34.8175      1.00000
     11     -34.7917      1.00000
     12     -34.7330      1.00000
     13     -34.5190      1.00000
     14     -34.4854      1.00000
     15     -34.3033      1.00000
     16     -34.2313      1.00000
     17     -33.9195      1.00000
     18     -33.8817      1.00000
     19     -33.8551      1.00000
     20     -33.6415      1.00000
     21     -33.5995      1.00000
     22     -33.2207      1.00000
     23     -33.1964      1.00000
     24     -33.1763      1.00000
     25     -24.4518      1.00000
     26     -24.2083      1.00000
     27     -24.1370      1.00000
     28     -24.1108      1.00000
     29     -23.9853      1.00000
     30     -23.7070      1.00000
     31     -23.6983      1.00000
     32     -23.6946      1.00000
     33     -23.6011      1.00000
     34     -23.2449      1.00000
     35     -23.0934      1.00000
     36     -23.0596      1.00000
     37     -22.9262      1.00000
     38     -22.8695      1.00000
     39     -22.1006      1.00000
     40     -22.0130      1.00000
     41     -16.6107      1.00000
     42     -16.4440      1.00000
     43     -16.1640      1.00000
     44     -15.8878      1.00000
     45     -15.5813      1.00000
     46     -15.3335      1.00000
     47     -15.2276      1.00000
     48     -14.8653      1.00000
     49      -7.9106      1.00000
     50      -7.8457      1.00000
     51      -7.7213      1.00000
     52      -7.5827      1.00000
     53      -7.2597      1.00000
     54      -6.8907      1.00000
     55      -6.5604      1.00000
     56      -6.5494      1.00000
     57      -6.4097      1.00000
     58      -6.3912      1.00000
     59      -6.3804      1.00000
     60      -6.3686      1.00000
     61      -6.3438      1.00000
     62      -6.1930      1.00000
     63      -6.0527      1.00000
     64      -6.0173      1.00000
     65      -6.0003      1.00000
     66      -5.9222      1.00000
     67      -5.8797      1.00000
     68      -5.8395      1.00000
     69      -5.7330      1.00000
     70      -5.5607      1.00000
     71      -5.3516      1.00000
     72      -5.1375      1.00000
     73      -5.0742      1.00000
     74      -5.0634      1.00000
     75      -5.0417      1.00000
     76      -4.9799      1.00000
     77      -4.9513      1.00000
     78      -4.8564      1.00000
     79      -4.8160      1.00000
     80      -4.7672      1.00000
     81      -4.7467      1.00000
     82      -4.7404      1.00000
     83      -4.7067      1.00000
     84      -4.6135      1.00000
     85      -4.5871      1.00000
     86      -4.5662      1.00000
     87      -4.3396      1.00000
     88      -4.2798      1.00000
     89      -4.1625      1.00000
     90      -4.1525      1.00000
     91      -4.0172      1.00000
     92      -3.9481      1.00000
     93      -3.8398      1.00000
     94      -3.6848      1.00000
     95      -3.4907      1.00000
     96      -3.3980      1.00000
     97      -3.3600      1.00000
     98      -3.2072      1.00000
     99      -3.1623      1.00000
    100      -3.0480      1.00000
    101      -2.8151      1.00000
    102      -2.5076      1.00000
    103      -2.2752      1.00000
    104      -2.2671      1.00000
    105      -1.9738      1.00000
    106      -1.9459      1.00000
    107      -1.9271      1.00000
    108      -1.7244      1.00000
    109      -1.6322      1.00000
    110      -1.4261      1.00000
    111      -1.2708      1.00000
    112      -0.9110      1.00000
    113      -0.8336      1.00000
    114      -0.8127      1.00000
    115      -0.6710      1.00000
    116      -0.5278      1.00000
    117      -0.5097      1.00000
    118      -0.4169      1.00000
    119      -0.3560      1.00000
    120      -0.1719      1.00000
    121      -0.0518      1.00000
    122       1.0580      0.00000
    123       1.1102      0.00000
    124       1.2180      0.00000
    125       2.0632      0.00000
    126       2.0905      0.00000
    127       2.5291      0.00000
    128       2.5578      0.00000
    129       2.6865      0.00000
    130       2.7709      0.00000
    131       2.8377      0.00000
    132       2.8488      0.00000
    133       2.8964      0.00000
    134       2.9711      0.00000
    135       3.0148      0.00000
    136       3.1092      0.00000
    137       3.1548      0.00000
    138       3.2217      0.00000
    139       3.4011      0.00000
    140       3.5691      0.00000
    141       3.6685      0.00000
    142       3.8930      0.00000
    143       3.9792      0.00000
    144       4.1338      0.00000
    145       4.1780      0.00000
    146       4.2403      0.00000
    147       4.3125      0.00000
    148       4.4929      0.00000
    149       4.6400      0.00000
    150       4.8069      0.00000
    151       4.8497      0.00000
    152       4.9317      0.00000
    153       4.9908      0.00000
    154       5.0310      0.00000
    155       5.2417      0.00000
    156       5.2936      0.00000
    157       5.6510      0.00000
    158       6.4447      0.00000
    159       6.5166      0.00000
    160       6.6963      0.00000

 k-point     3 :      -0.3750    0.1250    0.1250
  band No.  band energies     occupation 
      1     -36.8563      1.00000
      2     -36.8184      1.00000
      3     -36.8015      1.00000
      4     -35.3832      1.00000
      5     -35.1372      1.00000
      6     -35.1326      1.00000
      7     -35.0493      1.00000
      8     -35.0372      1.00000
      9     -34.8180      1.00000
     10     -34.8175      1.00000
     11     -34.7917      1.00000
     12     -34.7330      1.00000
     13     -34.5190      1.00000
     14     -34.4854      1.00000
     15     -34.3033      1.00000
     16     -34.2313      1.00000
     17     -33.9195      1.00000
     18     -33.8817      1.00000
     19     -33.8551      1.00000
     20     -33.6415      1.00000
     21     -33.5995      1.00000
     22     -33.2207      1.00000
     23     -33.1964      1.00000
     24     -33.1763      1.00000
     25     -24.4519      1.00000
     26     -24.2083      1.00000
     27     -24.1371      1.00000
     28     -24.1102      1.00000
     29     -23.9859      1.00000
     30     -23.7069      1.00000
     31     -23.6984      1.00000
     32     -23.6945      1.00000
     33     -23.6011      1.00000
     34     -23.2449      1.00000
     35     -23.0935      1.00000
     36     -23.0598      1.00000
     37     -22.9262      1.00000
     38     -22.8694      1.00000
     39     -22.1006      1.00000
     40     -22.0130      1.00000
     41     -16.6108      1.00000
     42     -16.4440      1.00000
     43     -16.1646      1.00000
     44     -15.8858      1.00000
     45     -15.5825      1.00000
     46     -15.3361      1.00000
     47     -15.2253      1.00000
     48     -14.8652      1.00000
     49      -7.9107      1.00000
     50      -7.8456      1.00000
     51      -7.7229      1.00000
     52      -7.5808      1.00000
     53      -7.2599      1.00000
     54      -6.8912      1.00000
     55      -6.5605      1.00000
     56      -6.5518      1.00000
     57      -6.4104      1.00000
     58      -6.3899      1.00000
     59      -6.3774      1.00000
     60      -6.3687      1.00000
     61      -6.3455      1.00000
     62      -6.1936      1.00000
     63      -6.0523      1.00000
     64      -6.0183      1.00000
     65      -5.9941      1.00000
     66      -5.9202      1.00000
     67      -5.8806      1.00000
     68      -5.8422      1.00000
     69      -5.7324      1.00000
     70      -5.5594      1.00000
     71      -5.3433      1.00000
     72      -5.1322      1.00000
     73      -5.0808      1.00000
     74      -5.0653      1.00000
     75      -5.0497      1.00000
     76      -4.9797      1.00000
     77      -4.9580      1.00000
     78      -4.8543      1.00000
     79      -4.8204      1.00000
     80      -4.7656      1.00000
     81      -4.7517      1.00000
     82      -4.7432      1.00000
     83      -4.7091      1.00000
     84      -4.6137      1.00000
     85      -4.5890      1.00000
     86      -4.5581      1.00000
     87      -4.3349      1.00000
     88      -4.2779      1.00000
     89      -4.1628      1.00000
     90      -4.1502      1.00000
     91      -4.0138      1.00000
     92      -3.9479      1.00000
     93      -3.8398      1.00000
     94      -3.6858      1.00000
     95      -3.4812      1.00000
     96      -3.4083      1.00000
     97      -3.3737      1.00000
     98      -3.2120      1.00000
     99      -3.1585      1.00000
    100      -3.0259      1.00000
    101      -2.8147      1.00000
    102      -2.5048      1.00000
    103      -2.2712      1.00000
    104      -2.2369      1.00000
    105      -2.0450      1.00000
    106      -1.9488      1.00000
    107      -1.9191      1.00000
    108      -1.7247      1.00000
    109      -1.6321      1.00000
    110      -1.4108      1.00000
    111      -1.2663      1.00000
    112      -0.9165      1.00000
    113      -0.8139      1.00000
    114      -0.8116      1.00000
    115      -0.6667      1.00000
    116      -0.5423      1.00000
    117      -0.5021      1.00000
    118      -0.4187      1.00000
    119      -0.3645      1.00000
    120      -0.1722      1.00000
    121      -0.0548      1.00000
    122       1.0580      0.00000
    123       1.1101      0.00000
    124       1.2180      0.00000
    125       2.0632      0.00000
    126       2.0906      0.00000
    127       2.5297      0.00000
    128       2.5580      0.00000
    129       2.6857      0.00000
    130       2.7717      0.00000
    131       2.8385      0.00000
    132       2.8499      0.00000
    133       2.9092      0.00000
    134       2.9732      0.00000
    135       3.0214      0.00000
    136       3.1078      0.00000
    137       3.1568      0.00000
    138       3.2196      0.00000
    139       3.3944      0.00000
    140       3.5620      0.00000
    141       3.6749      0.00000
    142       3.8668      0.00000
    143       3.9793      0.00000
    144       4.1054      0.00000
    145       4.1706      0.00000
    146       4.2642      0.00000
    147       4.3234      0.00000
    148       4.5159      0.00000
    149       4.6443      0.00000
    150       4.8167      0.00000
    151       4.8331      0.00000
    152       4.9326      0.00000
    153       4.9939      0.00000
    154       5.0262      0.00000
    155       5.2298      0.00000
    156       5.2909      0.00000
    157       5.6632      0.00000
    158       6.4459      0.00000
    159       6.5163      0.00000
    160       6.6920      0.00000

 k-point     4 :      -0.1250    0.1250    0.1250
  band No.  band energies     occupation 
      1     -36.8570      1.00000
      2     -36.8184      1.00000
      3     -36.8015      1.00000
      4     -35.3832      1.00000
      5     -35.1372      1.00000
      6     -35.1326      1.00000
      7     -35.0514      1.00000
      8     -35.0402      1.00000
      9     -34.8180      1.00000
     10     -34.8174      1.00000
     11     -34.7902      1.00000
     12     -34.7330      1.00000
     13     -34.5190      1.00000
     14     -34.4817      1.00000
     15     -34.3033      1.00000
     16     -34.2285      1.00000
     17     -33.9195      1.00000
     18     -33.8817      1.00000
     19     -33.8551      1.00000
     20     -33.6415      1.00000
     21     -33.6006      1.00000
     22     -33.2206      1.00000
     23     -33.1952      1.00000
     24     -33.1763      1.00000
     25     -24.5145      1.00000
     26     -24.2386      1.00000
     27     -24.1380      1.00000
     28     -24.0864      1.00000
     29     -23.9093      1.00000
     30     -23.7147      1.00000
     31     -23.6978      1.00000
     32     -23.6947      1.00000
     33     -23.6012      1.00000
     34     -23.2496      1.00000
     35     -23.1965      1.00000
     36     -23.1673      1.00000
     37     -22.8088      1.00000
     38     -22.7543      1.00000
     39     -22.1017      1.00000
     40     -22.0139      1.00000
     41     -16.6215      1.00000
     42     -16.4441      1.00000
     43     -16.2161      1.00000
     44     -15.8837      1.00000
     45     -15.5663      1.00000
     46     -15.2772      1.00000
     47     -15.2237      1.00000
     48     -14.8657      1.00000
     49      -8.0159      1.00000
     50      -7.9137      1.00000
     51      -7.8463      1.00000
     52      -7.6288      1.00000
     53      -7.2375      1.00000
     54      -6.7487      1.00000
     55      -6.7169      1.00000
     56      -6.7041      1.00000
     57      -6.6670      1.00000
     58      -6.5736      1.00000
     59      -6.3905      1.00000
     60      -6.3721      1.00000
     61      -6.3557      1.00000
     62      -6.1724      1.00000
     63      -6.0195      1.00000
     64      -5.9388      1.00000
     65      -5.7324      1.00000
     66      -5.6655      1.00000
     67      -5.6471      1.00000
     68      -5.5557      1.00000
     69      -5.5112      1.00000
     70      -5.4874      1.00000
     71      -5.4486      1.00000
     72      -5.2470      1.00000
     73      -5.1691      1.00000
     74      -5.1330      1.00000
     75      -5.0187      1.00000
     76      -5.0003      1.00000
     77      -4.9557      1.00000
     78      -4.9281      1.00000
     79      -4.8913      1.00000
     80      -4.8687      1.00000
     81      -4.8244      1.00000
     82      -4.7872      1.00000
     83      -4.7186      1.00000
     84      -4.6248      1.00000
     85      -4.5526      1.00000
     86      -4.5136      1.00000
     87      -4.2000      1.00000
     88      -4.1891      1.00000
     89      -4.1479      1.00000
     90      -4.0967      1.00000
     91      -3.9192      1.00000
     92      -3.8899      1.00000
     93      -3.8424      1.00000
     94      -3.6836      1.00000
     95      -3.6302      1.00000
     96      -3.4580      1.00000
     97      -3.3839      1.00000
     98      -3.2828      1.00000
     99      -3.1787      1.00000
    100      -3.1437      1.00000
    101      -2.8094      1.00000
    102      -2.4467      1.00000
    103      -2.2820      1.00000
    104      -2.2706      1.00000
    105      -1.9998      1.00000
    106      -1.9315      1.00000
    107      -1.7304      1.00000
    108      -1.6973      1.00000
    109      -1.5405      1.00000
    110      -1.5044      1.00000
    111      -1.3360      1.00000
    112      -0.8710      1.00000
    113      -0.8645      1.00000
    114      -0.6792      1.00000
    115      -0.6253      1.00000
    116      -0.4686      1.00000
    117      -0.4448      1.00000
    118      -0.3772      1.00000
    119      -0.3159      1.00000
    120      -0.1715      1.00000
    121      -0.0445      1.00000
    122       1.0220      0.00000
    123       1.1103      0.00000
    124       1.2180      0.00000
    125       2.0630      0.00000
    126       2.1311      0.00000
    127       2.2891      0.00000
    128       2.3999      0.00000
    129       2.5424      0.00000
    130       2.6957      0.00000
    131       2.7067      0.00000
    132       2.7752      0.00000
    133       2.8475      0.00000
    134       3.0092      0.00000
    135       3.1063      0.00000
    136       3.1342      0.00000
    137       3.2037      0.00000
    138       3.3022      0.00000
    139       3.4949      0.00000
    140       3.5195      0.00000
    141       3.6287      0.00000
    142       3.6447      0.00000
    143       3.8746      0.00000
    144       3.9797      0.00000
    145       4.1436      0.00000
    146       4.1836      0.00000
    147       4.2652      0.00000
    148       4.3210      0.00000
    149       4.5206      0.00000
    150       4.9225      0.00000
    151       4.9923      0.00000
    152       4.9998      0.00000
    153       5.0502      0.00000
    154       5.0856      0.00000
    155       5.2515      0.00000
    156       5.4210      0.00000
    157       5.5305      0.00000
    158       6.3608      0.00000
    159       6.4204      0.00000
    160       7.2199      0.00000

 k-point     5 :       0.1250    0.3750    0.1250
  band No.  band energies     occupation 
      1     -36.8570      1.00000
      2     -36.8184      1.00000
      3     -36.8007      1.00000
      4     -35.3832      1.00000
      5     -35.1372      1.00000
      6     -35.1261      1.00000
      7     -35.0514      1.00000
      8     -35.0402      1.00000
      9     -34.8178      1.00000
     10     -34.8170      1.00000
     11     -34.7902      1.00000
     12     -34.7402      1.00000
     13     -34.5208      1.00000
     14     -34.4817      1.00000
     15     -34.3033      1.00000
     16     -34.2285      1.00000
     17     -33.9195      1.00000
     18     -33.8817      1.00000
     19     -33.8564      1.00000
     20     -33.6404      1.00000
     21     -33.6006      1.00000
     22     -33.2206      1.00000
     23     -33.1952      1.00000
     24     -33.1776      1.00000
     25     -24.4967      1.00000
     26     -24.2190      1.00000
     27     -24.0930      1.00000
     28     -24.0509      1.00000
     29     -23.9084      1.00000
     30     -23.8203      1.00000
     31     -23.6952      1.00000
     32     -23.6089      1.00000
     33     -23.5855      1.00000
     34     -23.3876      1.00000
     35     -23.1882      1.00000
     36     -23.1671      1.00000
     37     -22.8086      1.00000
     38     -22.7544      1.00000
     39     -22.0978      1.00000
     40     -22.0115      1.00000
     41     -16.6371      1.00000
     42     -16.4482      1.00000
     43     -16.2009      1.00000
     44     -15.8813      1.00000
     45     -15.4743      1.00000
     46     -15.2887      1.00000
     47     -15.2314      1.00000
     48     -14.9754      1.00000
     49      -8.0039      1.00000
     50      -7.8842      1.00000
     51      -7.6278      1.00000
     52      -7.5188      1.00000
     53      -6.9110      1.00000
     54      -6.8070      1.00000
     55      -6.6987      1.00000
     56      -6.6730      1.00000
     57      -6.6456      1.00000
     58      -6.6175      1.00000
     59      -6.5723      1.00000
     60      -6.3806      1.00000
     61      -6.3286      1.00000
     62      -6.3043      1.00000
     63      -6.1758      1.00000
     64      -5.9495      1.00000
     65      -5.7517      1.00000
     66      -5.7061      1.00000
     67      -5.6638      1.00000
     68      -5.6241      1.00000
     69      -5.4955      1.00000
     70      -5.4340      1.00000
     71      -5.3525      1.00000
     72      -5.3378      1.00000
     73      -5.2297      1.00000
     74      -5.1197      1.00000
     75      -5.0889      1.00000
     76      -5.0385      1.00000
     77      -4.9984      1.00000
     78      -4.9275      1.00000
     79      -4.8850      1.00000
     80      -4.8625      1.00000
     81      -4.8203      1.00000
     82      -4.8064      1.00000
     83      -4.7101      1.00000
     84      -4.5654      1.00000
     85      -4.4512      1.00000
     86      -4.4396      1.00000
     87      -4.2444      1.00000
     88      -4.1893      1.00000
     89      -4.1472      1.00000
     90      -4.0819      1.00000
     91      -3.9271      1.00000
     92      -3.8821      1.00000
     93      -3.8499      1.00000
     94      -3.6791      1.00000
     95      -3.6214      1.00000
     96      -3.5448      1.00000
     97      -3.3351      1.00000
     98      -3.2933      1.00000
     99      -3.1921      1.00000
    100      -3.0056      1.00000
    101      -2.9017      1.00000
    102      -2.4740      1.00000
    103      -2.3673      1.00000
    104      -2.3385      1.00000
    105      -1.9475      1.00000
    106      -1.7963      1.00000
    107      -1.7416      1.00000
    108      -1.7052      1.00000
    109      -1.6181      1.00000
    110      -1.5319      1.00000
    111      -1.3770      1.00000
    112      -0.9298      1.00000
    113      -0.8216      1.00000
    114      -0.8070      1.00000
    115      -0.7259      1.00000
    116      -0.6850      1.00000
    117      -0.6535      1.00000
    118      -0.4697      1.00000
    119      -0.3507      1.00000
    120      -0.0870      1.00000
    121       0.0527      1.00000
    122       1.0221      0.00000
    123       1.1573      0.00000
    124       1.2598      0.00000
    125       2.1310      0.00000
    126       2.2594      0.00000
    127       2.3194      0.00000
    128       2.3520      0.00000
    129       2.6940      0.00000
    130       2.6985      0.00000
    131       2.7288      0.00000
    132       2.8568      0.00000
    133       2.9746      0.00000
    134       3.0710      0.00000
    135       3.0922      0.00000
    136       3.2515      0.00000
    137       3.2997      0.00000
    138       3.3091      0.00000
    139       3.4942      0.00000
    140       3.5334      0.00000
    141       3.7112      0.00000
    142       3.9055      0.00000
    143       3.9174      0.00000
    144       4.0278      0.00000
    145       4.0951      0.00000
    146       4.1113      0.00000
    147       4.2073      0.00000
    148       4.4523      0.00000
    149       4.7303      0.00000
    150       4.8122      0.00000
    151       4.8837      0.00000
    152       4.9387      0.00000
    153       4.9991      0.00000
    154       5.1936      0.00000
    155       5.2726      0.00000
    156       5.3450      0.00000
    157       5.7867      0.00000
    158       6.0758      0.00000
    159       6.5743      0.00000
    160       6.7272      0.00000

 k-point     6 :       0.3750    0.3750    0.1250
  band No.  band energies     occupation 
      1     -36.8563      1.00000
      2     -36.8184      1.00000
      3     -36.8007      1.00000
      4     -35.3832      1.00000
      5     -35.1372      1.00000
      6     -35.1260      1.00000
      7     -35.0493      1.00000
      8     -35.0372      1.00000
      9     -34.8179      1.00000
     10     -34.8170      1.00000
     11     -34.7917      1.00000
     12     -34.7402      1.00000
     13     -34.5208      1.00000
     14     -34.4854      1.00000
     15     -34.3033      1.00000
     16     -34.2313      1.00000
     17     -33.9195      1.00000
     18     -33.8817      1.00000
     19     -33.8564      1.00000
     20     -33.6404      1.00000
     21     -33.5995      1.00000
     22     -33.2207      1.00000
     23     -33.1964      1.00000
     24     -33.1776      1.00000
     25     -24.4259      1.00000
     26     -24.1974      1.00000
     27     -24.1168      1.00000
     28     -24.0493      1.00000
     29     -23.9845      1.00000
     30     -23.8184      1.00000
     31     -23.6948      1.00000
     32     -23.6073      1.00000
     33     -23.5811      1.00000
     34     -23.3835      1.00000
     35     -23.0873      1.00000
     36     -23.0595      1.00000
     37     -22.9247      1.00000
     38     -22.8695      1.00000
     39     -22.0968      1.00000
     40     -22.0106      1.00000
     41     -16.6266      1.00000
     42     -16.4481      1.00000
     43     -16.1478      1.00000
     44     -15.8837      1.00000
     45     -15.4852      1.00000
     46     -15.3616      1.00000
     47     -15.2299      1.00000
     48     -14.9702      1.00000
     49      -7.8830      1.00000
     50      -7.7069      1.00000
     51      -7.5865      1.00000
     52      -7.5138      1.00000
     53      -6.9898      1.00000
     54      -6.8305      1.00000
     55      -6.7562      1.00000
     56      -6.5502      1.00000
     57      -6.5102      1.00000
     58      -6.3853      1.00000
     59      -6.3515      1.00000
     60      -6.3454      1.00000
     61      -6.3259      1.00000
     62      -6.2672      1.00000
     63      -6.1945      1.00000
     64      -6.0402      1.00000
     65      -6.0014      1.00000
     66      -5.9485      1.00000
     67      -5.8408      1.00000
     68      -5.7809      1.00000
     69      -5.6237      1.00000
     70      -5.5654      1.00000
     71      -5.4300      1.00000
     72      -5.2409      1.00000
     73      -5.2269      1.00000
     74      -5.1979      1.00000
     75      -5.0870      1.00000
     76      -5.0811      1.00000
     77      -5.0141      1.00000
     78      -4.8992      1.00000
     79      -4.8407      1.00000
     80      -4.7676      1.00000
     81      -4.7657      1.00000
     82      -4.6799      1.00000
     83      -4.6562      1.00000
     84      -4.5463      1.00000
     85      -4.4858      1.00000
     86      -4.4743      1.00000
     87      -4.3099      1.00000
     88      -4.2479      1.00000
     89      -4.1639      1.00000
     90      -4.1450      1.00000
     91      -4.0194      1.00000
     92      -3.9185      1.00000
     93      -3.8041      1.00000
     94      -3.6830      1.00000
     95      -3.5513      1.00000
     96      -3.3928      1.00000
     97      -3.3167      1.00000
     98      -3.2092      1.00000
     99      -3.0802      1.00000
    100      -2.9854      1.00000
    101      -2.9061      1.00000
    102      -2.5181      1.00000
    103      -2.3442      1.00000
    104      -2.2934      1.00000
    105      -1.9833      1.00000
    106      -1.9579      1.00000
    107      -1.7843      1.00000
    108      -1.7343      1.00000
    109      -1.6677      1.00000
    110      -1.5631      1.00000
    111      -1.4474      1.00000
    112      -0.9414      1.00000
    113      -0.8776      1.00000
    114      -0.8083      1.00000
    115      -0.7806      1.00000
    116      -0.7315      1.00000
    117      -0.7074      1.00000
    118      -0.5234      1.00000
    119      -0.3834      1.00000
    120      -0.0889      1.00000
    121       0.1381      1.00000
    122       1.1036      0.00000
    123       1.1102      0.00000
    124       1.2598      0.00000
    125       2.0900      0.00000
    126       2.2634      0.00000
    127       2.4797      0.00000
    128       2.6727      0.00000
    129       2.7230      0.00000
    130       2.7711      0.00000
    131       2.8283      0.00000
    132       2.9130      0.00000
    133       2.9624      0.00000
    134       3.0007      0.00000
    135       3.0724      0.00000
    136       3.1692      0.00000
    137       3.2509      0.00000
    138       3.3159      0.00000
    139       3.4023      0.00000
    140       3.7800      0.00000
    141       3.9015      0.00000
    142       3.9860      0.00000
    143       4.0029      0.00000
    144       4.0427      0.00000
    145       4.1086      0.00000
    146       4.2614      0.00000
    147       4.3397      0.00000
    148       4.5659      0.00000
    149       4.6575      0.00000
    150       4.7475      0.00000
    151       4.7979      0.00000
    152       4.8428      0.00000
    153       4.8674      0.00000
    154       5.0653      0.00000
    155       5.0759      0.00000
    156       5.7298      0.00000
    157       5.8218      0.00000
    158       6.1304      0.00000
    159       6.6389      0.00000
    160       6.6918      0.00000

 k-point     7 :      -0.3750    0.3750    0.1250
  band No.  band energies     occupation 
      1     -36.8563      1.00000
      2     -36.8184      1.00000
      3     -36.8007      1.00000
      4     -35.3832      1.00000
      5     -35.1372      1.00000
      6     -35.1260      1.00000
      7     -35.0493      1.00000
      8     -35.0372      1.00000
      9     -34.8179      1.00000
     10     -34.8170      1.00000
     11     -34.7917      1.00000
     12     -34.7402      1.00000
     13     -34.5208      1.00000
     14     -34.4854      1.00000
     15     -34.3033      1.00000
     16     -34.2313      1.00000
     17     -33.9195      1.00000
[...]
  0.000  -0.000   0.000   0.000  -0.000   0.000  -0.011  -0.000  -0.000   0.009  -0.000  -0.006  -0.000  -0.000  -0.003   0.000
 -0.000   0.000   0.000  -0.000   0.000   0.000  -0.000  -0.000   0.001  -0.000   0.010  -0.000  -0.000   0.000   0.000  -0.003
 -0.000  -0.000   0.000  -0.002  -0.000  -0.000   0.596   0.010  -0.000  -0.006  -0.000   0.459   0.008  -0.000  -0.005  -0.000
 -0.000   0.000   0.000  -0.000  -0.000  -0.000   0.010  -0.003   0.000  -0.000  -0.000   0.008  -0.007  -0.000  -0.000   0.000
 -0.000   0.000  -0.000  -0.000   0.000  -0.000  -0.000  -0.000  -0.002  -0.000   0.000  -0.000  -0.000  -0.029   0.000  -0.001
  0.000   0.000   0.000   0.000  -0.000   0.000  -0.006  -0.000  -0.000  -0.003   0.000  -0.005  -0.000   0.000  -0.005   0.000
 -0.000  -0.000  -0.000  -0.000   0.000   0.000  -0.000   0.000   0.000   0.000  -0.003  -0.000   0.000  -0.001   0.000  -0.013
  0.000  -0.000  -0.000   0.000  -0.000   0.000   0.000  -0.000  -0.009   0.000  -0.002   0.000   0.000   0.027  -0.001   0.000
  0.000  -0.000   0.000   0.000  -0.000   0.000   0.000  -0.000  -0.026   0.000  -0.003   0.000   0.000   0.038  -0.000   0.004


------------------------ aborting loop because EDIFF is reached ----------------------------------------


 


 total charge     
 
# of ion       s       p       d       tot
------------------------------------------
    1        0.238   6.336   1.825   8.399
    2        0.313   6.469   1.836   8.618
    3        0.315   6.472   1.825   8.612
    4        0.306   6.439   1.752   8.497
    5        0.325   6.515   1.734   8.574
    6        0.288   6.457   1.814   8.559
    7        0.290   6.455   1.802   8.547
    8        0.303   6.417   1.654   8.374
    9        1.571   3.422   0.000   4.993
   10        1.576   3.292   0.000   4.868
   11        1.574   3.444   0.000   5.018
   12        1.566   3.415   0.000   4.981
   13        1.571   3.394   0.000   4.965
   14        1.573   3.445   0.000   5.018
   15        1.568   3.388   0.000   4.956
   16        1.572   3.397   0.000   4.969
   17        1.730   4.388   0.000   6.118
   18        1.730   4.387   0.000   6.116
   19        1.729   4.385   0.000   6.114
   20        1.730   4.388   0.000   6.118
   21        1.730   4.387   0.000   6.116
   22        1.730   4.388   0.000   6.118
   23        1.729   4.399   0.000   6.129
   24        1.729   4.375   0.000   6.104
   25        1.729   4.398   0.000   6.127
   26        1.733   4.385   0.000   6.118
   27        1.733   4.386   0.000   6.118
   28        1.731   4.401   0.000   6.131
   29        1.730   4.399   0.000   6.130
   30        1.729   4.375   0.000   6.104
   31        1.733   4.385   0.000   6.118
   32        1.733   4.386   0.000   6.119
--------------------------------------------------
tot         42.635 148.968  14.241 205.845
 


 magnetization (x)
 
# of ion       s       p       d       tot
------------------------------------------
    1        0.004   0.006   0.913   0.924
    2       -0.000  -0.000  -0.004  -0.004
    3       -0.000   0.000   0.010   0.010
    4       -0.001  -0.002  -0.022  -0.025
    5       -0.000  -0.000   0.016   0.016
    6       -0.000   0.000  -0.019  -0.019
    7       -0.000   0.001  -0.022  -0.021
    8       -0.003  -0.004  -0.064  -0.071
    9        0.000   0.027   0.000   0.027
   10        0.007   0.520   0.000   0.527
   11        0.000   0.004   0.000   0.004
   12        0.001   0.067   0.000   0.068
   13        0.000   0.027   0.000   0.027
   14        0.001   0.013   0.000   0.014
   15        0.003   0.189   0.000   0.192
   16        0.001   0.051   0.000   0.052
   17       -0.000  -0.000   0.000  -0.001
   18        0.000   0.000   0.000   0.001
   19        0.000   0.004   0.000   0.004
   20       -0.000  -0.000   0.000  -0.001
   21        0.000   0.000   0.000   0.000
   22        0.000   0.002   0.000   0.002
   23       -0.000   0.005   0.000   0.005
   24        0.000   0.001   0.000   0.001
   25       -0.000   0.005   0.000   0.005
   26       -0.000   0.001   0.000   0.001
   27       -0.000   0.001   0.000   0.001
   28       -0.000  -0.009   0.000  -0.009
   29       -0.000  -0.009   0.000  -0.009
   30        0.000   0.005   0.000   0.005
   31       -0.000  -0.000   0.000  -0.000
   32       -0.000  -0.000   0.000  -0.000
--------------------------------------------------
tot          0.013   0.906   0.808   1.726
 
    CHARGE:  cpu time    1.1738: real time    1.1723
    FORLOC:  cpu time    0.0100: real time    0.0101
    FORNL :  cpu time    6.7680: real time    6.7581
    STRESS:  cpu time   20.5819: real time   20.5590
    FORCOR:  cpu time    0.1300: real time    0.1305
    FORHAR:  cpu time    0.0210: real time    0.0213
    MIXING:  cpu time    0.0020: real time    0.0016
    OFIELD:  cpu time    0.0000: real time    0.0000

  FORCE on cell =-STRESS in cart. coord.  units (eV):
  Direction    XX          YY          ZZ          XY          YZ          ZX
  --------------------------------------------------------------------------------------
  Alpha Z   740.45438   740.45438   740.45438
  Ewald   -4243.70318 -4184.20098 -4164.09395     0.72760   -16.39648   -35.49769
  Hartree  2786.12317  2819.74973  2795.16283     0.52389    -7.60482   -18.67008
  E(xc)   -1231.80517 -1231.98710 -1231.85333     0.00356     0.03895    -0.01420
  Local   -2188.64854 -2309.08123 -2271.06009    -0.77039    19.12196    54.88393
  n-local  -973.62034  -972.90989  -966.08515    -0.00018    -1.53409     0.08056
  augment   752.92806   762.18380   749.70345    -0.16410     0.65724    -0.16570
  Kinetic  4358.28177  4375.78362  4347.80009    -0.32086     5.72822    -0.62074
  Fock        0.00000     0.00000     0.00000     0.00000     0.00000     0.00000
  -------------------------------------------------------------------------------------
  Total       0.01016    -0.00767     0.02823    -0.00049     0.01097    -0.00392
  in kB       0.03441    -0.02597     0.09565    -0.00166     0.03717    -0.01328
  external pressure =        0.03 kB  Pullay stress =        0.00 kB


 VOLUME and BASIS-vectors are now :
 -----------------------------------------------------------------------------
  energy-cutoff  :      700.00
  volume of cell :      472.91
      direct lattice vectors                 reciprocal lattice vectors
     7.847182990 -0.001404227 -0.030697551     0.127436212  0.000024306  0.000496366
    -0.001444934  7.767173826 -0.009366629     0.000023643  0.128747148  0.000154512
    -0.030219704 -0.009306165  7.759008958     0.000504214  0.000155519  0.128884590

  length of vectors
     7.847243159  7.767179609  7.759073388     0.127437181  0.128747243  0.128885670


 FORCES acting on ions
    electron-ion (+dipol)            ewald-force                    non-local-force                 convergence-correction
 -----------------------------------------------------------------------------------------------
   0.114E+01 0.974E+01 0.108E+02   -.114E+01 -.964E+01 -.107E+02   -.191E-02 -.100E+00 -.116E+00   0.352E-05 -.459E-03 0.210E-03
   0.623E+01 0.200E+02 -.946E+01   -.618E+01 -.197E+02 0.939E+01   -.535E-01 -.353E+00 0.752E-01   -.504E-03 0.964E-03 -.701E-03
   -.805E+01 -.873E+01 0.279E+02   0.792E+01 0.866E+01 -.277E+02   0.133E+00 0.660E-01 -.193E+00   -.186E-03 -.801E-03 0.129E-02
   0.417E+02 -.253E+02 -.274E+02   -.415E+02 0.261E+02 0.281E+02   -.156E+00 -.789E+00 -.757E+00   -.652E-02 0.718E-03 0.348E-03
   -.141E+01 0.312E+01 0.305E+00   0.140E+01 -.312E+01 -.331E+00   0.118E-01 0.530E-02 0.298E-01   0.213E-03 -.153E-02 -.942E-03
   -.111E+01 -.355E+00 -.269E+01   0.110E+01 0.964E+00 0.271E+01   0.135E-01 -.612E+00 -.159E-01   0.274E-03 -.989E-03 -.737E-03
   0.649E+01 -.507E+01 -.783E+01   -.626E+01 0.505E+01 0.838E+01   -.229E+00 0.202E-01 -.561E+00   0.135E-02 0.850E-04 0.313E-02
   0.835E+01 -.400E+02 -.365E+02   -.805E+01 0.391E+02 0.357E+02   -.301E+00 0.850E+00 0.776E+00   0.637E-02 0.368E-02 -.143E-02
   -.868E+02 -.114E+02 -.797E+01   0.938E+02 0.116E+02 0.807E+01   -.700E+01 -.211E+00 -.102E+00   -.190E-02 0.601E-04 -.231E-02
   -.389E+01 -.139E+02 -.103E+02   0.647E+01 0.139E+02 0.102E+02   -.258E+01 0.387E-01 0.173E+00   0.182E-02 -.123E-02 -.261E-02
   0.102E+02 0.111E+03 -.371E+01   -.110E+02 -.120E+03 0.342E+01   0.756E+00 0.911E+01 0.291E+00   0.239E-03 -.490E-02 0.756E-03
   0.328E+00 -.570E+02 -.113E+02   -.521E+00 0.571E+02 0.120E+02   0.192E+00 -.110E+00 -.692E+00   -.163E-03 0.570E-02 -.364E-03
   0.142E+01 0.137E+03 -.787E+01   -.170E+01 -.146E+03 0.813E+01   0.283E+00 0.931E+01 -.255E+00   -.734E-03 -.474E-02 0.194E-02
   0.155E+02 -.317E+01 0.105E+03   -.168E+02 0.285E+01 -.113E+03   0.128E+01 0.316E+00 0.837E+01   -.259E-02 0.977E-03 0.163E-02
   -.650E+01 -.125E+02 -.524E+02   0.697E+01 0.132E+02 0.527E+02   -.465E+00 -.708E+00 -.323E+00   0.500E-02 -.160E-03 -.447E-02
   -.394E+01 -.932E+01 0.133E+03   0.390E+01 0.966E+01 -.141E+03   0.438E-01 -.336E+00 0.895E+01   0.329E-02 0.265E-02 0.465E-02
   0.572E+02 0.412E+01 0.321E+01   -.639E+02 -.422E+01 -.336E+01   0.674E+01 0.104E+00 0.146E+00   -.145E-02 0.325E-03 0.114E-02
   -.403E+02 -.132E+02 -.362E+01   0.440E+02 0.176E+02 0.375E+01   -.370E+01 -.435E+01 -.127E+00   -.262E-02 -.151E-02 0.140E-03
   -.312E+02 -.434E+01 -.152E+02   0.333E+02 0.442E+01 0.194E+02   -.208E+01 -.720E-01 -.420E+01   0.112E-02 0.636E-03 0.110E-02
   -.577E+02 0.421E+01 0.448E+01   0.646E+02 -.430E+01 -.454E+01   -.688E+01 0.100E+00 0.592E-01   0.119E-02 0.432E-03 0.884E-03
   0.375E+02 -.933E+01 -.536E+01   -.413E+02 0.132E+02 0.546E+01   0.373E+01 -.392E+01 -.959E-01   0.263E-02 -.118E-02 0.430E-03
   0.333E+02 -.498E+01 -.879E+01   -.356E+02 0.511E+01 0.129E+02   0.231E+01 -.136E+00 -.409E+01   -.202E-02 0.595E-03 0.721E-03
   -.247E+01 0.319E+01 -.744E+01   0.272E+01 -.421E+01 0.107E+02   -.255E+00 0.102E+01 -.325E+01   -.622E-03 0.366E-02 0.163E-03
   0.144E+02 -.552E+02 -.646E+01   -.159E+02 0.557E+02 0.623E+01   0.151E+01 -.480E+00 0.229E+00   -.318E-03 0.397E-02 -.298E-02
   -.272E+01 -.322E+01 -.658E+01   0.301E+01 0.411E+01 0.961E+01   -.287E+00 -.882E+00 -.303E+01   0.418E-04 -.221E-02 -.805E-03
   0.207E+01 -.891E+02 -.161E+01   -.232E+01 0.979E+02 0.247E+01   0.254E+00 -.880E+01 -.859E+00   0.407E-03 0.626E-02 0.134E-02
   0.218E+01 0.900E+02 -.102E+01   -.245E+01 -.986E+02 0.180E+01   0.266E+00 0.864E+01 -.776E+00   -.622E-04 -.445E-02 0.774E-03
   0.173E+01 -.646E+01 -.199E+02   -.190E+01 0.942E+01 0.229E+02   0.166E+00 -.296E+01 -.300E+01   -.296E-03 0.329E-03 -.533E-02
   0.264E+01 -.614E+01 0.201E+02   -.271E+01 0.889E+01 -.232E+02   0.691E-01 -.275E+01 0.314E+01   0.267E-05 -.103E-03 0.591E-02
   0.117E+02 -.640E+01 -.523E+02   -.134E+02 0.620E+01 0.517E+02   0.176E+01 0.200E+00 0.520E+00   -.367E-02 -.238E-02 -.258E-02
   -.133E+01 0.689E+00 -.934E+02   0.160E+01 0.790E-01 0.103E+03   -.278E+00 -.767E+00 -.958E+01   -.244E-03 -.401E-03 -.538E-02
   -.187E+01 0.165E+01 0.948E+02   0.195E+01 -.994E+00 -.104E+03   -.765E-01 -.655E+00 0.951E+01   -.253E-03 -.110E-02 0.761E-02
 -----------------------------------------------------------------------------------------------
   0.483E+01 -.792E+00 -.261E+00   -.128E-12 -.574E-13 0.426E-13   -.483E+01 0.791E+00 0.259E+00   -.187E-03 0.289E-02 0.354E-02
 
 
 POSITION                                       TOTAL-FORCE (eV/Angst)
 -----------------------------------------------------------------------------------
      0.00051      0.00887      0.00661        -0.000446      0.002026      0.000493
      7.81215      7.60089      3.84054         0.000196      0.003957      0.000657
     -0.02491      3.87811      7.58143        -0.001373      0.001456      0.000487
      0.11014      3.88061      3.86346         0.001125     -0.004815     -0.003831
      3.92343      0.01169      0.00347        -0.000640      0.002476      0.003015
      3.88828      7.72339      3.87450         0.000141     -0.003635      0.003888
      3.90989      3.88623      7.69703        -0.001320      0.003190     -0.004066
      3.90615      3.78651      3.80008         0.000711     -0.008745     -0.003688
      1.88820      3.86211      3.84236         0.001795     -0.002466     -0.005327
      5.86730      3.85592      3.79500         0.001879      0.000627     -0.004404
      7.82737      5.87605      3.81862         0.000976     -0.008640     -0.000371
      3.88451      1.86048      3.89194        -0.000788     -0.001992      0.004255
      3.87322      5.94313      3.87625        -0.001154     -0.000213      0.005060
      7.79918      3.85750      5.81532         0.000659     -0.000731     -0.005407
      3.98453      3.89233      1.86516         0.007315      0.002028      0.001909
      3.92751      3.87957      5.91859         0.002327      0.003357     -0.002859
      2.02328      0.00534     -0.00205        -0.000652      0.003473      0.004407
      1.88746      0.05262      3.88788         0.000033     -0.002340      0.001671
      1.94711      3.89528      0.04143         0.000005      0.001929     -0.000136
      5.82255      0.00458     -0.01235        -0.000429      0.002936      0.003214
      5.89213      0.03508      3.87185         0.000038     -0.003023      0.003171
      5.92440      3.89821      0.01131        -0.001181      0.003567     -0.003049
      0.01370      1.96794      0.03361        -0.001243      0.001629     -0.002714
      7.81248      1.85993      3.82832        -0.002053     -0.002080     -0.002503
      0.01450      5.81370      0.02204         0.000724      0.001370     -0.003284
      3.91865      1.87988      0.00437        -0.000602      0.003275      0.001135
      3.91805      5.90926     -0.00375        -0.001182      0.002370      0.002323
      7.82502      0.03259      1.89389        -0.000634     -0.002369      0.000436
      7.81353      0.02194      5.81365         0.000493     -0.000499      0.000391
      7.81742      3.87218      1.82747        -0.001902     -0.000861     -0.002126
      3.91874      0.01395      1.86386        -0.001322      0.000822      0.003930
      3.89565      0.00471      5.90197        -0.001493      0.001921      0.003322
 -----------------------------------------------------------------------------------
    total drift:                                0.001188      0.002563      0.001133


--------------------------------------------------------------------------------------------------------



  FREE ENERGIE OF THE ION-ELECTRON SYSTEM (eV)
  ---------------------------------------------------
  free  energy   TOTEN  =      -207.79971488 eV

  energy  without entropy=     -207.79960770  energy(sigma->0) =     -207.79966129
 


--------------------------------------------------------------------------------------------------------


    POTLOK:  cpu time    0.9729: real time    0.9712


--------------------------------------------------------------------------------------------------------


 stress matrix after NEB project (eV)
      0.01016     -0.00049     -0.00392
     -0.00049     -0.00767      0.01100
     -0.00393      0.01097      0.02823
  FORCES: max atom, RMS     0.009517    0.004842
  FORCE total and by dimension    0.027393    0.008745
  Stress total and by dimension    0.035095    0.028233
 Quasi-Newton relaxation of ions (Broydens 2nd method)
  g(Force)  = 0.362E-04   g(Stress)= 0.186E-05

 Reset! Starting new Quasi-Newton update for ions 


--------------------------------------------------------------------------------------------------------


  
 reached required accuracy - stopping structural energy minimisation
 writing wavefunctions
     LOOP+:  cpu time  181.0915: real time  182.7882
    4ORBIT:  cpu time    0.0000: real time    0.0000
 


 total charge     
 
# of ion       s       p       d       tot
------------------------------------------
    1        0.238   6.336   1.825   8.399
    2        0.313   6.469   1.836   8.618
    3        0.315   6.472   1.825   8.612
    4        0.306   6.439   1.752   8.497
    5        0.325   6.515   1.734   8.574
    6        0.288   6.457   1.814   8.559
    7        0.290   6.455   1.802   8.547
    8        0.303   6.417   1.654   8.374
    9        1.571   3.422   0.000   4.993
   10        1.576   3.292   0.000   4.868
   11        1.574   3.444   0.000   5.018
   12        1.566   3.415   0.000   4.981
   13        1.571   3.394   0.000   4.965
   14        1.573   3.445   0.000   5.018
   15        1.568   3.388   0.000   4.956
   16        1.572   3.397   0.000   4.969
   17        1.730   4.388   0.000   6.118
   18        1.730   4.387   0.000   6.116
   19        1.729   4.385   0.000   6.114
   20        1.730   4.388   0.000   6.118
   21        1.730   4.387   0.000   6.116
   22        1.730   4.388   0.000   6.118
   23        1.729   4.399   0.000   6.129
   24        1.729   4.375   0.000   6.104
   25        1.729   4.398   0.000   6.127
   26        1.733   4.385   0.000   6.118
   27        1.733   4.386   0.000   6.118
   28        1.731   4.401   0.000   6.131
   29        1.730   4.399   0.000   6.130
   30        1.729   4.375   0.000   6.104
   31        1.733   4.385   0.000   6.118
   32        1.733   4.386   0.000   6.119
--------------------------------------------------
tot         42.635 148.968  14.241 205.845
 


 magnetization (x)
 
# of ion       s       p       d       tot
------------------------------------------
    1        0.004   0.006   0.913   0.924
    2       -0.000  -0.000  -0.004  -0.004
    3       -0.000   0.000   0.010   0.010
    4       -0.001  -0.002  -0.022  -0.025
    5       -0.000  -0.000   0.016   0.016
    6       -0.000   0.000  -0.019  -0.019
    7       -0.000   0.001  -0.022  -0.021
    8       -0.003  -0.004  -0.064  -0.071
    9        0.000   0.027   0.000   0.027
   10        0.007   0.520   0.000   0.527
   11        0.000   0.004   0.000   0.004
   12        0.001   0.067   0.000   0.068
   13        0.000   0.027   0.000   0.027
   14        0.001   0.013   0.000   0.014
   15        0.003   0.189   0.000   0.192
   16        0.001   0.051   0.000   0.052
   17       -0.000  -0.000   0.000  -0.001
   18        0.000   0.000   0.000   0.001
   19        0.000   0.004   0.000   0.004
   20       -0.000  -0.000   0.000  -0.001
   21        0.000   0.000   0.000   0.000
   22        0.000   0.002   0.000   0.002
   23       -0.000   0.005   0.000   0.005
   24        0.000   0.001   0.000   0.001
   25       -0.000   0.005   0.000   0.005
   26       -0.000   0.001   0.000   0.001
   27       -0.000   0.001   0.000   0.001
   28       -0.000  -0.009   0.000  -0.009
   29       -0.000  -0.009   0.000  -0.009
   30        0.000   0.005   0.000   0.005
   31       -0.000  -0.000   0.000  -0.000
   32       -0.000  -0.000   0.000  -0.000
--------------------------------------------------
tot          0.013   0.906   0.808   1.726
 

 total amount of memory used by VASP MPI-rank0   107978. kBytes
=======================================================================

   base      :      30000. kBytes
   nonlr-proj:       8382. kBytes
   fftplans  :       8425. kBytes
   grid      :       8783. kBytes
   one-center:        124. kBytes
   wavefun   :      52264. kBytes
 
  
  
 General timing and accounting informations for this job:
 ========================================================
  
                  Total CPU time used (sec):      231.676
                            User time (sec):      214.586
                          System time (sec):       17.089
                         Elapsed time (sec):      241.234
  
                   Maximum memory used (kb):      224300.
                   Average memory used (kb):           0.
  
                          Minor page faults:       111113
                          Major page faults:            2
                 Voluntary context switches:        65488
