       N       E                     dE             d eps       ncg     rms          rms(c)
DAV:   1    -0.211612567631E+03   -0.21161E+03   -0.69828E-01  2560   0.553E+00    0.694E-02
DAV:   2    -0.211612647334E+03   -0.79703E-04   -0.26894E-05  2848   0.282E-02    0.393E-02
DAV:   3    -0.211612730963E+03   -0.83628E-04   -0.21746E-05  3392   0.278E-02    0.168E-02
DAV:   4    -0.211612737671E+03   -0.67081E-05   -0.75726E-06  2688   0.163E-02    0.250E-03
DAV:   5    -0.211612737912E+03   -0.24086E-06   -0.10528E-06  1632   0.565E-03
   1 F= -.21161274E+03 E0= -.21161274E+03  d E =-.211613E+03  mag=     0.0000
