 vasp.5.4.4.18Apr17-6-g9f103f2a35 (build Apr 30 2017 20:10:35) complex          
  
 executed on             LinuxIFC date 2017.08.02  19:00:39
 running on   64 total cores
 distrk:  each k-point on   64 cores,    1 groups
 distr:  one band on NCORES_PER_BAND=   8 cores,    8 groups


--------------------------------------------------------------------------------------------------------


 INCAR:
 POTCAR:   PAW_PBE Ti_pv 07Sep2000                
 POTCAR:   PAW_PBE O 08Apr2002                    
 POTCAR:    PAW_PBE F 08Apr2002                   
 POTCAR:   PAW_PBE Ti_pv 07Sep2000                
   VRHFIN =Ti: d3 s1                                                            
   LEXCH  = PE                                                                  
   EATOM  =  1042.3781 eV,   76.6126 Ry                                         
                                                                                
   TITEL  = PAW_PBE Ti_pv 07Sep2000                                             
   LULTRA =        F    use ultrasoft PP ?                                      
   IUNSCR =        1    unscreen: 0-lin 1-nonlin 2-no                           
   RPACOR =    2.200    partial core radius                                     
   POMASS =   47.880; ZVAL   =   10.000    mass and valenz                      
   RCORE  =    2.500    outmost cutoff radius                                   
   RWIGS  =    2.500; RWIGS  =    1.323    wigner-seitz radius (au A)           
   ENMAX  =  222.338; ENMIN  =  166.753 eV                                      
   RCLOC  =    1.701    cutoff for local pot                                    
   LCOR   =        T    correct aug charges                                     
   LPAW   =        T    paw PP                                                  
   EAUG   =  482.848                                                            
   DEXC   =    -.008                                                            
   RMAX   =    3.092    core radius for proj-oper                               
   RAUG   =    1.300    factor for augmentation sphere                          
   RDEP   =    2.538    radius for radial grids                                 
   QCUT   =   -4.042; QGAM   =    8.085    optimization parameters              
                                                                                
   Description                                                                  
     l     E      TYP  RCUT    TYP  RCUT                                        
     1   .000     23  2.300                                                     
     1  -.100     23  2.300                                                     
     2   .000     23  2.500                                                     
     2   .000     23  2.500                                                     
     0   .000     23  2.500                                                     
     0  1.500     23  2.500                                                     
     3   .000      7   .000                                                     
  local pseudopotential read in
  partial core-charges read in
  atomic valenz-charges read in
  non local Contribution for L=           1  read in
    real space projection operators read in
  non local Contribution for L=           1  read in
    real space projection operators read in
  non local Contribution for L=           2  read in
    real space projection operators read in
  non local Contribution for L=           2  read in
    real space projection operators read in
  non local Contribution for L=           0  read in
    real space projection operators read in
  non local Contribution for L=           0  read in
    real space projection operators read in
    PAW grid and wavefunctions read in
 
   number of l-projection  operators is LMAX  =           6
   number of lm-projection operators is LMMAX =          18
 
 POTCAR:   PAW_PBE O 08Apr2002                    
   VRHFIN =O: s2p4                                                              
   LEXCH  = PE                                                                  
   EATOM  =   432.3788 eV,   31.7789 Ry                                         
                                                                                
   TITEL  = PAW_PBE O 08Apr2002                                                 
   LULTRA =        F    use ultrasoft PP ?                                      
   IUNSCR =        0    unscreen: 0-lin 1-nonlin 2-no                           
   RPACOR =     .000    partial core radius                                     
   POMASS =   16.000; ZVAL   =    6.000    mass and valenz                      
   RCORE  =    1.520    outmost cutoff radius                                   
   RWIGS  =    1.550; RWIGS  =     .820    wigner-seitz radius (au A)           
   ENMAX  =  400.000; ENMIN  =  300.000 eV                                      
   ICORE  =        2    local potential                                         
   LCOR   =        T    correct aug charges                                     
   LPAW   =        T    paw PP                                                  
   EAUG   =  605.392                                                            
   DEXC   =     .000                                                            
   RMAX   =    2.264    core radius for proj-oper                               
   RAUG   =    1.300    factor for augmentation sphere                          
   RDEP   =    1.550    radius for radial grids                                 
   QCUT   =   -5.520; QGAM   =   11.041    optimization parameters              
                                                                                
   Description                                                                  
     l     E      TYP  RCUT    TYP  RCUT                                        
     0   .000     23  1.200                                                     
     0  -.700     23  1.200                                                     
     1   .000     23  1.520                                                     
     1   .600     23  1.520                                                     
     2   .000      7  1.500                                                     
  local pseudopotential read in
  atomic valenz-charges read in
  non local Contribution for L=           0  read in
    real space projection operators read in
  non local Contribution for L=           0  read in
    real space projection operators read in
  non local Contribution for L=           1  read in
    real space projection operators read in
  non local Contribution for L=           1  read in
    real space projection operators read in
    PAW grid and wavefunctions read in
 
   number of l-projection  operators is LMAX  =           4
   number of lm-projection operators is LMMAX =           8
 
 POTCAR:    PAW_PBE F 08Apr2002                   
   VRHFIN =F: s2p5                                                              
   LEXCH  = PE                                                                  
   EATOM  =   659.6475 eV,   48.4827 Ry                                         
                                                                                
   TITEL  = PAW_PBE F 08Apr2002                                                 
   LULTRA =        F    use ultrasoft PP ?                                      
   IUNSCR =        1    unscreen: 0-lin 1-nonlin 2-no                           
   RPACOR =    1.200    partial core radius                                     
   POMASS =   18.998; ZVAL   =    7.000    mass and valenz                      
   RCORE  =    1.520    outmost cutoff radius                                   
   RWIGS  =    1.500; RWIGS  =    0.794    wigner-seitz radius (au A)           
   ENMAX  =  400.000; ENMIN  =  300.000 eV                                      
   ICORE  =        2    local potential                                         
   LCOR   =        T    correct aug charges                                     
   LPAW   =        T    paw PP                                                  
   EAUG   =  613.614                                                            
   RMAX   =    1.555    core radius for proj-oper                               
   RAUG   =    1.300    factor for augmentation sphere                          
   RDEP   =    1.539    radius for radial grids                                 
   RDEPT  =    1.299    core radius for aug-charge                              
                                                                                
   Atomic configuration                                                         
    4 entries                                                                   
     n  l   j            E        occ.                                          
     1  0  0.50      -663.3661   2.0000                                         
     2  0  0.50       -29.8995   2.0000                                         
     2  1  0.50       -11.1114   5.0000                                         
     3  2  1.50       -10.8847   0.0000                                         
   Description                                                                  
     l       E           TYP  RCUT    TYP  RCUT                                 
     0    -29.8995018     23  1.200                                             
     0     -9.5240782     23  1.200                                             
     1    -11.1113914     23  1.520                                             
     1      1.3605826     23  1.520                                             
     2    -10.8846608      7  1.500                                             
  local pseudopotential read in
  partial core-charges read in
  partial kinetic energy density read in
  atomic valenz-charges read in
  non local Contribution for L=           0  read in
    real space projection operators read in
  non local Contribution for L=           0  read in
    real space projection operators read in
  non local Contribution for L=           1  read in
    real space projection operators read in
  non local Contribution for L=           1  read in
    real space projection operators read in
    PAW grid and wavefunctions read in
 
   number of l-projection  operators is LMAX  =           4
   number of lm-projection operators is LMMAX =           8
 
 Optimization of the real space projectors (new method)

 maximal supplied QI-value         = 15.12
 optimisation between [QCUT,QGAM] = [ 13.45, 27.06] = [ 50.69,205.06] Ry 
 Optimized for a Real-space Cutoff    1.49 Angstroem

   l    n(q)    QCUT    max X(q) W(low)/X(q) W(high)/X(q)  e(spline) 
   1     12    13.455     4.841    0.13E-05    0.83E-06    0.56E-07
   1     12    13.455     5.701    0.32E-04    0.25E-04    0.17E-06
   2     11    13.455     4.569    0.64E-05    0.34E-05    0.50E-07
   2     11    13.455    32.276    0.49E-04    0.38E-04    0.46E-06
   0     12    13.455    30.046    0.17E-04    0.41E-05    0.51E-07
   0     12    13.455    45.433    0.12E-04    0.27E-04    0.38E-06
 Optimization of the real space projectors (new method)

 maximal supplied QI-value         = 24.76
 optimisation between [QCUT,QGAM] = [ 13.37, 26.98] = [ 50.04,203.89] Ry 
 Optimized for a Real-space Cutoff    1.17 Angstroem

   l    n(q)    QCUT    max X(q) W(low)/X(q) W(high)/X(q)  e(spline) 
   0      9    13.368     4.192    0.20E-04    0.58E-05    0.56E-07
   0      9    13.368     8.473    0.60E-04    0.52E-04    0.21E-06
   1      9    13.368     2.474    0.22E-04    0.17E-04    0.28E-07
   1      9    13.368     3.912    0.94E-04    0.97E-04    0.20E-06
 Optimization of the real space projectors (new method)

 maximal supplied QI-value         = 24.76
 optimisation between [QCUT,QGAM] = [ 13.37, 26.98] = [ 50.04,203.89] Ry 
 Optimized for a Real-space Cutoff    1.17 Angstroem

   l    n(q)    QCUT    max X(q) W(low)/X(q) W(high)/X(q)  e(spline) 
   0      9    13.368    14.049    0.39E-04    0.34E-04    0.16E-06
   0      9    13.368     8.945    0.54E-04    0.47E-04    0.20E-06
   1      9    13.368     7.086    0.99E-04    0.10E-03    0.23E-06
   1      9    13.368     6.747    0.86E-04    0.89E-04    0.21E-06

 ----------------------------------------------------------------------------- 
|                                                                             |
|  ADVICE TO THIS USER RUNNING 'VASP/VAMP'   (HEAR YOUR MASTER'S VOICE ...):  |
|                                                                             |
|      You enforced a specific xc-type in the INCAR file,                     |
|      a different type was found on the POTCAR file                          |
|          I HOPE YOU KNOW, WHAT YOU ARE  DOING                               |
|                                                                             |
 ----------------------------------------------------------------------------- 

 PAW_PBE Ti_pv 07Sep2000                :
 energy of atom  1       EATOM=-1042.3781
 kinetic energy error for atom=    0.0006 (will be added to EATOM!!)
 PAW_PBE O 08Apr2002                    :
 energy of atom  2       EATOM= -432.3788
 kinetic energy error for atom=    0.0091 (will be added to EATOM!!)
  PAW_PBE F 08Apr2002                   :
 energy of atom  3       EATOM= -659.6475
 kinetic energy error for atom=    0.0140 (will be added to EATOM!!)
 
 
 POSCAR: TiOF2 2x2x2 config 0003                 
  positions in direct lattice
  velocities in cartesian coordinates
 exchange correlation table for  LEXCH =       14
   RHO(1)=    0.500       N(1)  =     2000
   RHO(2)=  100.500       N(2)  =     4000

 VTST: version 3.1, (03/28/14)

 CHAIN: initializing optimizer
 
 OPT: Using VASP QUASI-newton optimizer
 CHAIN: Read ICHAIN            0
 
 POSCAR: TiOF2 2x2x2 config 0003                 
  positions in direct lattice
  velocities in cartesian coordinates
 


--------------------------------------------------------------------------------------------------------


 ion  position               nearest neighbor table
   1  0.000  0.000  0.000-  31 1.84  32 1.84  21 1.89  17 1.89  25 1.89  27 1.90
   2  1.000  0.000  0.500-  22 1.93  18 1.93  32 1.94  31 1.94  26 1.97  28 1.97
   3  1.000  0.500  0.000-  11 1.87  12 1.87  23 1.95  19 1.95  25 2.02  27 2.02
   4  0.000  0.500  0.500-  12 1.91  11 1.91  26 1.94  28 1.94  20 1.95  24 1.95
   5  0.500  0.988  1.000-   9 1.85  14 1.88  13 1.88  29 2.04  21 2.08  17 2.08
   6  0.500  0.989  0.500-  10 1.86  14 1.90  13 1.90  18 2.03  22 2.03  30 2.04
   7  0.500  0.510  0.000-  15 1.89  16 1.89   9 1.89  19 2.02  23 2.02  29 2.05
   8  0.500  0.510  0.500-  10 1.89  16 1.89  15 1.89  24 2.01  20 2.01  30 2.04
   9  0.500  0.752  1.000-   5 1.85   7 1.89
  10  0.500  0.751  0.500-   6 1.86   8 1.89
  11  1.000  0.501  0.248-   3 1.87   4 1.91
  12  1.000  0.501  0.752-   3 1.87   4 1.91
  13  0.500  0.999  0.249-   5 1.88   6 1.90
  14  0.500  0.999  0.751-   5 1.88   6 1.90
  15  0.500  0.502  0.250-   7 1.89   8 1.89
  16  0.500  0.502  0.750-   7 1.89   8 1.89
  17  0.238  0.002  0.000-   1 1.89   5 2.08
  18  0.244  0.003  0.500-   2 1.93   6 2.03
  19  0.246  0.497  1.000-   3 1.95   7 2.02
  20  0.246  0.497  0.500-   4 1.95   8 2.01
  21  0.762  0.002  0.000-   1 1.89   5 2.08
  22  0.756  0.003  0.500-   2 1.93   6 2.03
  23  0.754  0.497  1.000-   3 1.95   7 2.02
  24  0.754  0.497  0.500-   4 1.95   8 2.01
  25  0.000  0.243  1.000-   1 1.89   3 2.02
  26  1.000  0.252  0.500-   4 1.94   2 1.97
  27  0.000  0.758  0.000-   1 1.90   3 2.02
  28  0.000  0.748  0.500-   4 1.94   2 1.97
  29  0.500  0.248  0.000-   5 2.04   7 2.05
  30  0.500  0.249  0.500-   6 2.04   8 2.04
  31  0.000  1.000  0.243-   1 1.84   2 1.94
  32  0.000  1.000  0.757-   1 1.84   2 1.94
 

IMPORTANT INFORMATION: All symmetrisations will be switched off!
NOSYMM: (Re-)initialisation of all symmetry stuff for point group C_1.

 
 
 KPOINTS: Title                                   

Automatic generation of k-mesh.
Space group operators:
 irot       det(A)        alpha          n_x          n_y          n_z        tau_x        tau_y        tau_z
    1     1.000000     0.000000     1.000000     0.000000     0.000000     0.000000     0.000000     0.000000
 
 Subroutine IBZKPT returns following result:
 ===========================================
 
 Found      4 irreducible k-points:
 
 Following reciprocal coordinates:
            Coordinates               Weight
  0.250000  0.250000  0.250000      2.000000
 -0.250000  0.250000  0.250000      2.000000
  0.250000 -0.250000  0.250000      2.000000
 -0.250000 -0.250000  0.250000      2.000000
 
 Following cartesian coordinates:
            Coordinates               Weight
  0.031567  0.031951  0.033097      2.000000
 -0.031565  0.031949  0.033097      2.000000
  0.031565 -0.031949  0.033097      2.000000
 -0.031567 -0.031951  0.033097      2.000000
 


--------------------------------------------------------------------------------------------------------




 Dimension of arrays:
   k-points           NKPTS =      4   k-points in BZ     NKDIM =      4   number of bands    NBANDS=    160
   number of dos      NEDOS =   3001   number of ions     NIONS =     32
   non local maximal  LDIM  =      6   non local SUM 2l+1 LMDIM =     18
   total plane-waves  NPLWV = 343000
   max r-space proj   IRMAX =  10160   max aug-charges    IRDMAX= 227757
   dimension x,y,z NGX =    70 NGY =   70 NGZ =   70
   dimension x,y,z NGXF=   140 NGYF=  140 NGZF=  140
   support grid    NGXF=   280 NGYF=  280 NGZF=  280
   ions per type =               8   8  16
   NGX,Y,Z   is equivalent  to a cutoff of  14.69, 14.87, 15.41 a.u.
   NGXF,Y,Z  is equivalent  to a cutoff of  29.39, 29.74, 30.81 a.u.

 SYSTEM =  LTO                                     
 POSCAR =  TiOF2 2x2x2 config 0003                 

 Startparameter for this run:
   NWRITE =      2    write-flag & timer
   PREC   = accura    normal or accurate (medium, high low for compatibility)
   ISTART =      1    job   : 0-new  1-cont  2-samecut
   ICHARG =      0    charge: 1-file 2-atom 10-const
   ISPIN  =      2    spin polarized calculation?
   LNONCOLLINEAR =      F non collinear calculations
   LSORBIT =      F    spin-orbit coupling
   INIWAV =      1    electr: 0-lowe 1-rand  2-diag
   LASPH  =      T    aspherical Exc in radial PAW
   METAGGA=      F    non-selfconsistent MetaGGA calc.

 Electronic Relaxation 1
   ENCUT  =  700.0 eV  51.45 Ry    7.17 a.u.  17.09 16.88 16.29*2*pi/ulx,y,z
   ENINI  =  700.0     initial cutoff
   ENAUG  =  613.6 eV  augmentation charge cutoff
   NELM   =     60;   NELMIN=  2; NELMDL=  0     # of ELM steps 
   EDIFF  = 0.1E-05   stopping-criterion for ELM
   LREAL  =      T    real-space projection
   NLSPLINE    = F    spline interpolate recip. space projectors
   LCOMPAT=      F    compatible to vasp.4.4
   GGA_COMPAT  = T    GGA compatible to vasp.4.4-vasp.4.6
   LMAXPAW     = -100 max onsite density
   LMAXMIX     =    4 max onsite mixed and CHGCAR
   VOSKOWN=      0    Vosko Wilk Nusair interpolation
   ROPT   =   -0.00010  -0.00010  -0.00010
 Ionic relaxation
   EDIFFG = -.1E-01   stopping-criterion for IOM
   NSW    =    100    number of steps for IOM
   NBLOCK =      1;   KBLOCK =    100    inner block; outer block 
   IBRION =      1    ionic relax: 0-MD 1-quasi-New 2-CG
   NFREE  =      0    steps in history (QN), initial steepest desc. (CG)
   ISIF   =      3    stress and relaxation
   IWAVPR =     11    prediction:  0-non 1-charg 2-wave 3-comb
   ISYM   =      0    0-nonsym 1-usesym 2-fastsym
   LCORR  =      T    Harris-Foulkes like correction to forces

   POTIM  = 0.5000    time-step for ionic-motion
   TEIN   =    0.0    initial temperature
   TEBEG  =    0.0;   TEEND  =   0.0 temperature during run
   SMASS  =  -3.00    Nose mass-parameter (am)
   estimated Nose-frequenzy (Omega)   =  0.10E-29 period in steps =****** mass=  -0.143E-26a.u.
   SCALEE = 1.0000    scale energy and forces
   NPACO  =    256;   APACO  = 16.0  distance and # of slots for P.C.
   PSTRESS=    0.0 pullay stress

  Mass of Ions in am
   POMASS =  47.88 16.00 19.00
  Ionic Valenz
   ZVAL   =  10.00  6.00  7.00
  Atomic Wigner-Seitz radii
   RWIGS  =  -1.00 -1.00 -1.00
  virtual crystal weights 
   VCA    =   1.00  1.00  1.00
   NELECT =     240.0000    total number of electrons
   NUPDOWN=      -1.0000    fix difference up-down

 DOS related values:
   EMIN   =  10.00;   EMAX   =-10.00  energy-range for DOS
   EFERMI =   0.00
   ISMEAR =     0;   SIGMA  =   0.01  broadening in eV -4-tet -1-fermi 0-gaus

 Electronic relaxation 2 (details)
   IALGO  =     38    algorithm
   LDIAG  =      T    sub-space diagonalisation (order eigenvalues)
   LSUBROT=      F    optimize rotation matrix (better conditioning)
   TURBO    =      0    0=normal 1=particle mesh
   IRESTART =      0    0=no restart 2=restart with 2 vectors
   NREBOOT  =      0    no. of reboots
   NMIN     =      0    reboot dimension
   EREF     =   0.00    reference energy to select bands
   IMIX   =      4    mixing-type and parameters
     AMIX     =   0.40;   BMIX     =  1.00
     AMIX_MAG =   1.60;   BMIX_MAG =  1.00
     AMIN     =   0.10
     WC   =   100.;   INIMIX=   1;  MIXPRE=   1;  MAXMIX= -45

 Intra band minimization:
   WEIMIN = 0.0010     energy-eigenvalue tresh-hold
   EBREAK =  0.16E-08  absolut break condition
   DEPER  =   0.30     relativ break condition  

   TIME   =   0.40     timestep for ELM

  volume/ion in A,a.u.               =      14.63        98.72
  Fermi-wavevector in a.u.,A,eV,Ry     =   1.310278  2.476067 23.358876  1.716829
  Thomas-Fermi vector in A             =   2.440819
 
 Write flags
   LWAVE        =      T    write WAVECAR
   LDOWNSAMPLE  =      F    k-point downsampling of WAVECAR
   LCHARG       =      T    write CHGCAR
   LVTOT        =      F    write LOCPOT, total local potential
   LVHAR        =      F    write LOCPOT, Hartree potential only
   LELF         =      F    write electronic localiz. function (ELF)
   LORBIT       =     11    0 simple, 1 ext, 2 COOP (PROOUT), +10 PAW based schemes


 Dipole corrections
   LMONO  =      F    monopole corrections only (constant potential shift)
   LDIPOL =      F    correct potential (dipole corrections)
   IDIPOL =      0    1-x, 2-y, 3-z, 4-all directions 
   EPSILON=  1.0000000 bulk dielectric constant

 LDA+U is selected, type is set to LDAUTYPE =  2
   angular momentum for each species LDAUL =     2   -1   -1
   U (eV)           for each species LDAUU =   4.2  0.0  0.0
   J (eV)           for each species LDAUJ =   0.0  0.0  0.0
 Exchange correlation treatment:
   GGA     =    PS    GGA type
   LEXCH   =    14    internal setting for exchange type
   VOSKOWN=      0    Vosko Wilk Nusair interpolation
   LHFCALC =     F    Hartree Fock is set to
   LHFONE  =     F    Hartree Fock one center treatment
   AEXX    =    0.0000 exact exchange contribution

 Linear response parameters
   LEPSILON=     F    determine dielectric tensor
   LRPA    =     F    only Hartree local field effects (RPA)
   LNABLA  =     F    use nabla operator in PAW spheres
   LVEL    =     F    velocity operator in full k-point grid
   LINTERFAST=   F  fast interpolation
   KINTER  =     0    interpolate to denser k-point grid
   CSHIFT  =0.1000    complex shift for real part using Kramers Kronig
   OMEGAMAX=  -1.0    maximum frequency
   DEG_THRESHOLD= 0.2000000E-02 threshold for treating states as degnerate
   RTIME   =   -0.100 relaxation time in fs
  (WPLASMAI=    0.000 imaginary part of plasma frequency in eV, 0.658/RTIME)
   DFIELD  = 0.0000000 0.0000000 0.0000000 field for delta impulse in time
 
 Orbital magnetization related:
   ORBITALMAG=     F  switch on orbital magnetization
   LCHIMAG   =     F  perturbation theory with respect to B field
   DQ        =  0.001000  dq finite difference perturbation B field
   LLRAUG    =     F  two centre corrections for induced B field



--------------------------------------------------------------------------------------------------------


 quasi-Newton-method for relaxation of ions
 charge density and potential will be updated during run
 spin polarized calculation
 Variant of blocked Davidson
 Davidson routine will perform the subspace rotation
 perform sub-space diagonalisation
    after iterative eigenvector-optimisation
 modified Broyden-mixing scheme, WC =      100.0
 initial mixing is a Kerker type mixing with AMIX =  0.4000 and BMIX =      1.0000
 Hartree-type preconditioning will be used
 using additional bands           40
 real space projection scheme for non local part
 use partial core corrections
 calculate Harris-corrections to forces 
   (improved forces if not selfconsistent)
 use gradient corrections 
 use of overlap-Matrix (Vanderbilt PP)
 Gauss-broadening in eV      SIGMA  =   0.01


--------------------------------------------------------------------------------------------------------


  energy-cutoff  :      700.00
  volume of cell :      468.11
      direct lattice vectors                 reciprocal lattice vectors
     7.919947472 -0.000317122 -0.000000019     0.126263464  0.000003905  0.000000003
    -0.000241986  7.824829968 -0.000000252     0.000005117  0.127798304  0.000000001
    -0.000000195 -0.000000060  7.553495464     0.000000000  0.000000004  0.132389038

  length of vectors
     7.919947478  7.824829972  7.553495464     0.126263464  0.127798304  0.132389038


 
 old parameters found on file WAVECAR:
  energy-cutoff  :      700.00
  volume of cell :      466.87
      direct lattice vectors                 reciprocal lattice vectors
     7.937091064  0.000013282  0.000000108     0.125990743 -0.000000219  0.000000003
     0.000013572  7.815120182 -0.000000178    -0.000000214  0.127957085 -0.000000000
    -0.000000150  0.000000017  7.526635366    -0.000000002  0.000000003  0.132861491

  length of vectors

 
 k-points in units of 2pi/SCALE and weight: Title                                   
   0.03156715  0.03195055  0.03309726       0.250
  -0.03156459  0.03194860  0.03309726       0.250
   0.03156459 -0.03194860  0.03309726       0.250
  -0.03156715 -0.03195055  0.03309726       0.250
 
 k-points in reciprocal lattice and weights: Title                                   
   0.25000000  0.25000000  0.25000000       0.250
  -0.25000000  0.25000000  0.25000000       0.250
   0.25000000 -0.25000000  0.25000000       0.250
  -0.25000000 -0.25000000  0.25000000       0.250
 
 position of ions in fractional coordinates (direct lattice) 
   0.00000193  0.00047034  0.00000118
   0.99999358  0.00035409  0.49999971
   0.99999587  0.50003523  0.00000154
   0.00000193  0.49992333  0.50000221
   0.50000196  0.98806373  0.99999994
   0.49999859  0.98861167  0.50000017
   0.49999628  0.50997097  0.00000006
   0.50000168  0.51011729  0.50000004
   0.49998982  0.75154028  0.99999968
   0.50004539  0.75121274  0.50000014
   0.99999769  0.50071325  0.24765394
   0.99999768  0.50071426  0.75234488
   0.49999987  0.99878617  0.24899162
   0.49999992  0.99878635  0.75100840
   0.49999816  0.50241088  0.24970845
   0.49999816  0.50241074  0.75029147
   0.23802164  0.00192751  0.00000001
   0.24372678  0.00251227  0.50000011
   0.24567778  0.49717468  0.99999981
   0.24597580  0.49727766  0.49999982
   0.76198401  0.00191529  0.00000009
   0.75626755  0.00269071  0.50000011
   0.75431528  0.49717282  0.99999983
   0.75402652  0.49735549  0.49999982
   0.00000091  0.24251151  0.99999905
   0.99992062  0.25226708  0.50000042
   0.00000001  0.75803755  0.00000065
   0.00009774  0.74810675  0.49999893
   0.50000516  0.24828962  0.00000002
   0.49995621  0.24900349  0.50000007
   0.00000277  0.99981915  0.24331087
   0.00000272  0.99981710  0.75668696
 
 position of ions in cartesian coordinates  (Angst):
   0.00001514  0.00368036  0.00000888
   7.91989641  0.00245355  3.77674554
   7.91979377  3.91237355  0.00001145
  -0.00010579  3.91181506  3.77676430
   3.95975000  7.73127204  7.55349478
   3.95972325  7.73555963  3.77674875
   3.95982086  3.99027755  0.00000028
   3.95986349  3.99142246  3.77674787
   3.95971103  5.88051627  7.55349287
   3.96015134  5.87795338  3.77674860
   7.91980796  3.91767894  1.87065279
   7.91980779  3.91768677  5.68283348
   3.95973099  7.81517340  1.88075681
   3.95973123  7.81517472  5.67273830
   3.95983751  3.93112112  1.88617155
   3.95983747  3.93111999  5.66732304
   1.88511840  0.01500694  0.00000005
   1.93030259  0.01958079  3.77674858
   1.94563458  3.89022934  7.55349392
   1.94799498  3.89103510  3.77674628
   6.03487288  0.01474520  0.00000068
   5.98959856  0.02081447  3.77674858
   5.97401689  3.89005348  7.55349401
   5.97172999  3.89148302  3.77674622
  -0.00005167  1.89761128  7.55348820
   7.91925766  1.97362992  3.77675081
  -0.00018339  5.93151492  0.00000474
   0.00059301  5.85380809  3.77673948
   3.95995449  1.94266551  0.00000004
   3.95956657  1.94825138  3.77674818
  -0.00022005  7.82341480  1.83784734
  -0.00022058  7.82339872  5.71563124
 


--------------------------------------------------------------------------------------------------------


 k-point  1 :   0.2500 0.2500 0.2500  plane waves:   19671
 k-point  2 :  -0.2500 0.2500 0.2500  plane waves:   19674
 k-point  3 :   0.2500-0.2500 0.2500  plane waves:   19674
 k-point  4 :  -0.2500-0.2500 0.2500  plane waves:   19671

 maximum and minimum number of plane-waves per node :      2491     2415

 maximum number of plane-waves:     19674
 maximum index in each direction: 
   IXMAX=   17   IYMAX=   17   IZMAX=   16
   IXMIN=  -17   IYMIN=  -17   IZMIN=  -16


 real space projection operators:
  total allocation   :      18248.66 KBytes
  max/ min on nodes  :       2433.22       1892.47


 parallel 3D FFT for wavefunctions:
    minimum data exchange during FFTs selected (reduces bandwidth)
 parallel 3D FFT for charge:
    minimum data exchange during FFTs selected (reduces bandwidth)


 total amount of memory used by VASP MPI-rank0    62295. kBytes
=======================================================================

   base      :      30000. kBytes
   nonlr-proj:       8453. kBytes
   fftplans  :       8423. kBytes
   grid      :       8783. kBytes
   one-center:        124. kBytes
   wavefun   :       6512. kBytes
 
     INWAV:  cpu time    8.4547: real time    9.0979
 Broyden mixing: mesh for mixing (old mesh)
   NGX = 35   NGY = 33   NGZ = 33
  (NGX  =140   NGY  =140   NGZ  =140)
  gives a total of  38115 points

 charge density for first step will be calculated from the start-wavefunctions


--------------------------------------------------------------------------------------------------------


 Maximum index for non-local projection operator         1355
 Maximum index for augmentation-charges         7104 (set IRDMAX)


--------------------------------------------------------------------------------------------------------


 initial charge from wavefunction
 First call to EWALD:  gamma=   0.228
 Maximum number of real-space cells 3x 3x 3
 Maximum number of reciprocal cells 3x 3x 3

    FEWALD:  cpu time    0.0030: real time    0.0033


--------------------------------------- Iteration      1(   1)  ---------------------------------------


    POTLOK:  cpu time    4.5253: real time    5.3295
    SETDIJ:  cpu time    0.8319: real time    0.8386
     EDDAV:  cpu time    3.6964: real time    3.7168
       DOS:  cpu time    0.0010: real time    0.0008
    CHARGE:  cpu time    0.3719: real time    0.3826
    MIXING:  cpu time    0.0280: real time    0.0290
    --------------------------------------------
      LOOP:  cpu time    9.4546: real time   10.2974

 eigenvalue-minimisations  :  2560
 total energy-change (2. order) :-0.2093160E+03  (-0.4322110E-02)
 number of electron     240.0000003 magnetization       2.0000000
 augmentation part       62.0046387 magnetization       0.7653774

 Broyden mixing:
  rms(total) = 0.82343E-03    rms(broyden)= 0.79586E-03
  rms(prec ) = 0.11101E-02
  weight for this iteration     100.00

 Free energy of the ion-electron system (eV)
  ---------------------------------------------------
  alpha Z        PSCENC =       748.04706134
  Ewald energy   TEWEN  =    -12692.45302187
  -Hartree energ DENC   =     -8318.69565438
  -exchange      EXHF   =         0.00000000
  -V(xc)+E(xc)   XCENC  =      1119.22108231
  PAW double counting   =     17970.31580698   -18091.55905980
  entropy T*S    EENTRO =        -0.00000000
  eigenvalues    EBANDS =     -3246.54542207
  atomic energy  EATOM  =     22302.35321627
  Solvation  Ediel_sol  =         0.00000000
  ---------------------------------------------------
  free energy    TOTEN  =      -209.31599121 eV

  energy without entropy =     -209.31599121  energy(sigma->0) =     -209.31599121


--------------------------------------------------------------------------------------------------------




--------------------------------------- Iteration      1(   2)  ---------------------------------------


    POTLOK:  cpu time    4.8273: real time    5.5193
    SETDIJ:  cpu time    0.8349: real time    0.8391
     EDDAV:  cpu time    3.8294: real time    3.8824
       DOS:  cpu time    0.0010: real time    0.0008
    --------------------------------------------
      LOOP:  cpu time    9.4926: real time   10.2415

 eigenvalue-minimisations  :  2808
 total energy-change (2. order) :-0.4478534E-06  (-0.5667495E-06)
 number of electron     240.0000003 magnetization       2.0000000
 augmentation part       62.0046387 magnetization       0.7653774

 Free energy of the ion-electron system (eV)
  ---------------------------------------------------
  alpha Z        PSCENC =       748.04706134
  Ewald energy   TEWEN  =    -12692.45302187
  -Hartree energ DENC   =     -8318.67401169
  -exchange      EXHF   =         0.00000000
  -V(xc)+E(xc)   XCENC  =      1119.21957829
  PAW double counting   =     17970.33325300   -18091.57544960
  entropy T*S    EENTRO =        -0.00000000
  eigenvalues    EBANDS =     -3246.56661740
  atomic energy  EATOM  =     22302.35321627
  Solvation  Ediel_sol  =         0.00000000
  ---------------------------------------------------
  free energy    TOTEN  =      -209.31599165 eV

  energy without entropy =     -209.31599165  energy(sigma->0) =     -209.31599165


--------------------------------------------------------------------------------------------------------




 average (electrostatic) potential at core
  the test charge radii are     1.0397  0.7215  0.7167
  (the norm of the test charge is              1.0000)
       1 -60.7644       2 -58.0425       3 -59.0218       4 -59.0284       5 -58.3439
       6 -58.3310       7 -58.2294       8 -58.2020       9 -74.0648      10 -74.0038
      11 -73.5813      12 -73.5813      13 -73.4570      14 -73.4570      15 -73.2536
      16 -73.2536      17 -80.0771      18 -79.4180      19 -79.0325      20 -78.9257
      21 -80.0773      22 -79.4184      23 -79.0326      24 -78.9258      25 -80.2940
      26 -79.4434      27 -80.2911      28 -79.4517      29 -78.2484      30 -78.1600
      31 -80.8349      32 -80.8347
 
 
 
 E-fermi :  -0.1525     XC(G=0):  -8.9139     alpha+bet : -7.5486


 spin component 1

 k-point     1 :       0.2500    0.2500    0.2500
  band No.  band energies     occupation 
      1     -36.8363      1.00000
      2     -36.7115      1.00000
      3     -36.7084      1.00000
      4     -35.1006      1.00000
      5     -35.0697      1.00000
      6     -35.0214      1.00000
      7     -34.9888      1.00000
      8     -34.9029      1.00000
      9     -34.6377      1.00000
     10     -34.5774      1.00000
     11     -34.5180      1.00000
     12     -34.4247      1.00000
     13     -34.3714      1.00000
     14     -34.3559      1.00000
     15     -34.2503      1.00000
     16     -34.2159      1.00000
     17     -34.2126      1.00000
     18     -34.1799      1.00000
     19     -34.1025      1.00000
     20     -34.0646      1.00000
     21     -34.0396      1.00000
     22     -33.9818      1.00000
     23     -33.8946      1.00000
     24     -33.8347      1.00000
     25     -24.7429      1.00000
     26     -24.1854      1.00000
     27     -24.0956      1.00000
     28     -23.8296      1.00000
     29     -23.7194      1.00000
     30     -23.4819      1.00000
     31     -23.3258      1.00000
     32     -23.1690      1.00000
     33     -22.9297      1.00000
     34     -22.8769      1.00000
     35     -22.8129      1.00000
     36     -22.6942      1.00000
     37     -22.5084      1.00000
     38     -22.4026      1.00000
     39     -21.8942      1.00000
     40     -21.8039      1.00000
     41     -16.7015      1.00000
     42     -16.5673      1.00000
     43     -16.4241      1.00000
     44     -16.2867      1.00000
     45     -16.0773      1.00000
     46     -15.8039      1.00000
     47     -15.7330      1.00000
     48     -15.5227      1.00000
     49      -8.2817      1.00000
     50      -7.6570      1.00000
     51      -7.3603      1.00000
     52      -6.8778      1.00000
     53      -6.8153      1.00000
     54      -6.7232      1.00000
     55      -6.6692      1.00000
     56      -6.5871      1.00000
     57      -6.5448      1.00000
     58      -6.3649      1.00000
     59      -6.2987      1.00000
     60      -6.1956      1.00000
     61      -6.1663      1.00000
     62      -5.9121      1.00000
     63      -5.7717      1.00000
     64      -5.5657      1.00000
     65      -5.4696      1.00000
     66      -5.4078      1.00000
     67      -5.3626      1.00000
     68      -5.2683      1.00000
     69      -5.2372      1.00000
     70      -5.1737      1.00000
     71      -5.1114      1.00000
     72      -5.0812      1.00000
     73      -4.9260      1.00000
     74      -4.9071      1.00000
     75      -4.8251      1.00000
     76      -4.6743      1.00000
     77      -4.6527      1.00000
     78      -4.6322      1.00000
     79      -4.6199      1.00000
     80      -4.5633      1.00000
     81      -4.4531      1.00000
     82      -4.4175      1.00000
     83      -4.3959      1.00000
     84      -4.3205      1.00000
     85      -4.2085      1.00000
     86      -4.1907      1.00000
     87      -4.1127      1.00000
     88      -4.1009      1.00000
     89      -4.0414      1.00000
     90      -3.9709      1.00000
     91      -3.9344      1.00000
     92      -3.9113      1.00000
     93      -3.8728      1.00000
     94      -3.8440      1.00000
     95      -3.7733      1.00000
     96      -3.5787      1.00000
     97      -3.3318      1.00000
     98      -3.2893      1.00000
     99      -3.1690      1.00000
    100      -3.0546      1.00000
    101      -2.8920      1.00000
    102      -2.8782      1.00000
    103      -2.5114      1.00000
    104      -2.0530      1.00000
    105      -1.9505      1.00000
    106      -1.8891      1.00000
    107      -1.7984      1.00000
    108      -1.7265      1.00000
    109      -1.6241      1.00000
    110      -1.5803      1.00000
    111      -1.5644      1.00000
    112      -1.4273      1.00000
    113      -1.3121      1.00000
    114      -1.1499      1.00000
    115      -1.1172      1.00000
    116      -1.0227      1.00000
    117      -0.9886      1.00000
    118      -0.8283      1.00000
    119      -0.6895      1.00000
    120      -0.2917      1.00000
    121      -0.2540      1.00000
    122       1.1235      0.00000
    123       1.2149      0.00000
    124       1.2416      0.00000
    125       2.3859      0.00000
    126       2.4074      0.00000
    127       2.4681      0.00000
    128       2.4737      0.00000
    129       2.6235      0.00000
    130       2.7480      0.00000
    131       2.8593      0.00000
    132       2.9411      0.00000
    133       2.9683      0.00000
    134       2.9724      0.00000
    135       3.0363      0.00000
    136       3.1225      0.00000
    137       3.2199      0.00000
    138       3.5754      0.00000
    139       3.6310      0.00000
    140       3.7234      0.00000
    141       3.7957      0.00000
    142       3.8367      0.00000
    143       3.8839      0.00000
    144       3.9205      0.00000
    145       3.9840      0.00000
    146       4.1488      0.00000
    147       4.1708      0.00000
    148       4.2017      0.00000
    149       4.3029      0.00000
    150       4.3661      0.00000
    151       4.6214      0.00000
    152       4.6508      0.00000
    153       4.8915      0.00000
    154       5.2134      0.00000
    155       5.2649      0.00000
    156       5.5882      0.00000
    157       6.0111      0.00000
    158       6.1354      0.00000
    159       6.3703      0.00000
    160       6.6018      0.00000

 k-point     2 :      -0.2500    0.2500    0.2500
  band No.  band energies     occupation 
      1     -36.8363      1.00000
      2     -36.7115      1.00000
      3     -36.7084      1.00000
      4     -35.1006      1.00000
      5     -35.0697      1.00000
      6     -35.0214      1.00000
      7     -34.9888      1.00000
      8     -34.9029      1.00000
      9     -34.6377      1.00000
     10     -34.5774      1.00000
     11     -34.5180      1.00000
     12     -34.4247      1.00000
     13     -34.3714      1.00000
     14     -34.3559      1.00000
     15     -34.2503      1.00000
     16     -34.2159      1.00000
     17     -34.2126      1.00000
     18     -34.1799      1.00000
     19     -34.1025      1.00000
     20     -34.0646      1.00000
     21     -34.0396      1.00000
     22     -33.9818      1.00000
     23     -33.8946      1.00000
     24     -33.8347      1.00000
     25     -24.7429      1.00000
     26     -24.1854      1.00000
     27     -24.0956      1.00000
     28     -23.8296      1.00000
     29     -23.7194      1.00000
     30     -23.4819      1.00000
     31     -23.3258      1.00000
     32     -23.1689      1.00000
     33     -22.9300      1.00000
     34     -22.8767      1.00000
     35     -22.8129      1.00000
     36     -22.6942      1.00000
     37     -22.5084      1.00000
     38     -22.4026      1.00000
     39     -21.8942      1.00000
     40     -21.8039      1.00000
     41     -16.7015      1.00000
     42     -16.5673      1.00000
     43     -16.4241      1.00000
     44     -16.2867      1.00000
     45     -16.0773      1.00000
     46     -15.8039      1.00000
     47     -15.7330      1.00000
     48     -15.5227      1.00000
     49      -8.2817      1.00000
     50      -7.6570      1.00000
     51      -7.3603      1.00000
     52      -6.8778      1.00000
     53      -6.8153      1.00000
     54      -6.7234      1.00000
     55      -6.6689      1.00000
     56      -6.5871      1.00000
     57      -6.5448      1.00000
     58      -6.3649      1.00000
     59      -6.2987      1.00000
     60      -6.1956      1.00000
     61      -6.1663      1.00000
     62      -5.9121      1.00000
     63      -5.7717      1.00000
     64      -5.5657      1.00000
     65      -5.4695      1.00000
     66      -5.4078      1.00000
     67      -5.3626      1.00000
     68      -5.2683      1.00000
     69      -5.2372      1.00000
     70      -5.1739      1.00000
     71      -5.1114      1.00000
     72      -5.0812      1.00000
     73      -4.9260      1.00000
     74      -4.9070      1.00000
     75      -4.8251      1.00000
     76      -4.6743      1.00000
     77      -4.6526      1.00000
     78      -4.6322      1.00000
     79      -4.6198      1.00000
     80      -4.5634      1.00000
     81      -4.4531      1.00000
     82      -4.4176      1.00000
     83      -4.3959      1.00000
     84      -4.3205      1.00000
     85      -4.2085      1.00000
     86      -4.1908      1.00000
     87      -4.1127      1.00000
     88      -4.1010      1.00000
     89      -4.0414      1.00000
     90      -3.9709      1.00000
     91      -3.9343      1.00000
     92      -3.9112      1.00000
     93      -3.8728      1.00000
     94      -3.8440      1.00000
     95      -3.7734      1.00000
     96      -3.5789      1.00000
     97      -3.3318      1.00000
     98      -3.2893      1.00000
     99      -3.1689      1.00000
    100      -3.0546      1.00000
    101      -2.8921      1.00000
    102      -2.8782      1.00000
    103      -2.5114      1.00000
    104      -2.0530      1.00000
    105      -1.9505      1.00000
    106      -1.8891      1.00000
    107      -1.7984      1.00000
    108      -1.7265      1.00000
    109      -1.6241      1.00000
    110      -1.5803      1.00000
    111      -1.5644      1.00000
    112      -1.4274      1.00000
    113      -1.3121      1.00000
    114      -1.1499      1.00000
    115      -1.1172      1.00000
    116      -1.0227      1.00000
    117      -0.9886      1.00000
    118      -0.8283      1.00000
    119      -0.6895      1.00000
    120      -0.2916      1.00000
    121      -0.2540      1.00000
    122       1.1235      0.00000
    123       1.2149      0.00000
    124       1.2416      0.00000
    125       2.3859      0.00000
    126       2.4074      0.00000
    127       2.4681      0.00000
    128       2.4737      0.00000
    129       2.6235      0.00000
    130       2.7480      0.00000
    131       2.8594      0.00000
    132       2.9413      0.00000
    133       2.9680      0.00000
    134       2.9725      0.00000
    135       3.0362      0.00000
    136       3.1226      0.00000
    137       3.2199      0.00000
    138       3.5755      0.00000
    139       3.6311      0.00000
    140       3.7234      0.00000
    141       3.7957      0.00000
    142       3.8368      0.00000
    143       3.8839      0.00000
    144       3.9201      0.00000
    145       3.9843      0.00000
    146       4.1488      0.00000
    147       4.1708      0.00000
    148       4.2016      0.00000
    149       4.3029      0.00000
    150       4.3661      0.00000
    151       4.6214      0.00000
    152       4.6508      0.00000
    153       4.8915      0.00000
    154       5.2134      0.00000
    155       5.2650      0.00000
    156       5.5882      0.00000
    157       6.0110      0.00000
    158       6.1354      0.00000
    159       6.3703      0.00000
    160       6.6018      0.00000

 k-point     3 :       0.2500   -0.2500    0.2500
  band No.  band energies     occupation 
      1     -36.8363      1.00000
      2     -36.7115      1.00000
      3     -36.7084      1.00000
      4     -35.1006      1.00000
      5     -35.0697      1.00000
      6     -35.0214      1.00000
      7     -34.9888      1.00000
      8     -34.9029      1.00000
      9     -34.6377      1.00000
     10     -34.5774      1.00000
     11     -34.5180      1.00000
     12     -34.4247      1.00000
     13     -34.3714      1.00000
     14     -34.3559      1.00000
     15     -34.2503      1.00000
     16     -34.2159      1.00000
     17     -34.2126      1.00000
     18     -34.1799      1.00000
     19     -34.1025      1.00000
     20     -34.0646      1.00000
     21     -34.0396      1.00000
     22     -33.9818      1.00000
     23     -33.8946      1.00000
     24     -33.8347      1.00000
     25     -24.7429      1.00000
     26     -24.1854      1.00000
     27     -24.0956      1.00000
     28     -23.8296      1.00000
     29     -23.7194      1.00000
     30     -23.4819      1.00000
     31     -23.3258      1.00000
     32     -23.1689      1.00000
     33     -22.9300      1.00000
     34     -22.8767      1.00000
     35     -22.8129      1.00000
     36     -22.6942      1.00000
     37     -22.5084      1.00000
     38     -22.4026      1.00000
     39     -21.8942      1.00000
     40     -21.8039      1.00000
     41     -16.7015      1.00000
     42     -16.5673      1.00000
     43     -16.4241      1.00000
     44     -16.2867      1.00000
     45     -16.0773      1.00000
     46     -15.8039      1.00000
     47     -15.7330      1.00000
     48     -15.5227      1.00000
     49      -8.2817      1.00000
     50      -7.6570      1.00000
     51      -7.3603      1.00000
     52      -6.8778      1.00000
     53      -6.8153      1.00000
     54      -6.7234      1.00000
     55      -6.6689      1.00000
     56      -6.5871      1.00000
     57      -6.5448      1.00000
     58      -6.3649      1.00000
     59      -6.2987      1.00000
     60      -6.1956      1.00000
     61      -6.1663      1.00000
     62      -5.9121      1.00000
     63      -5.7717      1.00000
     64      -5.5657      1.00000
     65      -5.4695      1.00000
     66      -5.4078      1.00000
     67      -5.3626      1.00000
     68      -5.2683      1.00000
     69      -5.2372      1.00000
     70      -5.1739      1.00000
     71      -5.1114      1.00000
     72      -5.0812      1.00000
     73      -4.9260      1.00000
     74      -4.9070      1.00000
     75      -4.8251      1.00000
     76      -4.6743      1.00000
     77      -4.6526      1.00000
     78      -4.6322      1.00000
     79      -4.6198      1.00000
     80      -4.5634      1.00000
     81      -4.4531      1.00000
     82      -4.4176      1.00000
     83      -4.3959      1.00000
     84      -4.3205      1.00000
     85      -4.2085      1.00000
     86      -4.1908      1.00000
     87      -4.1127      1.00000
     88      -4.1010      1.00000
     89      -4.0414      1.00000
     90      -3.9709      1.00000
     91      -3.9343      1.00000
     92      -3.9112      1.00000
     93      -3.8728      1.00000
     94      -3.8440      1.00000
     95      -3.7734      1.00000
     96      -3.5789      1.00000
     97      -3.3318      1.00000
     98      -3.2893      1.00000
     99      -3.1689      1.00000
    100      -3.0546      1.00000
    101      -2.8921      1.00000
    102      -2.8782      1.00000
    103      -2.5114      1.00000
    104      -2.0530      1.00000
    105      -1.9505      1.00000
    106      -1.8891      1.00000
    107      -1.7984      1.00000
    108      -1.7265      1.00000
    109      -1.6241      1.00000
    110      -1.5803      1.00000
    111      -1.5644      1.00000
    112      -1.4274      1.00000
    113      -1.3121      1.00000
    114      -1.1499      1.00000
    115      -1.1172      1.00000
    116      -1.0227      1.00000
    117      -0.9886      1.00000
    118      -0.8283      1.00000
    119      -0.6895      1.00000
    120      -0.2916      1.00000
    121      -0.2540      1.00000
    122       1.1235      0.00000
    123       1.2149      0.00000
    124       1.2416      0.00000
    125       2.3859      0.00000
    126       2.4074      0.00000
    127       2.4681      0.00000
    128       2.4737      0.00000
    129       2.6235      0.00000
    130       2.7480      0.00000
    131       2.8594      0.00000
    132       2.9413      0.00000
    133       2.9680      0.00000
    134       2.9725      0.00000
    135       3.0362      0.00000
    136       3.1226      0.00000
    137       3.2199      0.00000
    138       3.5755      0.00000
    139       3.6311      0.00000
    140       3.7234      0.00000
    141       3.7957      0.00000
    142       3.8368      0.00000
    143       3.8839      0.00000
    144       3.9201      0.00000
    145       3.9843      0.00000
    146       4.1488      0.00000
    147       4.1708      0.00000
    148       4.2016      0.00000
    149       4.3029      0.00000
    150       4.3661      0.00000
    151       4.6214      0.00000
    152       4.6508      0.00000
    153       4.8915      0.00000
    154       5.2134      0.00000
    155       5.2650      0.00000
    156       5.5882      0.00000
    157       6.0110      0.00000
    158       6.1354      0.00000
    159       6.3703      0.00000
    160       6.6018      0.00000

 k-point     4 :      -0.2500   -0.2500    0.2500
  band No.  band energies     occupation 
      1     -36.8363      1.00000
      2     -36.7115      1.00000
      3     -36.7084      1.00000
      4     -35.1006      1.00000
      5     -35.0697      1.00000
      6     -35.0214      1.00000
      7     -34.9888      1.00000
      8     -34.9029      1.00000
      9     -34.6377      1.00000
     10     -34.5774      1.00000
     11     -34.5180      1.00000
     12     -34.4247      1.00000
     13     -34.3714      1.00000
     14     -34.3559      1.00000
     15     -34.2503      1.00000
     16     -34.2159      1.00000
     17     -34.2126      1.00000
     18     -34.1799      1.00000
     19     -34.1025      1.00000
     20     -34.0646      1.00000
     21     -34.0396      1.00000
     22     -33.9818      1.00000
     23     -33.8946      1.00000
     24     -33.8347      1.00000
     25     -24.7429      1.00000
     26     -24.1854      1.00000
     27     -24.0956      1.00000
     28     -23.8296      1.00000
     29     -23.7194      1.00000
     30     -23.4819      1.00000
     31     -23.3258      1.00000
     32     -23.1690      1.00000
     33     -22.9297      1.00000
     34     -22.8769      1.00000
     35     -22.8129      1.00000
     36     -22.6942      1.00000
     37     -22.5084      1.00000
     38     -22.4026      1.00000
     39     -21.8942      1.00000
     40     -21.8039      1.00000
     41     -16.7015      1.00000
     42     -16.5673      1.00000
     43     -16.4241      1.00000
     44     -16.2867      1.00000
     45     -16.0773      1.00000
     46     -15.8039      1.00000
     47     -15.7330      1.00000
     48     -15.5227      1.00000
     49      -8.2817      1.00000
     50      -7.6570      1.00000
     51      -7.3603      1.00000
     52      -6.8778      1.00000
     53      -6.8153      1.00000
     54      -6.7232      1.00000
     55      -6.6692      1.00000
     56      -6.5871      1.00000
     57      -6.5448      1.00000
     58      -6.3649      1.00000
     59      -6.2987      1.00000
     60      -6.1956      1.00000
     61      -6.1663      1.00000
     62      -5.9121      1.00000
     63      -5.7717      1.00000
     64      -5.5657      1.00000
     65      -5.4696      1.00000
     66      -5.4078      1.00000
     67      -5.3626      1.00000
     68      -5.2683      1.00000
     69      -5.2372      1.00000
     70      -5.1737      1.00000
     71      -5.1114      1.00000
     72      -5.0812      1.00000
     73      -4.9260      1.00000
     74      -4.9071      1.00000
     75      -4.8251      1.00000
     76      -4.6743      1.00000
     77      -4.6527      1.00000
     78      -4.6322      1.00000
     79      -4.6198      1.00000
     80      -4.5633      1.00000
     81      -4.4531      1.00000
     82      -4.4175      1.00000
     83      -4.3959      1.00000
     84      -4.3205      1.00000
     85      -4.2085      1.00000
     86      -4.1907      1.00000
     87      -4.1127      1.00000
     88      -4.1009      1.00000
     89      -4.0414      1.00000
     90      -3.9709      1.00000
     91      -3.9344      1.00000
     92      -3.9113      1.00000
     93      -3.8728      1.00000
     94      -3.8440      1.00000
     95      -3.7733      1.00000
     96      -3.5787      1.00000
     97      -3.3318      1.00000
     98      -3.2893      1.00000
     99      -3.1690      1.00000
    100      -3.0546      1.00000
    101      -2.8920      1.00000
    102      -2.8782      1.00000
    103      -2.5114      1.00000
    104      -2.0530      1.00000
    105      -1.9505      1.00000
    106      -1.8891      1.00000
    107      -1.7984      1.00000
    108      -1.7265      1.00000
    109      -1.6241      1.00000
    110      -1.5803      1.00000
    111      -1.5644      1.00000
    112      -1.4273      1.00000
    113      -1.3121      1.00000
    114      -1.1499      1.00000
    115      -1.1172      1.00000
    116      -1.0227      1.00000
    117      -0.9886      1.00000
    118      -0.8283      1.00000
    119      -0.6895      1.00000
    120      -0.2917      1.00000
    121      -0.2540      1.00000
    122       1.1235      0.00000
    123       1.2149      0.00000
    124       1.2416      0.00000
    125       2.3859      0.00000
    126       2.4074      0.00000
    127       2.4681      0.00000
    128       2.4737      0.00000
    129       2.6235      0.00000
    130       2.7480      0.00000
    131       2.8593      0.00000
    132       2.9411      0.00000
    133       2.9683      0.00000
    134       2.9724      0.00000
    135       3.0363      0.00000
    136       3.1225      0.00000
    137       3.2199      0.00000
    138       3.5754      0.00000
    139       3.6310      0.00000
    140       3.7234      0.00000
    141       3.7957      0.00000
    142       3.8367      0.00000
    143       3.8839      0.00000
    144       3.9205      0.00000
    145       3.9840      0.00000
    146       4.1488      0.00000
    147       4.1708      0.00000
    148       4.2017      0.00000
    149       4.3029      0.00000
    150       4.3661      0.00000
    151       4.6214      0.00000
    152       4.6508      0.00000
    153       4.8915      0.00000
    154       5.2134      0.00000
    155       5.2649      0.00000
    156       5.5882      0.00000
    157       6.0111      0.00000
    158       6.1354      0.00000
    159       6.3703      0.00000
    160       6.6018      0.00000

 spin component 2

 k-point     1 :       0.2500    0.2500    0.2500
  band No.  band energies     occupation 
      1     -36.7473      1.00000
      2     -36.6845      1.00000
      3     -36.6192      1.00000
      4     -35.0952      1.00000
      5     -35.0617      1.00000
      6     -35.0200      1.00000
      7     -34.9876      1.00000
      8     -34.6309      1.00000
      9     -34.5750      1.00000
     10     -34.5716      1.00000
     11     -34.4622      1.00000
     12     -34.4017      1.00000
     13     -34.2813      1.00000
     14     -34.2701      1.00000
     15     -34.2444      1.00000
     16     -34.2344      1.00000
     17     -34.1494      1.00000
     18     -34.1132      1.00000
     19     -34.0944      1.00000
     20     -34.0383      1.00000
     21     -33.9423      1.00000
     22     -33.8845      1.00000
     23     -33.4393      1.00000
     24     -33.2689      1.00000
     25     -24.7357      1.00000
     26     -24.1711      1.00000
     27     -24.0892      1.00000
     28     -23.8305      1.00000
     29     -23.7174      1.00000
     30     -23.4836      1.00000
     31     -23.3167      1.00000
     32     -23.1705      1.00000
     33     -22.9054      1.00000
     34     -22.8836      1.00000
     35     -22.8127      1.00000
     36     -22.6929      1.00000
     37     -22.5084      1.00000
     38     -22.4026      1.00000
     39     -21.8629      1.00000
     40     -21.7735      1.00000
     41     -16.4243      1.00000
     42     -16.3492      1.00000
     43     -16.1639      1.00000
     44     -16.0361      1.00000
     45     -15.8142      1.00000
     46     -15.8040      1.00000
     47     -15.5003      1.00000
     48     -15.2808      1.00000
     49      -8.2375      1.00000
     50      -7.6503      1.00000
     51      -7.3570      1.00000
     52      -6.8363      1.00000
     53      -6.7143      1.00000
     54      -6.6610      1.00000
     55      -6.6256      1.00000
     56      -6.5582      1.00000
     57      -6.5221      1.00000
     58      -6.3632      1.00000
     59      -6.2985      1.00000
     60      -6.1964      1.00000
     61      -6.1631      1.00000
     62      -5.7921      1.00000
     63      -5.7657      1.00000
     64      -5.4957      1.00000
     65      -5.4675      1.00000
     66      -5.3911      1.00000
     67      -5.3605      1.00000
     68      -5.2593      1.00000
     69      -5.2194      1.00000
     70      -5.1651      1.00000
     71      -5.0980      1.00000
     72      -5.0769      1.00000
     73      -4.9107      1.00000
     74      -4.8996      1.00000
     75      -4.7796      1.00000
     76      -4.6694      1.00000
     77      -4.6478      1.00000
     78      -4.6278      1.00000
     79      -4.5908      1.00000
     80      -4.5465      1.00000
     81      -4.4503      1.00000
     82      -4.4195      1.00000
     83      -4.3998      1.00000
     84      -4.2969      1.00000
     85      -4.1846      1.00000
     86      -4.1705      1.00000
     87      -4.0985      1.00000
     88      -4.0685      1.00000
     89      -4.0065      1.00000
     90      -3.9582      1.00000
     91      -3.9310      1.00000
     92      -3.8945      1.00000
     93      -3.8436      1.00000
     94      -3.7568      1.00000
     95      -3.6889      1.00000
     96      -3.5649      1.00000
     97      -3.2614      1.00000
     98      -3.1695      1.00000
     99      -3.0424      1.00000
    100      -3.0384      1.00000
    101      -2.8650      1.00000
    102      -2.5774      1.00000
    103      -2.1200      1.00000
    104      -2.0217      1.00000
    105      -1.7923      1.00000
    106      -1.7584      1.00000
    107      -1.6999      1.00000
    108      -1.6513      1.00000
    109      -1.5871      1.00000
    110      -1.4806      1.00000
    111      -1.4023      1.00000
    112      -1.2710      1.00000
    113      -1.1441      1.00000
    114      -1.1273      1.00000
    115      -1.0158      1.00000
    116      -0.9308      1.00000
    117      -0.7114      1.00000
    118      -0.6477      1.00000
    119      -0.2097      1.00000
    120       0.3402      0.00000
    121       1.2558      0.00000
    122       1.3022      0.00000
    123       1.3546      0.00000
    124       2.4247      0.00000
    125       2.4570      0.00000
    126       2.4660      0.00000
    127       2.4785      0.00000
    128       2.6487      0.00000
    129       2.8035      0.00000
    130       2.8467      0.00000
    131       2.8657      0.00000
    132       2.9666      0.00000
    133       2.9816      0.00000
    134       3.1677      0.00000
    135       3.4361      0.00000
    136       3.4987      0.00000
    137       3.6264      0.00000
    138       3.6885      0.00000
    139       3.7319      0.00000
    140       3.7877      0.00000
    141       3.8262      0.00000
    142       3.8796      0.00000
    143       3.9355      0.00000
    144       4.0695      0.00000
    145       4.1336      0.00000
    146       4.1519      0.00000
    147       4.2018      0.00000
    148       4.3243      0.00000
    149       4.3428      0.00000
    150       4.5867      0.00000
    151       4.5999      0.00000
    152       4.6552      0.00000
    153       4.9568      0.00000
    154       5.2053      0.00000
    155       5.4829      0.00000
    156       5.7496      0.00000
    157       6.1063      0.00000
    158       6.1552      0.00000
    159       6.4025      0.00000
    160       6.6113      0.00000

 k-point     2 :      -0.2500    0.2500    0.2500
  band No.  band energies     occupation 
      1     -36.7473      1.00000
      2     -36.6845      1.00000
      3     -36.6192      1.00000
      4     -35.0952      1.00000
      5     -35.0617      1.00000
      6     -35.0200      1.00000
      7     -34.9876      1.00000
      8     -34.6309      1.00000
      9     -34.5750      1.00000
     10     -34.5716      1.00000
     11     -34.4622      1.00000
     12     -34.4017      1.00000
     13     -34.2813      1.00000
     14     -34.2701      1.00000
     15     -34.2444      1.00000
     16     -34.2344      1.00000
     17     -34.1494      1.00000
     18     -34.1132      1.00000
     19     -34.0944      1.00000
     20     -34.0383      1.00000
     21     -33.9423      1.00000
     22     -33.8845      1.00000
     23     -33.4393      1.00000
     24     -33.2689      1.00000
     25     -24.7357      1.00000
     26     -24.1711      1.00000
     27     -24.0892      1.00000
     28     -23.8305      1.00000
     29     -23.7174      1.00000
     30     -23.4836      1.00000
     31     -23.3168      1.00000
     32     -23.1704      1.00000
     33     -22.9060      1.00000
     34     -22.8831      1.00000
     35     -22.8127      1.00000
     36     -22.6929      1.00000
     37     -22.5084      1.00000
     38     -22.4026      1.00000
     39     -21.8629      1.00000
     40     -21.7735      1.00000
     41     -16.4243      1.00000
     42     -16.3492      1.00000
     43     -16.1639      1.00000
     44     -16.0361      1.00000
     45     -15.8142      1.00000
     46     -15.8040      1.00000
     47     -15.5003      1.00000
     48     -15.2808      1.00000
     49      -8.2375      1.00000
     50      -7.6503      1.00000
     51      -7.3570      1.00000
     52      -6.8364      1.00000
     53      -6.7144      1.00000
     54      -6.6605      1.00000
     55      -6.6260      1.00000
     56      -6.5580      1.00000
     57      -6.5221      1.00000
     58      -6.3633      1.00000
     59      -6.2985      1.00000
     60      -6.1964      1.00000
     61      -6.1631      1.00000
     62      -5.7925      1.00000
     63      -5.7653      1.00000
     64      -5.4962      1.00000
     65      -5.4670      1.00000
     66      -5.3910      1.00000
     67      -5.3606      1.00000
     68      -5.2593      1.00000
     69      -5.2193      1.00000
     70      -5.1653      1.00000
     71      -5.0980      1.00000
     72      -5.0768      1.00000
     73      -4.9107      1.00000
     74      -4.8996      1.00000
     75      -4.7796      1.00000
     76      -4.6692      1.00000
     77      -4.6478      1.00000
     78      -4.6276      1.00000
     79      -4.5908      1.00000
     80      -4.5466      1.00000
     81      -4.4503      1.00000
     82      -4.4197      1.00000
     83      -4.3997      1.00000
     84      -4.2970      1.00000
     85      -4.1847      1.00000
     86      -4.1705      1.00000
     87      -4.0985      1.00000
     88      -4.0684      1.00000
     89      -4.0065      1.00000
     90      -3.9584      1.00000
     91      -3.9307      1.00000
     92      -3.8945      1.00000
     93      -3.8436      1.00000
     94      -3.7568      1.00000
     95      -3.6889      1.00000
     96      -3.5651      1.00000
     97      -3.2614      1.00000
     98      -3.1695      1.00000
     99      -3.0424      1.00000
    100      -3.0383      1.00000
    101      -2.8650      1.00000
    102      -2.5774      1.00000
    103      -2.1199      1.00000
    104      -2.0217      1.00000
    105      -1.7922      1.00000
    106      -1.7584      1.00000
    107      -1.6999      1.00000
    108      -1.6513      1.00000
    109      -1.5871      1.00000
    110      -1.4806      1.00000
    111      -1.4023      1.00000
    112      -1.2710      1.00000
    113      -1.1441      1.00000
    114      -1.1273      1.00000
    115      -1.0158      1.00000
    116      -0.9308      1.00000
    117      -0.7114      1.00000
    118      -0.6477      1.00000
    119      -0.2097      1.00000
    120       0.3402      0.00000
    121       1.2558      0.00000
    122       1.3022      0.00000
    123       1.3546      0.00000
    124       2.4247      0.00000
    125       2.4570      0.00000
    126       2.4660      0.00000
    127       2.4785      0.00000
    128       2.6487      0.00000
    129       2.8035      0.00000
    130       2.8467      0.00000
    131       2.8657      0.00000
    132       2.9666      0.00000
    133       2.9816      0.00000
    134       3.1677      0.00000
    135       3.4361      0.00000
    136       3.4989      0.00000
    137       3.6265      0.00000
    138       3.6884      0.00000
    139       3.7319      0.00000
    140       3.7877      0.00000
    141       3.8262      0.00000
    142       3.8797      0.00000
    143       3.9353      0.00000
    144       4.0696      0.00000
    145       4.1336      0.00000
    146       4.1520      0.00000
    147       4.2017      0.00000
    148       4.3242      0.00000
    149       4.3428      0.00000
    150       4.5867      0.00000
    151       4.5999      0.00000
    152       4.6552      0.00000
    153       4.9569      0.00000
    154       5.2053      0.00000
    155       5.4829      0.00000
    156       5.7496      0.00000
    157       6.1063      0.00000
    158       6.1552      0.00000
    159       6.4025      0.00000
    160       6.6113      0.00000

 k-point     3 :       0.2500   -0.2500    0.2500
  band No.  band energies     occupation 
      1     -36.7473      1.00000
      2     -36.6845      1.00000
      3     -36.6192      1.00000
      4     -35.0952      1.00000
      5     -35.0617      1.00000
      6     -35.0200      1.00000
      7     -34.9876      1.00000
      8     -34.6309      1.00000
      9     -34.5750      1.00000
     10     -34.5716      1.00000
     11     -34.4622      1.00000
     12     -34.4017      1.00000
     13     -34.2813      1.00000
     14     -34.2701      1.00000
     15     -34.2444      1.00000
     16     -34.2344      1.00000
     17     -34.1494      1.00000
     18     -34.1132      1.00000
     19     -34.0944      1.00000
     20     -34.0383      1.00000
     21     -33.9423      1.00000
     22     -33.8845      1.00000
     23     -33.4393      1.00000
     24     -33.2689      1.00000
     25     -24.7357      1.00000
     26     -24.1711      1.00000
     27     -24.0892      1.00000
     28     -23.8305      1.00000
     29     -23.7174      1.00000
     30     -23.4836      1.00000
     31     -23.3168      1.00000
     32     -23.1704      1.00000
     33     -22.9060      1.00000
     34     -22.8831      1.00000
     35     -22.8127      1.00000
     36     -22.6929      1.00000
     37     -22.5084      1.00000
     38     -22.4026      1.00000
     39     -21.8629      1.00000
     40     -21.7735      1.00000
     41     -16.4243      1.00000
     42     -16.3492      1.00000
     43     -16.1639      1.00000
     44     -16.0361      1.00000
     45     -15.8142      1.00000
     46     -15.8040      1.00000
     47     -15.5003      1.00000
     48     -15.2808      1.00000
     49      -8.2375      1.00000
     50      -7.6503      1.00000
     51      -7.3570      1.00000
     52      -6.8364      1.00000
     53      -6.7144      1.00000
     54      -6.6605      1.00000
     55      -6.6260      1.00000
     56      -6.5580      1.00000
     57      -6.5221      1.00000
     58      -6.3633      1.00000
     59      -6.2985      1.00000
     60      -6.1964      1.00000
     61      -6.1631      1.00000
     62      -5.7925      1.00000
     63      -5.7653      1.00000
     64      -5.4962      1.00000
     65      -5.4670      1.00000
     66      -5.3910      1.00000
     67      -5.3606      1.00000
     68      -5.2593      1.00000
     69      -5.2193      1.00000
     70      -5.1653      1.00000
     71      -5.0980      1.00000
     72      -5.0768      1.00000
     73      -4.9107      1.00000
     74      -4.8996      1.00000
     75      -4.7796      1.00000
     76      -4.6692      1.00000
     77      -4.6478      1.00000
     78      -4.6276      1.00000
     79      -4.5908      1.00000
     80      -4.5466      1.00000
     81      -4.4503      1.00000
     82      -4.4197      1.00000
     83      -4.3997      1.00000
     84      -4.2970      1.00000
     85      -4.1847      1.00000
     86      -4.1705      1.00000
     87      -4.0985      1.00000
     88      -4.0684      1.00000
     89      -4.0065      1.00000
     90      -3.9584      1.00000
     91      -3.9307      1.00000
     92      -3.8945      1.00000
     93      -3.8436      1.00000
     94      -3.7568      1.00000
     95      -3.6889      1.00000
     96      -3.5651      1.00000
     97      -3.2614      1.00000
     98      -3.1695      1.00000
     99      -3.0424      1.00000
    100      -3.0383      1.00000
    101      -2.8650      1.00000
    102      -2.5774      1.00000
    103      -2.1199      1.00000
    104      -2.0217      1.00000
    105      -1.7922      1.00000
    106      -1.7584      1.00000
    107      -1.6999      1.00000
    108      -1.6513      1.00000
    109      -1.5871      1.00000
    110      -1.4806      1.00000
    111      -1.4023      1.00000
    112      -1.2710      1.00000
    113      -1.1441      1.00000
    114      -1.1273      1.00000
    115      -1.0158      1.00000
    116      -0.9308      1.00000
    117      -0.7114      1.00000
    118      -0.6477      1.00000
    119      -0.2097      1.00000
    120       0.3402      0.00000
    121       1.2558      0.00000
    122       1.3022      0.00000
    123       1.3546      0.00000
    124       2.4247      0.00000
    125       2.4570      0.00000
    126       2.4660      0.00000
    127       2.4785      0.00000
    128       2.6487      0.00000
    129       2.8035      0.00000
    130       2.8467      0.00000
    131       2.8657      0.00000
    132       2.9666      0.00000
    133       2.9816      0.00000
    134       3.1677      0.00000
    135       3.4361      0.00000
    136       3.4989      0.00000
    137       3.6264      0.00000
    138       3.6884      0.00000
    139       3.7319      0.00000
    140       3.7877      0.00000
    141       3.8262      0.00000
    142       3.8797      0.00000
    143       3.9353      0.00000
    144       4.0696      0.00000
    145       4.1336      0.00000
    146       4.1520      0.00000
    147       4.2017      0.00000
    148       4.3242      0.00000
    149       4.3428      0.00000
    150       4.5867      0.00000
    151       4.5999      0.00000
    152       4.6552      0.00000
    153       4.9569      0.00000
    154       5.2053      0.00000
    155       5.4829      0.00000
    156       5.7496      0.00000
    157       6.1063      0.00000
    158       6.1552      0.00000
    159       6.4025      0.00000
    160       6.6113      0.00000

 k-point     4 :      -0.2500   -0.2500    0.2500
  band No.  band energies     occupation 
      1     -36.7473      1.00000
      2     -36.6845      1.00000
      3     -36.6192      1.00000
      4     -35.0952      1.00000
      5     -35.0617      1.00000
      6     -35.0200      1.00000
      7     -34.9876      1.00000
      8     -34.6309      1.00000
      9     -34.5750      1.00000
     10     -34.5716      1.00000
     11     -34.4622      1.00000
     12     -34.4017      1.00000
     13     -34.2813      1.00000
     14     -34.2701      1.00000
     15     -34.2444      1.00000
     16     -34.2344      1.00000
     17     -34.1494      1.00000
     18     -34.1132      1.00000
     19     -34.0944      1.00000
     20     -34.0383      1.00000
     21     -33.9423      1.00000
     22     -33.8845      1.00000
     23     -33.4393      1.00000
     24     -33.2689      1.00000
     25     -24.7357      1.00000
     26     -24.1711      1.00000
     27     -24.0892      1.00000
     28     -23.8305      1.00000
     29     -23.7174      1.00000
     30     -23.4836      1.00000
     31     -23.3167      1.00000
     32     -23.1705      1.00000
     33     -22.9054      1.00000
     34     -22.8836      1.00000
     35     -22.8127      1.00000
     36     -22.6929      1.00000
     37     -22.5084      1.00000
     38     -22.4026      1.00000
     39     -21.8629      1.00000
     40     -21.7735      1.00000
     41     -16.4243      1.00000
     42     -16.3492      1.00000
     43     -16.1639      1.00000
     44     -16.0361      1.00000
     45     -15.8142      1.00000
     46     -15.8040      1.00000
     47     -15.5003      1.00000
     48     -15.2808      1.00000
     49      -8.2375      1.00000
     50      -7.6503      1.00000
     51      -7.3570      1.00000
     52      -6.8363      1.00000
     53      -6.7143      1.00000
     54      -6.6610      1.00000
     55      -6.6256      1.00000
     56      -6.5582      1.00000
     57      -6.5221      1.00000
     58      -6.3632      1.00000
     59      -6.2985      1.00000
     60      -6.1964      1.00000
     61      -6.1631      1.00000
     62      -5.7921      1.00000
     63      -5.7657      1.00000
     64      -5.4957      1.00000
     65      -5.4675      1.00000
     66      -5.3911      1.00000
     67      -5.3605      1.00000
     68      -5.2593      1.00000
     69      -5.2194      1.00000
     70      -5.1651      1.00000
     71      -5.0980      1.00000
     72      -5.0769      1.00000
     73      -4.9107      1.00000
     74      -4.8996      1.00000
     75      -4.7796      1.00000
     76      -4.6694      1.00000
     77      -4.6478      1.00000
     78      -4.6278      1.00000
     79      -4.5908      1.00000
     80      -4.5465      1.00000
     81      -4.4503      1.00000
     82      -4.4195      1.00000
     83      -4.3998      1.00000
     84      -4.2969      1.00000
     85      -4.1846      1.00000
     86      -4.1705      1.00000
     87      -4.0985      1.00000
     88      -4.0685      1.00000
     89      -4.0065      1.00000
     90      -3.9582      1.00000
     91      -3.9310      1.00000
     92      -3.8945      1.00000
     93      -3.8436      1.00000
     94      -3.7568      1.00000
     95      -3.6889      1.00000
     96      -3.5649      1.00000
     97      -3.2614      1.00000
     98      -3.1695      1.00000
     99      -3.0424      1.00000
    100      -3.0384      1.00000
    101      -2.8650      1.00000
    102      -2.5774      1.00000
    103      -2.1200      1.00000
    104      -2.0217      1.00000
    105      -1.7923      1.00000
    106      -1.7584      1.00000
    107      -1.6999      1.00000
    108      -1.6513      1.00000
    109      -1.5871      1.00000
    110      -1.4806      1.00000
    111      -1.4023      1.00000
    112      -1.2710      1.00000
    113      -1.1441      1.00000
    114      -1.1273      1.00000
    115      -1.0158      1.00000
    116      -0.9308      1.00000
    117      -0.7114      1.00000
    118      -0.6477      1.00000
    119      -0.2097      1.00000
    120       0.3402      0.00000
    121       1.2558      0.00000
    122       1.3022      0.00000
    123       1.3546      0.00000
    124       2.4247      0.00000
    125       2.4570      0.00000
    126       2.4660      0.00000
    127       2.4785      0.00000
    128       2.6487      0.00000
    129       2.8035      0.00000
    130       2.8467      0.00000
    131       2.8657      0.00000
    132       2.9666      0.00000
    133       2.9816      0.00000
    134       3.1677      0.00000
    135       3.4361      0.00000
    136       3.4987      0.00000
    137       3.6264      0.00000
    138       3.6885      0.00000
    139       3.7319      0.00000
    140       3.7877      0.00000
    141       3.8262      0.00000
    142       3.8796      0.00000
    143       3.9355      0.00000
    144       4.0695      0.00000
    145       4.1336      0.00000
    146       4.1519      0.00000
    147       4.2018      0.00000
    148       4.3243      0.00000
    149       4.3428      0.00000
    150       4.5867      0.00000
    151       4.5999      0.00000
    152       4.6552      0.00000
    153       4.9568      0.00000
    154       5.2053      0.00000
    155       5.4829      0.00000
    156       5.7496      0.00000
    157       6.1063      0.00000
    158       6.1552      0.00000
    159       6.4025      0.00000
    160       6.6113      0.00000


--------------------------------------------------------------------------------------------------------


 soft charge-density along one line, spin component           1
         0         1         2         3         4         5         6         7         8         9
[...]
  0.000   0.000  -0.000   0.000   0.000   0.000  -0.000   0.000   0.000   0.001   0.000   0.000   0.000  -0.000  -0.000  -0.000
 -0.000   0.000   0.000  -0.000  -0.000   0.000   0.000  -0.000  -0.000   0.000   0.002  -0.000   0.000   0.000  -0.000   0.000
 -0.000   0.000  -0.000  -0.000  -0.000  -0.000  -0.000   0.000  -0.000   0.000  -0.000  -0.001  -0.000   0.000  -0.000   0.000
 -0.000   0.000   0.000   0.000   0.000  -0.000  -0.000   0.033  -0.000   0.000   0.000  -0.000   0.014  -0.000   0.000  -0.000
 -0.000   0.000  -0.000   0.000  -0.000   0.000  -0.000  -0.000   0.001  -0.000   0.000   0.000  -0.000  -0.002   0.000   0.000
 -0.000   0.000   0.000  -0.000   0.000  -0.000   0.000   0.000  -0.000  -0.000  -0.000  -0.000   0.000   0.000  -0.001   0.000
  0.000   0.000  -0.000  -0.000  -0.000   0.000  -0.000  -0.000   0.000  -0.000   0.000   0.000  -0.000   0.000   0.000  -0.003
  0.000   0.000   0.000   0.000   0.000   0.000   0.000  -0.000  -0.000   0.000  -0.001  -0.000  -0.000  -0.001  -0.000   0.003
 -0.000  -0.000  -0.000   0.000   0.000   0.000   0.000  -0.000   0.002   0.000  -0.004  -0.000   0.000  -0.003   0.000   0.004


------------------------ aborting loop because EDIFF is reached ----------------------------------------


 


 total charge     
 
# of ion       s       p       d       tot
------------------------------------------
    1        0.328   6.520   1.752   8.601
    2        0.250   6.359   1.850   8.460
    3        0.297   6.456   1.726   8.478
    4        0.307   6.463   1.698   8.467
    5        0.304   6.457   1.764   8.525
    6        0.308   6.458   1.740   8.506
    7        0.307   6.458   1.730   8.495
    8        0.308   6.457   1.726   8.491
    9        1.572   3.411   0.000   4.984
   10        1.573   3.409   0.000   4.982
   11        1.568   3.438   0.000   5.006
   12        1.568   3.438   0.000   5.006
   13        1.570   3.424   0.000   4.993
   14        1.570   3.424   0.000   4.993
   15        1.571   3.420   0.000   4.991
   16        1.571   3.420   0.000   4.991
   17        1.731   4.374   0.000   6.105
   18        1.729   4.387   0.000   6.116
   19        1.729   4.379   0.000   6.109
   20        1.729   4.379   0.000   6.108
   21        1.731   4.374   0.000   6.105
   22        1.729   4.387   0.000   6.116
   23        1.729   4.379   0.000   6.109
   24        1.729   4.379   0.000   6.108
   25        1.731   4.384   0.000   6.115
   26        1.729   4.395   0.000   6.124
   27        1.731   4.383   0.000   6.114
   28        1.729   4.394   0.000   6.123
   29        1.729   4.364   0.000   6.092
   30        1.729   4.364   0.000   6.093
   31        1.735   4.408   0.000   6.143
   32        1.735   4.408   0.000   6.143
--------------------------------------------------
tot         42.657 149.151  13.985 205.793
 


 magnetization (x)
 
# of ion       s       p       d       tot
------------------------------------------
    1        0.000   0.001   0.067   0.068
    2        0.004   0.007   0.876   0.887
    3        0.000   0.000   0.004   0.004
    4       -0.000  -0.000   0.005   0.005
    5       -0.001  -0.002  -0.053  -0.057
    6       -0.002  -0.002  -0.052  -0.056
    7       -0.001  -0.002  -0.044  -0.048
    8       -0.001  -0.002  -0.046  -0.049
    9        0.004   0.221   0.000   0.225
   10        0.004   0.229   0.000   0.233
   11        0.000  -0.000   0.000  -0.000
   12        0.000  -0.000   0.000  -0.000
   13        0.002   0.127   0.000   0.129
   14        0.002   0.127   0.000   0.129
   15        0.002   0.132   0.000   0.134
   16        0.002   0.132   0.000   0.134
   17       -0.000  -0.001   0.000  -0.001
   18       -0.000  -0.009   0.000  -0.009
   19       -0.000   0.000   0.000   0.000
   20       -0.000   0.000   0.000   0.000
   21       -0.000  -0.001   0.000  -0.001
   22       -0.000  -0.009   0.000  -0.009
   23       -0.000   0.000   0.000   0.000
   24       -0.000   0.000   0.000   0.000
   25       -0.000  -0.000   0.000  -0.000
   26       -0.000   0.005   0.000   0.005
   27       -0.000   0.000   0.000  -0.000
   28       -0.000   0.005   0.000   0.005
   29        0.000   0.018   0.000   0.018
   30        0.000   0.017   0.000   0.017
   31       -0.001  -0.005   0.000  -0.005
   32       -0.001  -0.005   0.000  -0.005
--------------------------------------------------
tot          0.013   0.981   0.757   1.751
 
    CHARGE:  cpu time    0.3849: real time    0.3836
    FORLOC:  cpu time    0.0110: real time    0.0103
    FORNL :  cpu time    2.0717: real time    2.0628
    STRESS:  cpu time    6.4060: real time    6.4037
    FORCOR:  cpu time    0.1540: real time    0.1521
    FORHAR:  cpu time    0.2260: real time    0.2266
    MIXING:  cpu time    0.0410: real time    0.0405
    OFIELD:  cpu time    0.0000: real time    0.0904

  FORCE on cell =-STRESS in cart. coord.  units (eV):
  Direction    XX          YY          ZZ          XY          YZ          ZX
  --------------------------------------------------------------------------------------
  Alpha Z   748.04706   748.04706   748.04706
  Ewald   -4326.33065 -4281.61437 -4084.56270    -0.38416    -0.00009    -0.00015
  Hartree  2710.70086  2743.92313  2864.01436    -0.18776    -0.00007    -0.00008
  E(xc)   -1231.39910 -1231.77603 -1232.15415    -0.00132    -0.00000    -0.00000
  Local   -2010.19398 -2117.15125 -2494.22303     0.48303     0.00014     0.00022
  n-local  -975.13191  -969.31850  -959.30775    -0.02506    -0.00001     0.00001
  augment   739.41844   754.12009   774.62862     0.05343     0.00001    -0.00000
  Kinetic  4344.86788  4353.75767  4383.55118     0.06139     0.00001     0.00000
  Fock        0.00000     0.00000     0.00000     0.00000     0.00000     0.00000
  -------------------------------------------------------------------------------------
  Total      -0.02141    -0.01221    -0.00642    -0.00045    -0.00001     0.00001
  in kB      -0.07328    -0.04180    -0.02196    -0.00153    -0.00003     0.00003
  external pressure =       -0.05 kB  Pullay stress =        0.00 kB


 VOLUME and BASIS-vectors are now :
 -----------------------------------------------------------------------------
  energy-cutoff  :      700.00
  volume of cell :      468.11
      direct lattice vectors                 reciprocal lattice vectors
     7.919947472 -0.000317122 -0.000000019     0.126263464  0.000003905  0.000000003
    -0.000241986  7.824829968 -0.000000252     0.000005117  0.127798304  0.000000001
    -0.000000195 -0.000000060  7.553495464     0.000000000  0.000000004  0.132389038

  length of vectors
     7.919947478  7.824829972  7.553495464     0.126263464  0.127798304  0.132389038


 FORCES acting on ions
    electron-ion (+dipol)            ewald-force                    non-local-force                 convergence-correction
 -----------------------------------------------------------------------------------------------
   -.138E-02 0.359E+01 0.842E-02   0.133E-02 -.357E+01 -.899E-02   -.163E-04 -.240E-01 -.608E-04   0.492E-03 -.849E-03 -.439E-04
   0.320E-01 0.504E+01 0.326E-02   -.315E-01 -.496E+01 -.304E-02   -.531E-03 -.729E-01 -.295E-03   0.453E-03 0.704E-03 0.931E-04
   0.980E-02 -.575E+01 0.434E-02   -.987E-02 0.569E+01 -.440E-02   -.651E-04 0.623E-01 0.506E-04   0.288E-03 0.491E-04 0.133E-03
   0.103E-01 -.575E+01 0.481E-02   -.103E-01 0.570E+01 -.465E-02   -.123E-03 0.553E-01 0.403E-05   0.282E-03 -.150E-02 -.157E-03
   -.125E-01 -.106E+01 -.925E-03   0.123E-01 -.683E-01 0.345E-03   0.359E-03 0.114E+01 -.358E-05   -.424E-03 -.805E-02 0.598E-03
   -.991E-02 0.124E+01 0.121E-02   0.102E-01 -.231E+01 -.634E-03   -.596E-04 0.106E+01 0.291E-05   -.446E-03 0.897E-02 -.593E-03
   -.650E-02 -.233E+01 -.660E-03   0.663E-02 0.347E+01 0.203E-03   0.117E-03 -.115E+01 -.229E-05   -.317E-03 0.103E-01 0.451E-03
   -.299E-02 -.317E+01 0.856E-03   0.330E-02 0.429E+01 -.396E-03   -.788E-04 -.111E+01 0.188E-05   -.293E-03 -.925E-02 -.455E-03
   0.410E-02 0.131E+02 0.789E-04   -.561E-02 -.144E+02 -.330E-03   0.181E-02 0.129E+01 0.644E-04   -.168E-03 -.470E-02 0.198E-03
   -.904E-01 0.102E+02 0.269E-03   0.977E-01 -.112E+02 -.603E-04   -.729E-02 0.100E+01 -.168E-04   -.307E-03 0.294E-02 -.193E-03
   0.623E-02 -.270E+01 -.875E+01   -.644E-02 0.274E+01 0.950E+01   0.371E-04 -.373E-01 -.746E+00   0.165E-03 0.579E-03 -.604E-02
   0.625E-02 -.270E+01 0.873E+01   -.645E-02 0.274E+01 -.948E+01   0.400E-04 -.374E-01 0.744E+00   0.165E-03 0.575E-03 0.602E-02
   -.360E-02 -.913E+01 -.407E+01   0.351E-02 0.107E+02 0.448E+01   0.423E-03 -.155E+01 -.405E+00   -.247E-03 -.112E-02 0.394E-02
   -.366E-02 -.913E+01 0.407E+01   0.358E-02 0.107E+02 -.448E+01   0.416E-03 -.155E+01 0.405E+00   -.248E-03 -.111E-02 -.393E-02
   -.280E-02 0.595E+01 -.133E+01   0.277E-02 -.715E+01 0.147E+01   0.228E-03 0.121E+01 -.137E+00   -.166E-03 0.163E-02 -.225E-02
   -.281E-02 0.595E+01 0.133E+01   0.279E-02 -.716E+01 -.147E+01   0.227E-03 0.121E+01 0.137E+00   -.167E-03 0.163E-02 0.225E-02
   -.111E+03 -.517E+01 0.131E-02   0.121E+03 0.625E+01 -.157E-02   -.101E+02 -.108E+01 0.205E-03   -.219E-02 0.222E-03 0.647E-04
   -.622E+02 -.566E+01 0.918E-04   0.677E+02 0.692E+01 0.108E-03   -.549E+01 -.126E+01 -.177E-03   0.299E-02 0.456E-02 -.523E-04
   -.412E+02 0.570E+01 0.104E-02   0.449E+02 -.690E+01 -.130E-02   -.371E+01 0.119E+01 0.143E-03   -.194E-02 -.155E-02 0.107E-03
   -.417E+02 0.537E+01 0.180E-02   0.452E+02 -.659E+01 -.193E-02   -.344E+01 0.122E+01 0.236E-03   0.207E-02 -.379E-02 -.107E-03
   0.111E+03 -.514E+01 0.120E-02   -.121E+03 0.622E+01 -.144E-02   0.101E+02 -.108E+01 0.185E-03   0.228E-02 0.268E-03 0.651E-04
   0.622E+02 -.573E+01 0.135E-03   -.677E+02 0.703E+01 0.651E-04   0.549E+01 -.130E+01 -.180E-03   -.285E-02 0.366E-02 -.510E-04
   0.412E+02 0.569E+01 0.102E-02   -.449E+02 -.689E+01 -.128E-02   0.371E+01 0.119E+01 0.142E-03   0.198E-02 -.147E-02 0.108E-03
   0.417E+02 0.520E+01 0.181E-02   -.452E+02 -.640E+01 -.195E-02   0.343E+01 0.121E+01 0.236E-03   -.206E-02 -.385E-02 -.107E-03
   -.379E-02 -.726E+02 0.386E-02   0.458E-02 0.795E+02 -.435E-02   -.115E-02 -.690E+01 0.489E-03   0.202E-03 0.270E-02 -.804E-07
   0.409E-01 -.451E+01 0.563E-03   -.554E-01 0.315E+01 -.597E-03   0.144E-01 0.136E+01 -.116E-04   0.657E-03 -.664E-03 0.185E-04
   0.857E-02 0.739E+02 0.991E-03   -.887E-02 -.807E+02 -.119E-02   0.781E-04 0.687E+01 0.192E-03   0.267E-03 -.241E-02 0.733E-05
   -.567E-01 0.516E+01 0.298E-02   0.758E-01 -.390E+01 -.327E-02   -.194E-01 -.126E+01 0.250E-03   -.176E-03 0.169E-02 0.139E-04
   -.482E-02 -.645E+01 -.346E-03   0.603E-02 0.704E+01 0.147E-03   -.985E-03 -.600E+00 -.326E-05   -.293E-03 0.240E-02 0.205E-03
   0.702E-01 -.509E+01 0.442E-03   -.771E-01 0.544E+01 -.241E-03   0.740E-02 -.343E+00 -.469E-05   -.145E-03 -.199E-02 -.203E-03
   0.324E-03 0.255E+01 -.540E+02   0.857E-03 -.266E+01 0.612E+02   -.150E-02 0.115E+00 -.720E+01   0.265E-03 -.961E-04 -.222E-02
   0.440E-03 0.255E+01 0.540E+02   0.729E-03 -.267E+01 -.612E+02   -.149E-02 0.115E+00 0.720E+01   0.265E-03 -.866E-04 0.206E-02
 -----------------------------------------------------------------------------------------------
   0.295E-02 -.943E+00 0.248E-02   0.627E-13 -.817E-13 -.284E-13   -.308E-02 0.944E+00 -.239E-02   0.388E-03 0.419E-03 -.604E-04
 
 
 POSITION                                       TOTAL-FORCE (eV/Angst)
 -----------------------------------------------------------------------------------
      0.00002      0.00368      0.00001         0.000420     -0.000335     -0.000683
      7.91990      0.00245      3.77675         0.000374      0.001301      0.000019
      7.91979      3.91237      0.00001         0.000141      0.000785      0.000125
     -0.00011      3.91182      3.77676         0.000124      0.001241      0.000001
      3.95975      7.73127      7.55349        -0.000243     -0.001402      0.000014
      3.95972      7.73556      3.77675        -0.000192     -0.000110     -0.000017
      3.95982      3.99028      0.00000        -0.000072     -0.002611     -0.000010
      3.95986      3.99142      3.77675        -0.000067      0.001747      0.000005
      3.95971      5.88052      7.55349         0.000127     -0.002154      0.000010
      3.96015      5.87795      3.77675        -0.000368      0.000887     -0.000002
      7.91981      3.91768      1.87065        -0.000011      0.003090     -0.001234
      7.91981      3.91769      5.68283        -0.000011      0.003095      0.001188
      3.95973      7.81517      1.88076         0.000078     -0.003694      0.000817
      3.95973      7.81517      5.67274         0.000078     -0.003689     -0.000831
      3.95984      3.93112      1.88617         0.000027      0.004482     -0.000023
      3.95984      3.93112      5.66732         0.000027      0.004479      0.000015
      1.88512      0.01501      0.00000        -0.000859      0.003405      0.000008
      1.93030      0.01958      3.77675         0.000436      0.008318     -0.000031
      1.94563      3.89023      7.55349        -0.000233     -0.009364     -0.000014
      1.94799      3.89104      3.77675         0.000677     -0.005996     -0.000007
      6.03487      0.01475      0.00000         0.000450      0.003658      0.000006
      5.98960      0.02081      3.77675        -0.000530      0.006878     -0.000032
      5.97402      3.89005      7.55349         0.000219     -0.009133     -0.000012
      5.97173      3.89148      3.77675        -0.000730     -0.006437     -0.000008
     -0.00005      1.89761      7.55349        -0.000155      0.001013     -0.000002
      7.91926      1.97363      3.77675         0.000571      0.000336     -0.000028
     -0.00018      5.93151      0.00000         0.000042      0.000646      0.000004
      0.00059      5.85381      3.77674        -0.000479      0.001925     -0.000028
      3.95995      1.94267      0.00000        -0.000075     -0.000788      0.000002
      3.95957      1.94825      3.77675         0.000364      0.000290     -0.000008
     -0.00022      7.82341      1.83785        -0.000066     -0.000927      0.000629
     -0.00022      7.82340      5.71563        -0.000066     -0.000934      0.000125
 -----------------------------------------------------------------------------------
    total drift:                                0.000257      0.000911      0.000033


--------------------------------------------------------------------------------------------------------



  FREE ENERGIE OF THE ION-ELECTRON SYSTEM (eV)
  ---------------------------------------------------
  free  energy   TOTEN  =      -209.31599165 eV

  energy  without entropy=     -209.31599165  energy(sigma->0) =     -209.31599165
 


--------------------------------------------------------------------------------------------------------


    POTLOK:  cpu time    1.0158: real time    1.0162


--------------------------------------------------------------------------------------------------------


 stress matrix after NEB project (eV)
     -0.02141     -0.00045      0.00001
     -0.00045     -0.01221     -0.00001
      0.00001     -0.00001     -0.00642
  FORCES: max atom, RMS     0.009367    0.004010
  FORCE total and by dimension    0.022682    0.009364
  Stress total and by dimension    0.025478    0.021410
 Quasi-Newton relaxation of ions (Broydens 2nd method)
  g(Force)  = 0.248E-04   g(Stress)= 0.979E-06

 Reset! Starting new Quasi-Newton update for ions 


--------------------------------------------------------------------------------------------------------


  
 reached required accuracy - stopping structural energy minimisation
 writing wavefunctions
     LOOP+:  cpu time   39.7440: real time   43.5181
    4ORBIT:  cpu time    0.0000: real time    0.0000
 


 total charge     
 
# of ion       s       p       d       tot
------------------------------------------
    1        0.328   6.520   1.752   8.601
    2        0.250   6.359   1.850   8.460
    3        0.297   6.456   1.726   8.478
    4        0.307   6.463   1.698   8.467
    5        0.304   6.457   1.764   8.525
    6        0.308   6.458   1.740   8.506
    7        0.307   6.458   1.730   8.495
    8        0.308   6.457   1.726   8.491
    9        1.572   3.411   0.000   4.984
   10        1.573   3.409   0.000   4.982
   11        1.568   3.438   0.000   5.006
   12        1.568   3.438   0.000   5.006
   13        1.570   3.424   0.000   4.993
   14        1.570   3.424   0.000   4.993
   15        1.571   3.420   0.000   4.991
   16        1.571   3.420   0.000   4.991
   17        1.731   4.374   0.000   6.105
   18        1.729   4.387   0.000   6.116
   19        1.729   4.379   0.000   6.109
   20        1.729   4.379   0.000   6.108
   21        1.731   4.374   0.000   6.105
   22        1.729   4.387   0.000   6.116
   23        1.729   4.379   0.000   6.109
   24        1.729   4.379   0.000   6.108
   25        1.731   4.384   0.000   6.115
   26        1.729   4.395   0.000   6.124
   27        1.731   4.383   0.000   6.114
   28        1.729   4.394   0.000   6.123
   29        1.729   4.364   0.000   6.092
   30        1.729   4.364   0.000   6.093
   31        1.735   4.408   0.000   6.143
   32        1.735   4.408   0.000   6.143
--------------------------------------------------
tot         42.657 149.151  13.985 205.793
 


 magnetization (x)
 
# of ion       s       p       d       tot
------------------------------------------
    1        0.000   0.001   0.067   0.068
    2        0.004   0.007   0.876   0.887
    3        0.000   0.000   0.004   0.004
    4       -0.000  -0.000   0.005   0.005
    5       -0.001  -0.002  -0.053  -0.057
    6       -0.002  -0.002  -0.052  -0.056
    7       -0.001  -0.002  -0.044  -0.048
    8       -0.001  -0.002  -0.046  -0.049
    9        0.004   0.221   0.000   0.225
   10        0.004   0.229   0.000   0.233
   11        0.000  -0.000   0.000  -0.000
   12        0.000  -0.000   0.000  -0.000
   13        0.002   0.127   0.000   0.129
   14        0.002   0.127   0.000   0.129
   15        0.002   0.132   0.000   0.134
   16        0.002   0.132   0.000   0.134
   17       -0.000  -0.001   0.000  -0.001
   18       -0.000  -0.009   0.000  -0.009
   19       -0.000   0.000   0.000   0.000
   20       -0.000   0.000   0.000   0.000
   21       -0.000  -0.001   0.000  -0.001
   22       -0.000  -0.009   0.000  -0.009
   23       -0.000   0.000   0.000   0.000
   24       -0.000   0.000   0.000   0.000
   25       -0.000  -0.000   0.000  -0.000
   26       -0.000   0.005   0.000   0.005
   27       -0.000   0.000   0.000  -0.000
   28       -0.000   0.005   0.000   0.005
   29        0.000   0.018   0.000   0.018
   30        0.000   0.017   0.000   0.017
   31       -0.001  -0.005   0.000  -0.005
   32       -0.001  -0.005   0.000  -0.005
--------------------------------------------------
tot          0.013   0.981   0.757   1.751
 

 total amount of memory used by VASP MPI-rank0    62295. kBytes
=======================================================================

   base      :      30000. kBytes
   nonlr-proj:       8453. kBytes
   fftplans  :       8423. kBytes
   grid      :       8783. kBytes
   one-center:        124. kBytes
   wavefun   :       6512. kBytes
 
  
  
 General timing and accounting informations for this job:
 ========================================================
  
                  Total CPU time used (sec):       71.665
                            User time (sec):       64.178
                          System time (sec):        7.487
                         Elapsed time (sec):       99.280
  
                   Maximum memory used (kb):      174380.
                   Average memory used (kb):           0.
  
                          Minor page faults:        86109
                          Major page faults:            2
                 Voluntary context switches:        15731
