 vasp.5.4.4.18Apr17-6-g9f103f2a35 (build Apr 30 2017 20:10:35) complex          
  
 executed on             LinuxIFC date 2017.08.07  13:04:44
 running on   64 total cores
 distrk:  each k-point on   64 cores,    1 groups
 distr:  one band on NCORES_PER_BAND=   8 cores,    8 groups


--------------------------------------------------------------------------------------------------------


 INCAR:
 POTCAR:   PAW_PBE Ti_pv 07Sep2000                
 POTCAR:   PAW_PBE O 08Apr2002                    
 POTCAR:    PAW_PBE F 08Apr2002                   
 POTCAR:   PAW_PBE Ti_pv 07Sep2000                
   VRHFIN =Ti: d3 s1                                                            
   LEXCH  = PE                                                                  
   EATOM  =  1042.3781 eV,   76.6126 Ry                                         
                                                                                
   TITEL  = PAW_PBE Ti_pv 07Sep2000                                             
   LULTRA =        F    use ultrasoft PP ?                                      
   IUNSCR =        1    unscreen: 0-lin 1-nonlin 2-no                           
   RPACOR =    2.200    partial core radius                                     
   POMASS =   47.880; ZVAL   =   10.000    mass and valenz                      
   RCORE  =    2.500    outmost cutoff radius                                   
   RWIGS  =    2.500; RWIGS  =    1.323    wigner-seitz radius (au A)           
   ENMAX  =  222.338; ENMIN  =  166.753 eV                                      
   RCLOC  =    1.701    cutoff for local pot                                    
   LCOR   =        T    correct aug charges                                     
   LPAW   =        T    paw PP                                                  
   EAUG   =  482.848                                                            
   DEXC   =    -.008                                                            
   RMAX   =    3.092    core radius for proj-oper                               
   RAUG   =    1.300    factor for augmentation sphere                          
   RDEP   =    2.538    radius for radial grids                                 
   QCUT   =   -4.042; QGAM   =    8.085    optimization parameters              
                                                                                
   Description                                                                  
     l     E      TYP  RCUT    TYP  RCUT                                        
     1   .000     23  2.300                                                     
     1  -.100     23  2.300                                                     
     2   .000     23  2.500                                                     
     2   .000     23  2.500                                                     
     0   .000     23  2.500                                                     
     0  1.500     23  2.500                                                     
     3   .000      7   .000                                                     
  local pseudopotential read in
  partial core-charges read in
  atomic valenz-charges read in
  non local Contribution for L=           1  read in
    real space projection operators read in
  non local Contribution for L=           1  read in
    real space projection operators read in
  non local Contribution for L=           2  read in
    real space projection operators read in
  non local Contribution for L=           2  read in
    real space projection operators read in
  non local Contribution for L=           0  read in
    real space projection operators read in
  non local Contribution for L=           0  read in
    real space projection operators read in
    PAW grid and wavefunctions read in
 
   number of l-projection  operators is LMAX  =           6
   number of lm-projection operators is LMMAX =          18
 
 POTCAR:   PAW_PBE O 08Apr2002                    
   VRHFIN =O: s2p4                                                              
   LEXCH  = PE                                                                  
   EATOM  =   432.3788 eV,   31.7789 Ry                                         
                                                                                
   TITEL  = PAW_PBE O 08Apr2002                                                 
   LULTRA =        F    use ultrasoft PP ?                                      
   IUNSCR =        0    unscreen: 0-lin 1-nonlin 2-no                           
   RPACOR =     .000    partial core radius                                     
   POMASS =   16.000; ZVAL   =    6.000    mass and valenz                      
   RCORE  =    1.520    outmost cutoff radius                                   
   RWIGS  =    1.550; RWIGS  =     .820    wigner-seitz radius (au A)           
   ENMAX  =  400.000; ENMIN  =  300.000 eV                                      
   ICORE  =        2    local potential                                         
   LCOR   =        T    correct aug charges                                     
   LPAW   =        T    paw PP                                                  
   EAUG   =  605.392                                                            
   DEXC   =     .000                                                            
   RMAX   =    2.264    core radius for proj-oper                               
   RAUG   =    1.300    factor for augmentation sphere                          
   RDEP   =    1.550    radius for radial grids                                 
   QCUT   =   -5.520; QGAM   =   11.041    optimization parameters              
                                                                                
   Description                                                                  
     l     E      TYP  RCUT    TYP  RCUT                                        
     0   .000     23  1.200                                                     
     0  -.700     23  1.200                                                     
     1   .000     23  1.520                                                     
     1   .600     23  1.520                                                     
     2   .000      7  1.500                                                     
  local pseudopotential read in
  atomic valenz-charges read in
  non local Contribution for L=           0  read in
    real space projection operators read in
  non local Contribution for L=           0  read in
    real space projection operators read in
  non local Contribution for L=           1  read in
    real space projection operators read in
  non local Contribution for L=           1  read in
    real space projection operators read in
    PAW grid and wavefunctions read in
 
   number of l-projection  operators is LMAX  =           4
   number of lm-projection operators is LMMAX =           8
 
 POTCAR:    PAW_PBE F 08Apr2002                   
   VRHFIN =F: s2p5                                                              
   LEXCH  = PE                                                                  
   EATOM  =   659.6475 eV,   48.4827 Ry                                         
                                                                                
   TITEL  = PAW_PBE F 08Apr2002                                                 
   LULTRA =        F    use ultrasoft PP ?                                      
   IUNSCR =        1    unscreen: 0-lin 1-nonlin 2-no                           
   RPACOR =    1.200    partial core radius                                     
   POMASS =   18.998; ZVAL   =    7.000    mass and valenz                      
   RCORE  =    1.520    outmost cutoff radius                                   
   RWIGS  =    1.500; RWIGS  =    0.794    wigner-seitz radius (au A)           
   ENMAX  =  400.000; ENMIN  =  300.000 eV                                      
   ICORE  =        2    local potential                                         
   LCOR   =        T    correct aug charges                                     
   LPAW   =        T    paw PP                                                  
   EAUG   =  613.614                                                            
   RMAX   =    1.555    core radius for proj-oper                               
   RAUG   =    1.300    factor for augmentation sphere                          
   RDEP   =    1.539    radius for radial grids                                 
   RDEPT  =    1.299    core radius for aug-charge                              
                                                                                
   Atomic configuration                                                         
    4 entries                                                                   
     n  l   j            E        occ.                                          
     1  0  0.50      -663.3661   2.0000                                         
     2  0  0.50       -29.8995   2.0000                                         
     2  1  0.50       -11.1114   5.0000                                         
     3  2  1.50       -10.8847   0.0000                                         
   Description                                                                  
     l       E           TYP  RCUT    TYP  RCUT                                 
     0    -29.8995018     23  1.200                                             
     0     -9.5240782     23  1.200                                             
     1    -11.1113914     23  1.520                                             
     1      1.3605826     23  1.520                                             
     2    -10.8846608      7  1.500                                             
  local pseudopotential read in
  partial core-charges read in
  partial kinetic energy density read in
  atomic valenz-charges read in
  non local Contribution for L=           0  read in
    real space projection operators read in
  non local Contribution for L=           0  read in
    real space projection operators read in
  non local Contribution for L=           1  read in
    real space projection operators read in
  non local Contribution for L=           1  read in
    real space projection operators read in
    PAW grid and wavefunctions read in
 
   number of l-projection  operators is LMAX  =           4
   number of lm-projection operators is LMMAX =           8
 
 Optimization of the real space projectors (new method)

 maximal supplied QI-value         = 15.12
 optimisation between [QCUT,QGAM] = [ 13.45, 27.06] = [ 50.69,205.06] Ry 
 Optimized for a Real-space Cutoff    1.49 Angstroem

   l    n(q)    QCUT    max X(q) W(low)/X(q) W(high)/X(q)  e(spline) 
   1     12    13.455     4.841    0.13E-05    0.83E-06    0.56E-07
   1     12    13.455     5.701    0.32E-04    0.25E-04    0.17E-06
   2     11    13.455     4.569    0.64E-05    0.34E-05    0.50E-07
   2     11    13.455    32.276    0.49E-04    0.38E-04    0.46E-06
   0     12    13.455    30.046    0.17E-04    0.41E-05    0.51E-07
   0     12    13.455    45.433    0.12E-04    0.27E-04    0.38E-06
 Optimization of the real space projectors (new method)

 maximal supplied QI-value         = 24.76
 optimisation between [QCUT,QGAM] = [ 13.37, 26.98] = [ 50.04,203.89] Ry 
 Optimized for a Real-space Cutoff    1.17 Angstroem

   l    n(q)    QCUT    max X(q) W(low)/X(q) W(high)/X(q)  e(spline) 
   0      9    13.368     4.192    0.20E-04    0.58E-05    0.56E-07
   0      9    13.368     8.473    0.60E-04    0.52E-04    0.21E-06
   1      9    13.368     2.474    0.22E-04    0.17E-04    0.28E-07
   1      9    13.368     3.912    0.94E-04    0.97E-04    0.20E-06
 Optimization of the real space projectors (new method)

 maximal supplied QI-value         = 24.76
 optimisation between [QCUT,QGAM] = [ 13.37, 26.98] = [ 50.04,203.89] Ry 
 Optimized for a Real-space Cutoff    1.17 Angstroem

   l    n(q)    QCUT    max X(q) W(low)/X(q) W(high)/X(q)  e(spline) 
   0      9    13.368    14.049    0.39E-04    0.34E-04    0.16E-06
   0      9    13.368     8.945    0.54E-04    0.47E-04    0.20E-06
   1      9    13.368     7.086    0.99E-04    0.10E-03    0.23E-06
   1      9    13.368     6.747    0.86E-04    0.89E-04    0.21E-06

 ----------------------------------------------------------------------------- 
|                                                                             |
|  ADVICE TO THIS USER RUNNING 'VASP/VAMP'   (HEAR YOUR MASTER'S VOICE ...):  |
|                                                                             |
|      You enforced a specific xc-type in the INCAR file,                     |
|      a different type was found on the POTCAR file                          |
|          I HOPE YOU KNOW, WHAT YOU ARE  DOING                               |
|                                                                             |
 ----------------------------------------------------------------------------- 

 PAW_PBE Ti_pv 07Sep2000                :
 energy of atom  1       EATOM=-1042.3781
 kinetic energy error for atom=    0.0006 (will be added to EATOM!!)
 PAW_PBE O 08Apr2002                    :
 energy of atom  2       EATOM= -432.3788
 kinetic energy error for atom=    0.0091 (will be added to EATOM!!)
  PAW_PBE F 08Apr2002                   :
 energy of atom  3       EATOM= -659.6475
 kinetic energy error for atom=    0.0140 (will be added to EATOM!!)
 
 
 POSCAR: TiOF2 2x2x2 config 1540                 
  positions in direct lattice
  velocities in cartesian coordinates
 exchange correlation table for  LEXCH =       14
   RHO(1)=    0.500       N(1)  =     2000
   RHO(2)=  100.500       N(2)  =     4000

 VTST: version 3.1, (03/28/14)

 CHAIN: initializing optimizer
 
 OPT: Using VASP QUASI-newton optimizer
 CHAIN: Read ICHAIN            0
 
 POSCAR: TiOF2 2x2x2 config 1540                 
  positions in direct lattice
  velocities in cartesian coordinates
 


--------------------------------------------------------------------------------------------------------


 ion  position               nearest neighbor table
   1  0.000  0.989  0.987-  11 1.83  15 1.84  17 1.94  21 1.95  23 2.00  27 2.05
   2  0.000  0.989  0.513-  12 1.83  15 1.84  18 1.94  22 1.95  24 2.00  27 2.05
   3  0.987  0.511  0.000-  11 1.83   9 1.84  28 1.95  29 1.95  23 2.00  19 2.04
   4  0.987  0.511  0.500-  12 1.83  10 1.84  28 1.95  29 1.95  24 2.00  20 2.04
   5  0.500  0.989  0.013-  13 1.83  16 1.84  17 1.94  21 1.95  25 2.00  30 2.05
   6  0.500  0.989  0.487-  14 1.83  16 1.84  18 1.94  22 1.95  26 2.00  30 2.05
   7  0.513  0.511  1.000-  13 1.83   9 1.84  32 1.95  31 1.95  25 2.00  19 2.04
   8  0.513  0.511  0.500-  14 1.83  10 1.84  32 1.95  31 1.95  26 2.00  20 2.04
   9  0.750  0.497  1.000-   7 1.84   3 1.84
  10  0.750  0.497  0.500-   4 1.84   8 1.84
  11  0.002  0.750  0.003-   3 1.83   1 1.83
  12  0.002  0.750  0.497-   4 1.83   2 1.83
  13  0.498  0.750  0.997-   7 1.83   5 1.83
  14  0.498  0.750  0.503-   8 1.83   6 1.83
  15  0.999  0.002  0.750-   1 1.84   2 1.84
  16  0.501  0.002  0.250-   6 1.84   5 1.84
  17  0.250  0.009  1.000-   1 1.94   5 1.94
  18  0.250  0.009  0.500-   2 1.94   6 1.94
  19  0.250  0.495  0.000-   3 2.04   7 2.04
  20  0.250  0.495  0.500-   8 2.04   4 2.04
  21  0.750  0.012  0.000-   5 1.95   1 1.95
  22  0.750  0.012  0.500-   2 1.95   6 1.95
  23  0.004  0.250  0.005-   1 2.00   3 2.00
  24  0.004  0.250  0.495-   2 2.00   4 2.00
  25  0.496  0.250  0.995-   5 2.00   7 2.00
  26  0.496  0.250  0.505-   6 2.00   8 2.00
  27  0.999  0.005  0.250-   2 2.05   1 2.05
  28  0.008  0.490  0.250-   3 1.95   4 1.95
  29  0.008  0.489  0.750-   3 1.95   4 1.95
  30  0.501  0.005  0.750-   5 2.05   6 2.05
  31  0.492  0.489  0.250-   8 1.95   7 1.95
  32  0.492  0.490  0.750-   8 1.95   7 1.95
 

IMPORTANT INFORMATION: All symmetrisations will be switched off!
NOSYMM: (Re-)initialisation of all symmetry stuff for point group C_1.

 
 
 KPOINTS: Title                                   

Automatic generation of k-mesh.
Space group operators:
 irot       det(A)        alpha          n_x          n_y          n_z        tau_x        tau_y        tau_z
    1     1.000000     0.000000     1.000000     0.000000     0.000000     0.000000     0.000000     0.000000
 
 Subroutine IBZKPT returns following result:
 ===========================================
 
 Found     32 irreducible k-points:
 
 Following reciprocal coordinates:
            Coordinates               Weight
  0.125000  0.125000  0.125000      2.000000
  0.375000  0.125000  0.125000      2.000000
 -0.375000  0.125000  0.125000      2.000000
 -0.125000  0.125000  0.125000      2.000000
  0.125000  0.375000  0.125000      2.000000
  0.375000  0.375000  0.125000      2.000000
 -0.375000  0.375000  0.125000      2.000000
 -0.125000  0.375000  0.125000      2.000000
  0.125000 -0.375000  0.125000      2.000000
  0.375000 -0.375000  0.125000      2.000000
 -0.375000 -0.375000  0.125000      2.000000
 -0.125000 -0.375000  0.125000      2.000000
  0.125000 -0.125000  0.125000      2.000000
  0.375000 -0.125000  0.125000      2.000000
 -0.375000 -0.125000  0.125000      2.000000
 -0.125000 -0.125000  0.125000      2.000000
  0.125000  0.125000  0.375000      2.000000
  0.375000  0.125000  0.375000      2.000000
 -0.375000  0.125000  0.375000      2.000000
 -0.125000  0.125000  0.375000      2.000000
  0.125000  0.375000  0.375000      2.000000
  0.375000  0.375000  0.375000      2.000000
 -0.375000  0.375000  0.375000      2.000000
 -0.125000  0.375000  0.375000      2.000000
  0.125000 -0.375000  0.375000      2.000000
  0.375000 -0.375000  0.375000      2.000000
 -0.375000 -0.375000  0.375000      2.000000
 -0.125000 -0.375000  0.375000      2.000000
  0.125000 -0.125000  0.375000      2.000000
  0.375000 -0.125000  0.375000      2.000000
 -0.375000 -0.125000  0.375000      2.000000
 -0.125000 -0.125000  0.375000      2.000000
 
 Following cartesian coordinates:
            Coordinates               Weight
  0.016127  0.016350  0.016132      2.000000
  0.048380  0.016350  0.016132      2.000000
 -0.048380  0.016350  0.016132      2.000000
 -0.016127  0.016350  0.016132      2.000000
  0.016127  0.049050  0.016132      2.000000
  0.048380  0.049050  0.016132      2.000000
 -0.048380  0.049050  0.016132      2.000000
 -0.016127  0.049050  0.016132      2.000000
  0.016127 -0.049050  0.016132      2.000000
  0.048380 -0.049050  0.016132      2.000000
 -0.048380 -0.049050  0.016132      2.000000
 -0.016127 -0.049050  0.016132      2.000000
  0.016127 -0.016350  0.016132      2.000000
  0.048380 -0.016350  0.016132      2.000000
 -0.048380 -0.016350  0.016132      2.000000
 -0.016127 -0.016350  0.016132      2.000000
  0.016127  0.016350  0.048396      2.000000
  0.048380  0.016350  0.048396      2.000000
 -0.048380  0.016350  0.048396      2.000000
 -0.016127  0.016350  0.048396      2.000000
  0.016127  0.049050  0.048396      2.000000
  0.048380  0.049050  0.048396      2.000000
 -0.048380  0.049050  0.048396      2.000000
 -0.016127  0.049050  0.048396      2.000000
  0.016127 -0.049050  0.048396      2.000000
  0.048380 -0.049050  0.048396      2.000000
 -0.048380 -0.049050  0.048396      2.000000
 -0.016127 -0.049050  0.048396      2.000000
  0.016127 -0.016350  0.048396      2.000000
  0.048380 -0.016350  0.048396      2.000000
 -0.048380 -0.016350  0.048396      2.000000
 -0.016127 -0.016350  0.048396      2.000000
 


--------------------------------------------------------------------------------------------------------




 Dimension of arrays:
   k-points           NKPTS =     32   k-points in BZ     NKDIM =     32   number of bands    NBANDS=    160
   number of dos      NEDOS =   3001   number of ions     NIONS =     32
   non local maximal  LDIM  =      6   non local SUM 2l+1 LMDIM =     18
   total plane-waves  NPLWV = 343000
   max r-space proj   IRMAX =  10356   max aug-charges    IRDMAX= 232184
   dimension x,y,z NGX =    70 NGY =   70 NGZ =   70
   dimension x,y,z NGXF=   140 NGYF=  140 NGZF=  140
   support grid    NGXF=   280 NGYF=  280 NGZF=  280
   ions per type =               8   8  16
   NGX,Y,Z   is equivalent  to a cutoff of  15.01, 15.22, 15.02 a.u.
   NGXF,Y,Z  is equivalent  to a cutoff of  30.03, 30.44, 30.04 a.u.

 SYSTEM =  LTO                                     
 POSCAR =  TiOF2 2x2x2 config 1540                 

 Startparameter for this run:
   NWRITE =      2    write-flag & timer
   PREC   = accura    normal or accurate (medium, high low for compatibility)
   ISTART =      1    job   : 0-new  1-cont  2-samecut
   ICHARG =      0    charge: 1-file 2-atom 10-const
   ISPIN  =      2    spin polarized calculation?
   LNONCOLLINEAR =      F non collinear calculations
   LSORBIT =      F    spin-orbit coupling
   INIWAV =      1    electr: 0-lowe 1-rand  2-diag
   LASPH  =      T    aspherical Exc in radial PAW
   METAGGA=      F    non-selfconsistent MetaGGA calc.

 Electronic Relaxation 1
   ENCUT  =  700.0 eV  51.45 Ry    7.17 a.u.  16.72 16.49 16.72*2*pi/ulx,y,z
   ENINI  =  700.0     initial cutoff
   ENAUG  =  613.6 eV  augmentation charge cutoff
   NELM   =     60;   NELMIN=  2; NELMDL=  0     # of ELM steps 
   EDIFF  = 0.1E-05   stopping-criterion for ELM
   LREAL  =      T    real-space projection
   NLSPLINE    = F    spline interpolate recip. space projectors
   LCOMPAT=      F    compatible to vasp.4.4
   GGA_COMPAT  = T    GGA compatible to vasp.4.4-vasp.4.6
   LMAXPAW     = -100 max onsite density
   LMAXMIX     =    4 max onsite mixed and CHGCAR
   VOSKOWN=      0    Vosko Wilk Nusair interpolation
   ROPT   =   -0.00010  -0.00010  -0.00010
 Ionic relaxation
   EDIFFG = -.1E-01   stopping-criterion for IOM
   NSW    =    100    number of steps for IOM
   NBLOCK =      1;   KBLOCK =    100    inner block; outer block 
   IBRION =      1    ionic relax: 0-MD 1-quasi-New 2-CG
   NFREE  =      0    steps in history (QN), initial steepest desc. (CG)
   ISIF   =      3    stress and relaxation
   IWAVPR =     11    prediction:  0-non 1-charg 2-wave 3-comb
   ISYM   =      0    0-nonsym 1-usesym 2-fastsym
   LCORR  =      T    Harris-Foulkes like correction to forces

   POTIM  = 0.5000    time-step for ionic-motion
   TEIN   =    0.0    initial temperature
   TEBEG  =    0.0;   TEEND  =   0.0 temperature during run
   SMASS  =  -3.00    Nose mass-parameter (am)
   estimated Nose-frequenzy (Omega)   =  0.10E-29 period in steps =****** mass=  -0.137E-26a.u.
   SCALEE = 1.0000    scale energy and forces
   NPACO  =    256;   APACO  = 16.0  distance and # of slots for P.C.
   PSTRESS=    0.0 pullay stress

  Mass of Ions in am
   POMASS =  47.88 16.00 19.00
  Ionic Valenz
   ZVAL   =  10.00  6.00  7.00
  Atomic Wigner-Seitz radii
   RWIGS  =  -1.00 -1.00 -1.00
  virtual crystal weights 
   VCA    =   1.00  1.00  1.00
   NELECT =     240.0000    total number of electrons
   NUPDOWN=      -1.0000    fix difference up-down

 DOS related values:
   EMIN   =  10.00;   EMAX   =-10.00  energy-range for DOS
   EFERMI =   0.00
   ISMEAR =     0;   SIGMA  =   0.01  broadening in eV -4-tet -1-fermi 0-gaus

 Electronic relaxation 2 (details)
   IALGO  =     38    algorithm
   LDIAG  =      T    sub-space diagonalisation (order eigenvalues)
   LSUBROT=      F    optimize rotation matrix (better conditioning)
   TURBO    =      0    0=normal 1=particle mesh
   IRESTART =      0    0=no restart 2=restart with 2 vectors
   NREBOOT  =      0    no. of reboots
   NMIN     =      0    reboot dimension
   EREF     =   0.00    reference energy to select bands
   IMIX   =      4    mixing-type and parameters
     AMIX     =   0.40;   BMIX     =  1.00
     AMIX_MAG =   1.60;   BMIX_MAG =  1.00
     AMIN     =   0.10
     WC   =   100.;   INIMIX=   1;  MIXPRE=   1;  MAXMIX= -45

 Intra band minimization:
   WEIMIN = 0.0010     energy-eigenvalue tresh-hold
   EBREAK =  0.16E-08  absolut break condition
   DEPER  =   0.30     relativ break condition  

   TIME   =   0.40     timestep for ELM

  volume/ion in A,a.u.               =      14.35        96.83
  Fermi-wavevector in a.u.,A,eV,Ry     =   1.318721  2.492021 23.660873  1.739025
  Thomas-Fermi vector in A             =   2.448671
 
 Write flags
   LWAVE        =      T    write WAVECAR
   LDOWNSAMPLE  =      F    k-point downsampling of WAVECAR
   LCHARG       =      T    write CHGCAR
   LVTOT        =      F    write LOCPOT, total local potential
   LVHAR        =      F    write LOCPOT, Hartree potential only
   LELF         =      F    write electronic localiz. function (ELF)
   LORBIT       =     11    0 simple, 1 ext, 2 COOP (PROOUT), +10 PAW based schemes


 Dipole corrections
   LMONO  =      F    monopole corrections only (constant potential shift)
   LDIPOL =      F    correct potential (dipole corrections)
   IDIPOL =      0    1-x, 2-y, 3-z, 4-all directions 
   EPSILON=  1.0000000 bulk dielectric constant

 LDA+U is selected, type is set to LDAUTYPE =  2
   angular momentum for each species LDAUL =     2   -1   -1
   U (eV)           for each species LDAUU =   4.2  0.0  0.0
   J (eV)           for each species LDAUJ =   0.0  0.0  0.0
 Exchange correlation treatment:
   GGA     =    PS    GGA type
   LEXCH   =    14    internal setting for exchange type
   VOSKOWN=      0    Vosko Wilk Nusair interpolation
   LHFCALC =     F    Hartree Fock is set to
   LHFONE  =     F    Hartree Fock one center treatment
   AEXX    =    0.0000 exact exchange contribution

 Linear response parameters
   LEPSILON=     F    determine dielectric tensor
   LRPA    =     F    only Hartree local field effects (RPA)
   LNABLA  =     F    use nabla operator in PAW spheres
   LVEL    =     F    velocity operator in full k-point grid
   LINTERFAST=   F  fast interpolation
   KINTER  =     0    interpolate to denser k-point grid
   CSHIFT  =0.1000    complex shift for real part using Kramers Kronig
   OMEGAMAX=  -1.0    maximum frequency
   DEG_THRESHOLD= 0.2000000E-02 threshold for treating states as degnerate
   RTIME   =   -0.100 relaxation time in fs
  (WPLASMAI=    0.000 imaginary part of plasma frequency in eV, 0.658/RTIME)
   DFIELD  = 0.0000000 0.0000000 0.0000000 field for delta impulse in time
 
 Orbital magnetization related:
   ORBITALMAG=     F  switch on orbital magnetization
   LCHIMAG   =     F  perturbation theory with respect to B field
   DQ        =  0.001000  dq finite difference perturbation B field
   LLRAUG    =     F  two centre corrections for induced B field



--------------------------------------------------------------------------------------------------------


 quasi-Newton-method for relaxation of ions
 charge density and potential will be updated during run
 spin polarized calculation
 Variant of blocked Davidson
 Davidson routine will perform the subspace rotation
 perform sub-space diagonalisation
    after iterative eigenvector-optimisation
 modified Broyden-mixing scheme, WC =      100.0
 initial mixing is a Kerker type mixing with AMIX =  0.4000 and BMIX =      1.0000
 Hartree-type preconditioning will be used
 using additional bands           40
 real space projection scheme for non local part
 use partial core corrections
 calculate Harris-corrections to forces 
   (improved forces if not selfconsistent)
 use gradient corrections 
 use of overlap-Matrix (Vanderbilt PP)
 Gauss-broadening in eV      SIGMA  =   0.01


--------------------------------------------------------------------------------------------------------


  energy-cutoff  :      700.00
  volume of cell :      459.17
      direct lattice vectors                 reciprocal lattice vectors
     7.751066852 -0.000007897 -0.000000964     0.129014498  0.000000132  0.000000016
    -0.000007801  7.645251187 -0.000001772     0.000000133  0.130800150  0.000000030
    -0.000000968 -0.000001796  7.748608526     0.000000016  0.000000030  0.129055429

  length of vectors
     7.751066852  7.645251187  7.748608526     0.129014498  0.130800150  0.129055429


 
 old parameters found on file WAVECAR:
  energy-cutoff  :      700.00
  volume of cell :      459.30
      direct lattice vectors                 reciprocal lattice vectors
     7.751666652  0.000000005  0.000000029     0.129004515  0.000000000 -0.000000000
    -0.000000007  7.646043042  0.000000019    -0.000000000  0.130786604 -0.000000000
     0.000000024  0.000000019  7.749348405    -0.000000000 -0.000000000  0.129043108

  length of vectors

 
 k-points in units of 2pi/SCALE and weight: Title                                   
   0.01612683  0.01635004  0.01613193       0.031
   0.04838046  0.01635007  0.01613194       0.031
  -0.04838042  0.01634997  0.01613193       0.031
  -0.01612679  0.01635001  0.01613193       0.031
   0.01612686  0.04905008  0.01613194       0.031
   0.04838049  0.04905011  0.01613195       0.031
  -0.04838038  0.04905001  0.01613193       0.031
  -0.01612676  0.04905004  0.01613194       0.031
   0.01612676 -0.04905004  0.01613192       0.031
   0.04838039 -0.04905000  0.01613192       0.031
  -0.04838048 -0.04905010  0.01613191       0.031
  -0.01612686 -0.04905007  0.01613192       0.031
   0.01612680 -0.01635000  0.01613193       0.031
   0.04838042 -0.01634997  0.01613193       0.031
  -0.04838045 -0.01635006  0.01613192       0.031
  -0.01612683 -0.01635003  0.01613192       0.031
   0.01612683  0.01635005  0.04839579       0.031
   0.04838046  0.01635008  0.04839580       0.031
  -0.04838041  0.01634998  0.04839578       0.031
  -0.01612679  0.01635001  0.04839579       0.031
   0.01612687  0.04905008  0.04839580       0.031
   0.04838049  0.04905012  0.04839580       0.031
  -0.04838038  0.04905002  0.04839579       0.031
  -0.01612676  0.04905005  0.04839580       0.031
   0.01612677 -0.04905003  0.04839578       0.031
   0.04838039 -0.04905000  0.04839578       0.031
  -0.04838048 -0.04905009  0.04839577       0.031
  -0.01612686 -0.04905006  0.04839577       0.031
   0.01612680 -0.01634999  0.04839578       0.031
   0.04838043 -0.01634996  0.04839579       0.031
  -0.04838045 -0.01635006  0.04839578       0.031
  -0.01612682 -0.01635002  0.04839578       0.031
 
 k-points in reciprocal lattice and weights: Title                                   
   0.12500000  0.12500000  0.12500000       0.031
   0.37500000  0.12500000  0.12500000       0.031
  -0.37500000  0.12500000  0.12500000       0.031
  -0.12500000  0.12500000  0.12500000       0.031
   0.12500000  0.37500000  0.12500000       0.031
   0.37500000  0.37500000  0.12500000       0.031
  -0.37500000  0.37500000  0.12500000       0.031
  -0.12500000  0.37500000  0.12500000       0.031
   0.12500000 -0.37500000  0.12500000       0.031
   0.37500000 -0.37500000  0.12500000       0.031
  -0.37500000 -0.37500000  0.12500000       0.031
  -0.12500000 -0.37500000  0.12500000       0.031
   0.12500000 -0.12500000  0.12500000       0.031
   0.37500000 -0.12500000  0.12500000       0.031
  -0.37500000 -0.12500000  0.12500000       0.031
  -0.12500000 -0.12500000  0.12500000       0.031
   0.12500000  0.12500000  0.37500000       0.031
   0.37500000  0.12500000  0.37500000       0.031
  -0.37500000  0.12500000  0.37500000       0.031
  -0.12500000  0.12500000  0.37500000       0.031
   0.12500000  0.37500000  0.37500000       0.031
   0.37500000  0.37500000  0.37500000       0.031
  -0.37500000  0.37500000  0.37500000       0.031
  -0.12500000  0.37500000  0.37500000       0.031
   0.12500000 -0.37500000  0.37500000       0.031
   0.37500000 -0.37500000  0.37500000       0.031
  -0.37500000 -0.37500000  0.37500000       0.031
  -0.12500000 -0.37500000  0.37500000       0.031
   0.12500000 -0.12500000  0.37500000       0.031
   0.37500000 -0.12500000  0.37500000       0.031
  -0.37500000 -0.12500000  0.37500000       0.031
  -0.12500000 -0.12500000  0.37500000       0.031
 
 position of ions in fractional coordinates (direct lattice) 
   0.00028270  0.98877866  0.98659726
   0.00028267  0.98877887  0.51340268
   0.98729426  0.51122591  0.00042116
   0.98729404  0.51122604  0.49957894
   0.49971732  0.98877880  0.01340266
   0.49971730  0.98877863  0.48659728
   0.51270599  0.51122601  0.99957892
   0.51270575  0.51122590  0.50042118
   0.75000005  0.49708588  0.99999999
   0.74999995  0.49708586  0.50000005
   0.00187056  0.74999169  0.00286946
   0.00187054  0.74999174  0.49713047
   0.49812940  0.74999168  0.99713041
   0.49812941  0.74999164  0.50286954
   0.99922974  0.00235493  0.75000003
   0.50077028  0.00235480  0.25000003
   0.25000003  0.00949872  0.99999999
   0.24999999  0.00949873  0.50000000
   0.25000007  0.49467714  0.00000004
   0.24999997  0.49467712  0.49999999
   0.74999997  0.01183410  0.00000001
   0.75000004  0.01183413  0.50000001
   0.00406097  0.24989130  0.00451032
   0.00406112  0.24989130  0.49548948
   0.49593884  0.24989128  0.99548958
   0.49593907  0.24989128  0.50451028
   0.99910553  0.00548071  0.25000005
   0.00825791  0.49046384  0.25000002
   0.00791950  0.48882941  0.75000003
   0.50089452  0.00548070  0.75000003
   0.49208052  0.48882946  0.25000005
   0.49174199  0.49046374  0.75000002
 
 position of ions in cartesian coordinates  (Angst):
   0.00218259  7.55945942  7.64475420
   0.00218282  7.55946193  3.97815466
   7.65257980  3.90844269  0.00326151
   7.65257760  3.90844281  3.87103976
   3.87333461  7.55945833  0.10384973
   3.87333399  7.55945619  3.77044963
   3.97401342  3.90844544  7.74534436
   3.97401207  3.90844549  3.87756639
   5.81329565  3.80033871  7.74860687
   5.81329539  3.80033948  3.87430304
   0.01449298  5.73387483  0.02223299
   0.01449235  5.73387430  3.85206809
   3.86102746  5.73386905  7.72637138
   3.86102799  5.73386961  3.89653742
   7.74509580  0.01799479  5.81145569
   3.88150370  0.01799864  1.93715188
   1.93776593  0.07261633  7.74860821
   1.93776609  0.07261729  3.87430404
   1.93776337  3.78192899 -0.00000078
   1.93776214  3.78192796  3.87430310
   5.81329984  0.09046873 -0.00000063
   5.81329985  0.09046807  3.87430357
   0.03147492  1.91048174  0.03494826
   0.03147559  1.91048080  3.83935357
   3.84405219  1.91047593  7.71365814
   3.84405447  1.91047678  3.90925176
   7.74413344  0.04189306  1.93715158
   0.06400357  3.74971873  1.93715143
   0.06138005  3.73722224  5.81145574
   3.88246610  0.04189604  5.81145616
   3.81414496  3.73721970  1.93715114
   3.81152050  3.74971324  5.81145522
 


--------------------------------------------------------------------------------------------------------


 k-point  1 :   0.1250 0.1250 0.1250  plane waves:   19339
 k-point  2 :   0.3750 0.1250 0.1250  plane waves:   19316
 k-point  3 :  -0.3750 0.1250 0.1250  plane waves:   19316
 k-point  4 :  -0.1250 0.1250 0.1250  plane waves:   19340
 k-point  5 :   0.1250 0.3750 0.1250  plane waves:   19300
 k-point  6 :   0.3750 0.3750 0.1250  plane waves:   19292
 k-point  7 :  -0.3750 0.3750 0.1250  plane waves:   19292
 k-point  8 :  -0.1250 0.3750 0.1250  plane waves:   19300
 k-point  9 :   0.1250-0.3750 0.1250  plane waves:   19300
 k-point 10 :   0.3750-0.3750 0.1250  plane waves:   19292
 k-point 11 :  -0.3750-0.3750 0.1250  plane waves:   19292
 k-point 12 :  -0.1250-0.3750 0.1250  plane waves:   19300
 k-point 13 :   0.1250-0.1250 0.1250  plane waves:   19340
 k-point 14 :   0.3750-0.1250 0.1250  plane waves:   19316
 k-point 15 :  -0.3750-0.1250 0.1250  plane waves:   19316
 k-point 16 :  -0.1250-0.1250 0.1250  plane waves:   19339
 k-point 17 :   0.1250 0.1250 0.3750  plane waves:   19310
 k-point 18 :   0.3750 0.1250 0.3750  plane waves:   19294
 k-point 19 :  -0.3750 0.1250 0.3750  plane waves:   19294
 k-point 20 :  -0.1250 0.1250 0.3750  plane waves:   19310
 k-point 21 :   0.1250 0.3750 0.3750  plane waves:   19292
 k-point 22 :   0.3750 0.3750 0.3750  plane waves:   19318
 k-point 23 :  -0.3750 0.3750 0.3750  plane waves:   19318
 k-point 24 :  -0.1250 0.3750 0.3750  plane waves:   19292
 k-point 25 :   0.1250-0.3750 0.3750  plane waves:   19292
 k-point 26 :   0.3750-0.3750 0.3750  plane waves:   19318
 k-point 27 :  -0.3750-0.3750 0.3750  plane waves:   19318
 k-point 28 :  -0.1250-0.3750 0.3750  plane waves:   19292
 k-point 29 :   0.1250-0.1250 0.3750  plane waves:   19310
 k-point 30 :   0.3750-0.1250 0.3750  plane waves:   19294
 k-point 31 :  -0.3750-0.1250 0.3750  plane waves:   19294
 k-point 32 :  -0.1250-0.1250 0.3750  plane waves:   19310

 maximum and minimum number of plane-waves per node :      2440     2377

 maximum number of plane-waves:     19340
 maximum index in each direction: 
   IXMAX=   17   IYMAX=   16   IZMAX=   16
   IXMIN=  -17   IYMIN=  -16   IZMIN=  -17


 real space projection operators:
  total allocation   :      18636.88 KBytes
  max/ min on nodes  :       2478.41       1940.34


 parallel 3D FFT for wavefunctions:
    minimum data exchange during FFTs selected (reduces bandwidth)
 parallel 3D FFT for charge:
    minimum data exchange during FFTs selected (reduces bandwidth)


 total amount of memory used by VASP MPI-rank0   106751. kBytes
=======================================================================

   base      :      30000. kBytes
   nonlr-proj:       8630. kBytes
   fftplans  :       8424. kBytes
   grid      :       8783. kBytes
   one-center:        124. kBytes
   wavefun   :      50790. kBytes
 
     INWAV:  cpu time   29.8275: real time   39.4744
 Broyden mixing: mesh for mixing (old mesh)
   NGX = 33   NGY = 33   NGZ = 33
  (NGX  =140   NGY  =140   NGZ  =140)
  gives a total of  35937 points

 charge density for first step will be calculated from the start-wavefunctions


--------------------------------------------------------------------------------------------------------


 Maximum index for non-local projection operator         1375
 Maximum index for augmentation-charges         7618 (set IRDMAX)


--------------------------------------------------------------------------------------------------------


 initial charge from wavefunction
 First call to EWALD:  gamma=   0.230
 Maximum number of real-space cells 3x 3x 3
 Maximum number of reciprocal cells 3x 3x 3

    FEWALD:  cpu time    0.0040: real time    0.0033


--------------------------------------- Iteration      1(   1)  ---------------------------------------


    POTLOK:  cpu time    0.1450: real time    0.1660
    SETDIJ:  cpu time    0.8449: real time    0.8455
     EDDAV:  cpu time   23.7494: real time   23.8470
       DOS:  cpu time    0.0040: real time    0.0036
    CHARGE:  cpu time    1.1538: real time    1.1544
    MIXING:  cpu time    0.0040: real time    0.0034
    --------------------------------------------
      LOOP:  cpu time   25.9011: real time   26.0198

 eigenvalue-minimisations  : 15904
 total energy-change (2. order) :-0.2135364E+03  (-0.4321416E-06)
 number of electron     240.0000002 magnetization      -0.0000000
 augmentation part       61.9466048 magnetization      -0.0000000

 Broyden mixing:
  rms(total) = 0.33782E-03    rms(broyden)= 0.33770E-03
  rms(prec ) = 0.50942E-03
  weight for this iteration     100.00

 Free energy of the ion-electron system (eV)
  ---------------------------------------------------
  alpha Z        PSCENC =       762.60059919
  Ewald energy   TEWEN  =    -12836.31002178
  -Hartree energ DENC   =     -8211.78531032
  -exchange      EXHF   =         0.00000000
  -V(xc)+E(xc)   XCENC  =      1119.85279567
  PAW double counting   =     18022.18321021   -18146.05676298
  entropy T*S    EENTRO =        -0.00000000
  eigenvalues    EBANDS =     -3226.37416981
  atomic energy  EATOM  =     22302.35321627
  Solvation  Ediel_sol  =         0.00000000
  ---------------------------------------------------
  free energy    TOTEN  =      -213.53644354 eV

  energy without entropy =     -213.53644354  energy(sigma->0) =     -213.53644354


--------------------------------------------------------------------------------------------------------




--------------------------------------- Iteration      1(   2)  ---------------------------------------


    POTLOK:  cpu time    0.1650: real time    0.1770
    SETDIJ:  cpu time    0.8429: real time    0.8420
     EDDAV:  cpu time   18.5282: real time   18.5561
       DOS:  cpu time    0.0040: real time    0.0037
    --------------------------------------------
      LOOP:  cpu time   19.5400: real time   19.5788

 eigenvalue-minimisations  : 10768
 total energy-change (2. order) : 0.2932211E-06  (-0.6216501E-07)
 number of electron     240.0000002 magnetization      -0.0000000
 augmentation part       61.9466048 magnetization      -0.0000000

 Free energy of the ion-electron system (eV)
  ---------------------------------------------------
  alpha Z        PSCENC =       762.60059919
  Ewald energy   TEWEN  =    -12836.31002178
  -Hartree energ DENC   =     -8211.78947565
  -exchange      EXHF   =         0.00000000
  -V(xc)+E(xc)   XCENC  =      1119.85289153
  PAW double counting   =     18022.18826397   -18146.06169455
  entropy T*S    EENTRO =        -0.00000000
  eigenvalues    EBANDS =     -3226.37022223
  atomic energy  EATOM  =     22302.35321627
  Solvation  Ediel_sol  =         0.00000000
  ---------------------------------------------------
  free energy    TOTEN  =      -213.53644325 eV

  energy without entropy =     -213.53644325  energy(sigma->0) =     -213.53644325


--------------------------------------------------------------------------------------------------------




 average (electrostatic) potential at core
  the test charge radii are     1.0397  0.7215  0.7167
  (the norm of the test charge is              1.0000)
       1 -58.8947       2 -58.8947       3 -58.9097       4 -58.9097       5 -58.8947
       6 -58.8947       7 -58.9097       8 -58.9097       9 -74.0690      10 -74.0690
      11 -74.1259      12 -74.1259      13 -74.1259      14 -74.1259      15 -74.0750
      16 -74.0750      17 -79.4280      18 -79.4280      19 -78.4142      20 -78.4142
      21 -79.4242      22 -79.4242      23 -78.6619      24 -78.6619      25 -78.6619
      26 -78.6619      27 -78.4385      28 -79.4059      29 -79.4083      30 -78.4385
      31 -79.4083      32 -79.4059
 
 
 
 E-fermi :  -1.0524     XC(G=0):  -9.0143     alpha+bet : -7.6955


 spin component 1

 k-point     1 :       0.1250    0.1250    0.1250
  band No.  band energies     occupation 
      1     -34.9802      1.00000
      2     -34.9773      1.00000
      3     -34.9723      1.00000
      4     -34.9693      1.00000
      5     -34.8749      1.00000
      6     -34.8722      1.00000
      7     -34.8656      1.00000
      8     -34.8629      1.00000
      9     -34.7962      1.00000
     10     -34.7919      1.00000
     11     -34.7904      1.00000
     12     -34.7854      1.00000
     13     -34.7735      1.00000
     14     -34.7688      1.00000
     15     -34.7651      1.00000
     16     -34.7619      1.00000
     17     -34.7075      1.00000
     18     -34.7063      1.00000
     19     -34.7028      1.00000
     20     -34.6978      1.00000
     21     -34.6918      1.00000
     22     -34.6881      1.00000
     23     -34.6802      1.00000
     24     -34.6794      1.00000
     25     -23.3319      1.00000
     26     -23.2967      1.00000
     27     -23.2916      1.00000
     28     -23.2723      1.00000
     29     -22.8416      1.00000
     30     -22.8320      1.00000
     31     -22.8294      1.00000
     32     -22.8187      1.00000
     33     -22.3674      1.00000
     34     -22.3638      1.00000
     35     -22.3587      1.00000
     36     -22.3395      1.00000
     37     -22.0801      1.00000
     38     -22.0722      1.00000
     39     -22.0502      1.00000
     40     -22.0369      1.00000
     41     -16.7359      1.00000
     42     -16.6941      1.00000
     43     -16.6718      1.00000
     44     -16.5941      1.00000
     45     -16.5511      1.00000
     46     -16.4870      1.00000
     47     -16.4603      1.00000
     48     -16.4461      1.00000
     49      -6.9310      1.00000
     50      -6.9105      1.00000
     51      -6.8731      1.00000
     52      -6.8546      1.00000
     53      -6.0163      1.00000
     54      -5.9834      1.00000
     55      -5.9734      1.00000
     56      -5.9238      1.00000
     57      -5.7080      1.00000
     58      -5.6853      1.00000
     59      -5.6485      1.00000
     60      -5.6082      1.00000
     61      -5.5800      1.00000
     62      -5.5623      1.00000
     63      -5.4537      1.00000
     64      -5.4441      1.00000
     65      -5.3429      1.00000
     66      -5.2864      1.00000
     67      -5.2538      1.00000
     68      -5.2341      1.00000
     69      -5.1918      1.00000
     70      -5.1757      1.00000
     71      -4.5829      1.00000
     72      -4.5443      1.00000
     73      -4.5166      1.00000
     74      -4.4618      1.00000
     75      -4.4517      1.00000
     76      -4.4268      1.00000
     77      -4.4016      1.00000
     78      -4.3744      1.00000
     79      -4.3734      1.00000
     80      -4.3536      1.00000
     81      -4.0329      1.00000
     82      -3.9820      1.00000
     83      -3.9397      1.00000
     84      -3.8848      1.00000
     85      -3.7582      1.00000
     86      -3.7412      1.00000
     87      -3.6242      1.00000
     88      -3.5895      1.00000
     89      -3.4797      1.00000
     90      -3.3476      1.00000
     91      -3.3301      1.00000
     92      -3.3064      1.00000
     93      -3.2665      1.00000
     94      -3.2034      1.00000
     95      -3.1495      1.00000
     96      -3.0603      1.00000
     97      -3.0548      1.00000
     98      -3.0454      1.00000
     99      -2.9838      1.00000
    100      -2.9508      1.00000
    101      -2.9256      1.00000
    102      -2.8889      1.00000
    103      -2.8650      1.00000
    104      -2.8332      1.00000
    105      -2.5058      1.00000
    106      -2.4235      1.00000
    107      -2.3924      1.00000
    108      -2.3807      1.00000
    109      -2.2009      1.00000
    110      -2.1463      1.00000
    111      -2.0379      1.00000
    112      -2.0167      1.00000
    113      -2.0068      1.00000
    114      -1.9298      1.00000
    115      -1.7681      1.00000
    116      -1.5729      1.00000
    117      -1.1589      1.00000
    118      -1.1518      1.00000
    119      -1.1306      1.00000
    120      -1.1260      1.00000
    121       1.9621      0.00000
    122       1.9848      0.00000
    123       2.0152      0.00000
    124       2.0240      0.00000
    125       2.0650      0.00000
    126       2.1035      0.00000
    127       2.7023      0.00000
    128       2.7679      0.00000
    129       2.9314      0.00000
    130       2.9400      0.00000
    131       2.9706      0.00000
    132       2.9824      0.00000
    133       3.1411      0.00000
    134       3.1643      0.00000
    135       3.2735      0.00000
    136       3.3260      0.00000
    137       3.3947      0.00000
    138       3.4294      0.00000
    139       3.4997      0.00000
    140       3.5406      0.00000
    141       3.5821      0.00000
    142       3.5918      0.00000
    143       3.6268      0.00000
    144       3.7221      0.00000
    145       3.8282      0.00000
    146       3.9798      0.00000
    147       4.0048      0.00000
    148       4.0377      0.00000
    149       4.0574      0.00000
    150       4.0719      0.00000
    151       4.1637      0.00000
    152       4.2133      0.00000
    153       4.8786      0.00000
    154       4.9552      0.00000
    155       5.2939      0.00000
    156       5.9466      0.00000
    157       6.0472      0.00000
    158       6.2225      0.00000
    159       6.5985      0.00000
    160       6.6133      0.00000

 k-point     2 :       0.3750    0.1250    0.1250
  band No.  band energies     occupation 
      1     -34.9798      1.00000
      2     -34.9777      1.00000
      3     -34.9416      1.00000
      4     -34.9387      1.00000
      5     -34.8974      1.00000
      6     -34.8946      1.00000
      7     -34.8745      1.00000
      8     -34.8726      1.00000
      9     -34.7935      1.00000
     10     -34.7913      1.00000
     11     -34.7889      1.00000
     12     -34.7864      1.00000
     13     -34.7654      1.00000
     14     -34.7647      1.00000
     15     -34.7545      1.00000
     16     -34.7532      1.00000
     17     -34.7199      1.00000
     18     -34.7185      1.00000
     19     -34.7022      1.00000
     20     -34.6985      1.00000
     21     -34.6967      1.00000
     22     -34.6930      1.00000
     23     -34.6806      1.00000
     24     -34.6800      1.00000
     25     -23.2988      1.00000
     26     -23.2772      1.00000
     27     -23.1851      1.00000
     28     -23.1650      1.00000
     29     -22.9893      1.00000
     30     -22.9731      1.00000
     31     -22.8272      1.00000
     32     -22.8209      1.00000
     33     -22.3655      1.00000
     34     -22.3615      1.00000
     35     -22.3526      1.00000
     36     -22.3363      1.00000
     37     -22.0809      1.00000
     38     -22.0688      1.00000
     39     -22.0456      1.00000
     40     -22.0340      1.00000
     41     -16.7393      1.00000
     42     -16.6980      1.00000
     43     -16.6782      1.00000
     44     -16.6021      1.00000
     45     -16.5612      1.00000
     46     -16.4903      1.00000
     47     -16.4631      1.00000
     48     -16.4455      1.00000
     49      -6.8784      1.00000
     50      -6.8517      1.00000
     51      -6.5444      1.00000
     52      -6.5369      1.00000
     53      -6.0405      1.00000
     54      -6.0193      1.00000
     55      -5.9770      1.00000
     56      -5.9548      1.00000
     57      -5.9296      1.00000
     58      -5.8815      1.00000
     59      -5.6729      1.00000
     60      -5.6449      1.00000
     61      -5.5639      1.00000
     62      -5.4837      1.00000
     63      -5.4576      1.00000
     64      -5.2907      1.00000
     65      -5.2259      1.00000
     66      -5.2129      1.00000
     67      -5.1570      1.00000
     68      -5.1050      1.00000
     69      -5.0313      1.00000
     70      -4.9575      1.00000
     71      -4.8174      1.00000
     72      -4.7645      1.00000
     73      -4.7165      1.00000
     74      -4.6278      1.00000
     75      -4.5352      1.00000
     76      -4.4910      1.00000
     77      -4.4704      1.00000
     78      -4.4360      1.00000
     79      -4.3727      1.00000
     80      -4.1786      1.00000
     81      -4.0971      1.00000
     82      -4.0325      1.00000
     83      -3.9749      1.00000
     84      -3.8446      1.00000
     85      -3.8281      1.00000
     86      -3.7335      1.00000
     87      -3.6581      1.00000
     88      -3.6447      1.00000
     89      -3.5404      1.00000
     90      -3.5035      1.00000
     91      -3.3158      1.00000
     92      -3.2759      1.00000
     93      -3.2567      1.00000
     94      -3.2100      1.00000
     95      -3.1560      1.00000
     96      -3.1458      1.00000
     97      -3.0955      1.00000
     98      -3.0629      1.00000
     99      -3.0091      1.00000
    100      -2.9893      1.00000
    101      -2.9538      1.00000
    102      -2.9062      1.00000
    103      -2.8661      1.00000
    104      -2.8085      1.00000
    105      -2.5751      1.00000
    106      -2.5293      1.00000
    107      -2.4235      1.00000
    108      -2.4177      1.00000
    109      -2.1785      1.00000
    110      -2.0422      1.00000
    111      -2.0209      1.00000
    112      -1.9779      1.00000
    113      -1.9017      1.00000
    114      -1.8709      1.00000
    115      -1.7693      1.00000
    116      -1.7192      1.00000
    117      -1.2013      1.00000
    118      -1.1886      1.00000
    119      -1.1405      1.00000
    120      -1.1388      1.00000
    121       2.0278      0.00000
    122       2.0347      0.00000
    123       2.2048      0.00000
    124       2.2128      0.00000
    125       2.2438      0.00000
    126       2.2669      0.00000
    127       2.5413      0.00000
    128       2.7228      0.00000
    129       2.7484      0.00000
    130       2.8303      0.00000
    131       2.9409      0.00000
    132       2.9663      0.00000
    133       3.1666      0.00000
    134       3.2775      0.00000
    135       3.3472      0.00000
    136       3.3772      0.00000
    137       3.3992      0.00000
    138       3.4912      0.00000
    139       3.5315      0.00000
    140       3.5613      0.00000
    141       3.6054      0.00000
    142       3.6733      0.00000
    143       3.6911      0.00000
    144       3.7342      0.00000
    145       3.7982      0.00000
    146       3.9469      0.00000
    147       3.9918      0.00000
    148       4.0409      0.00000
    149       4.0571      0.00000
    150       4.1440      0.00000
    151       4.1809      0.00000
    152       4.6812      0.00000
    153       4.7707      0.00000
    154       5.1293      0.00000
    155       5.6157      0.00000
    156       5.6635      0.00000
    157       5.7475      0.00000
    158       6.2199      0.00000
    159       6.5146      0.00000
    160       6.6283      0.00000

 k-point     3 :      -0.3750    0.1250    0.1250
  band No.  band energies     occupation 
      1     -34.9798      1.00000
      2     -34.9777      1.00000
      3     -34.9416      1.00000
      4     -34.9387      1.00000
      5     -34.8974      1.00000
      6     -34.8946      1.00000
      7     -34.8745      1.00000
      8     -34.8726      1.00000
      9     -34.7935      1.00000
     10     -34.7913      1.00000
     11     -34.7889      1.00000
     12     -34.7864      1.00000
     13     -34.7654      1.00000
     14     -34.7647      1.00000
     15     -34.7545      1.00000
     16     -34.7532      1.00000
     17     -34.7199      1.00000
     18     -34.7185      1.00000
     19     -34.7022      1.00000
     20     -34.6985      1.00000
     21     -34.6967      1.00000
     22     -34.6930      1.00000
     23     -34.6806      1.00000
     24     -34.6800      1.00000
     25     -23.2988      1.00000
     26     -23.2772      1.00000
     27     -23.1851      1.00000
     28     -23.1650      1.00000
     29     -22.9893      1.00000
     30     -22.9731      1.00000
     31     -22.8272      1.00000
     32     -22.8209      1.00000
     33     -22.3655      1.00000
     34     -22.3615      1.00000
     35     -22.3526      1.00000
     36     -22.3363      1.00000
     37     -22.0809      1.00000
     38     -22.0688      1.00000
     39     -22.0456      1.00000
     40     -22.0340      1.00000
     41     -16.7393      1.00000
     42     -16.6980      1.00000
     43     -16.6782      1.00000
     44     -16.6021      1.00000
     45     -16.5612      1.00000
     46     -16.4903      1.00000
     47     -16.4631      1.00000
     48     -16.4455      1.00000
     49      -6.8784      1.00000
     50      -6.8517      1.00000
     51      -6.5444      1.00000
     52      -6.5369      1.00000
     53      -6.0405      1.00000
     54      -6.0193      1.00000
     55      -5.9770      1.00000
     56      -5.9548      1.00000
     57      -5.9296      1.00000
     58      -5.8815      1.00000
     59      -5.6729      1.00000
     60      -5.6449      1.00000
     61      -5.5639      1.00000
     62      -5.4837      1.00000
     63      -5.4576      1.00000
     64      -5.2907      1.00000
     65      -5.2259      1.00000
     66      -5.2129      1.00000
     67      -5.1570      1.00000
     68      -5.1050      1.00000
     69      -5.0313      1.00000
     70      -4.9575      1.00000
     71      -4.8174      1.00000
     72      -4.7645      1.00000
     73      -4.7165      1.00000
     74      -4.6278      1.00000
     75      -4.5352      1.00000
     76      -4.4910      1.00000
     77      -4.4704      1.00000
     78      -4.4360      1.00000
     79      -4.3727      1.00000
     80      -4.1786      1.00000
     81      -4.0971      1.00000
     82      -4.0325      1.00000
     83      -3.9749      1.00000
     84      -3.8446      1.00000
     85      -3.8281      1.00000
     86      -3.7335      1.00000
     87      -3.6581      1.00000
     88      -3.6447      1.00000
     89      -3.5404      1.00000
     90      -3.5035      1.00000
     91      -3.3158      1.00000
     92      -3.2759      1.00000
     93      -3.2567      1.00000
     94      -3.2100      1.00000
     95      -3.1560      1.00000
     96      -3.1458      1.00000
     97      -3.0955      1.00000
     98      -3.0629      1.00000
     99      -3.0091      1.00000
    100      -2.9893      1.00000
    101      -2.9538      1.00000
    102      -2.9062      1.00000
    103      -2.8661      1.00000
    104      -2.8085      1.00000
    105      -2.5751      1.00000
    106      -2.5293      1.00000
    107      -2.4235      1.00000
    108      -2.4177      1.00000
    109      -2.1785      1.00000
    110      -2.0422      1.00000
    111      -2.0209      1.00000
    112      -1.9779      1.00000
    113      -1.9017      1.00000
    114      -1.8709      1.00000
    115      -1.7693      1.00000
    116      -1.7192      1.00000
    117      -1.2013      1.00000
    118      -1.1886      1.00000
    119      -1.1405      1.00000
    120      -1.1388      1.00000
    121       2.0278      0.00000
    122       2.0347      0.00000
    123       2.2048      0.00000
    124       2.2128      0.00000
    125       2.2438      0.00000
    126       2.2669      0.00000
    127       2.5413      0.00000
    128       2.7228      0.00000
    129       2.7484      0.00000
    130       2.8303      0.00000
    131       2.9409      0.00000
    132       2.9663      0.00000
    133       3.1666      0.00000
    134       3.2775      0.00000
    135       3.3472      0.00000
    136       3.3772      0.00000
    137       3.3992      0.00000
    138       3.4912      0.00000
    139       3.5315      0.00000
    140       3.5613      0.00000
    141       3.6054      0.00000
    142       3.6733      0.00000
    143       3.6911      0.00000
    144       3.7342      0.00000
    145       3.7982      0.00000
    146       3.9469      0.00000
    147       3.9918      0.00000
    148       4.0409      0.00000
    149       4.0571      0.00000
    150       4.1440      0.00000
    151       4.1809      0.00000
    152       4.6812      0.00000
    153       4.7707      0.00000
    154       5.1293      0.00000
    155       5.6157      0.00000
    156       5.6635      0.00000
    157       5.7475      0.00000
    158       6.2199      0.00000
    159       6.5146      0.00000
    160       6.6283      0.00000

 k-point     4 :      -0.1250    0.1250    0.1250
  band No.  band energies     occupation 
      1     -34.9802      1.00000
      2     -34.9773      1.00000
      3     -34.9723      1.00000
      4     -34.9693      1.00000
      5     -34.8749      1.00000
      6     -34.8722      1.00000
      7     -34.8656      1.00000
      8     -34.8629      1.00000
      9     -34.7962      1.00000
     10     -34.7919      1.00000
     11     -34.7904      1.00000
     12     -34.7854      1.00000
     13     -34.7735      1.00000
     14     -34.7688      1.00000
     15     -34.7651      1.00000
     16     -34.7619      1.00000
     17     -34.7075      1.00000
     18     -34.7063      1.00000
     19     -34.7028      1.00000
     20     -34.6978      1.00000
     21     -34.6918      1.00000
     22     -34.6881      1.00000
     23     -34.6802      1.00000
     24     -34.6794      1.00000
     25     -23.3319      1.00000
     26     -23.2967      1.00000
     27     -23.2916      1.00000
     28     -23.2723      1.00000
     29     -22.8416      1.00000
     30     -22.8320      1.00000
     31     -22.8294      1.00000
     32     -22.8187      1.00000
     33     -22.3674      1.00000
     34     -22.3638      1.00000
     35     -22.3587      1.00000
     36     -22.3395      1.00000
     37     -22.0801      1.00000
     38     -22.0722      1.00000
     39     -22.0502      1.00000
     40     -22.0369      1.00000
     41     -16.7359      1.00000
     42     -16.6941      1.00000
     43     -16.6718      1.00000
     44     -16.5941      1.00000
     45     -16.5511      1.00000
     46     -16.4870      1.00000
     47     -16.4603      1.00000
     48     -16.4461      1.00000
     49      -6.9310      1.00000
     50      -6.9105      1.00000
     51      -6.8731      1.00000
     52      -6.8546      1.00000
     53      -6.0163      1.00000
     54      -5.9834      1.00000
     55      -5.9734      1.00000
     56      -5.9238      1.00000
     57      -5.7080      1.00000
     58      -5.6853      1.00000
     59      -5.6485      1.00000
     60      -5.6082      1.00000
     61      -5.5800      1.00000
     62      -5.5623      1.00000
     63      -5.4537      1.00000
     64      -5.4441      1.00000
     65      -5.3429      1.00000
     66      -5.2864      1.00000
     67      -5.2538      1.00000
     68      -5.2341      1.00000
     69      -5.1918      1.00000
     70      -5.1757      1.00000
     71      -4.5829      1.00000
     72      -4.5443      1.00000
     73      -4.5166      1.00000
     74      -4.4618      1.00000
     75      -4.4517      1.00000
     76      -4.4268      1.00000
     77      -4.4016      1.00000
     78      -4.3744      1.00000
     79      -4.3734      1.00000
     80      -4.3536      1.00000
     81      -4.0328      1.00000
     82      -3.9820      1.00000
     83      -3.9397      1.00000
     84      -3.8848      1.00000
     85      -3.7582      1.00000
     86      -3.7412      1.00000
     87      -3.6242      1.00000
     88      -3.5895      1.00000
     89      -3.4797      1.00000
     90      -3.3476      1.00000
     91      -3.3301      1.00000
     92      -3.3064      1.00000
     93      -3.2665      1.00000
     94      -3.2034      1.00000
     95      -3.1495      1.00000
     96      -3.0603      1.00000
     97      -3.0548      1.00000
     98      -3.0454      1.00000
     99      -2.9838      1.00000
    100      -2.9509      1.00000
    101      -2.9256      1.00000
    102      -2.8889      1.00000
    103      -2.8650      1.00000
    104      -2.8332      1.00000
    105      -2.5058      1.00000
    106      -2.4235      1.00000
    107      -2.3924      1.00000
    108      -2.3807      1.00000
    109      -2.2009      1.00000
    110      -2.1463      1.00000
    111      -2.0379      1.00000
    112      -2.0167      1.00000
    113      -2.0068      1.00000
    114      -1.9298      1.00000
    115      -1.7681      1.00000
    116      -1.5729      1.00000
    117      -1.1589      1.00000
    118      -1.1518      1.00000
    119      -1.1306      1.00000
    120      -1.1260      1.00000
    121       1.9621      0.00000
    122       1.9848      0.00000
    123       2.0152      0.00000
    124       2.0240      0.00000
    125       2.0650      0.00000
    126       2.1035      0.00000
    127       2.7023      0.00000
    128       2.7679      0.00000
    129       2.9314      0.00000
    130       2.9400      0.00000
    131       2.9706      0.00000
    132       2.9824      0.00000
    133       3.1411      0.00000
    134       3.1643      0.00000
    135       3.2735      0.00000
    136       3.3260      0.00000
    137       3.3947      0.00000
    138       3.4294      0.00000
    139       3.4997      0.00000
    140       3.5406      0.00000
    141       3.5821      0.00000
    142       3.5918      0.00000
    143       3.6268      0.00000
    144       3.7221      0.00000
    145       3.8282      0.00000
    146       3.9798      0.00000
    147       4.0048      0.00000
    148       4.0377      0.00000
    149       4.0574      0.00000
    150       4.0719      0.00000
    151       4.1637      0.00000
    152       4.2133      0.00000
    153       4.8786      0.00000
    154       4.9552      0.00000
    155       5.2939      0.00000
    156       5.9466      0.00000
    157       6.0472      0.00000
    158       6.2225      0.00000
    159       6.5985      0.00000
    160       6.6133      0.00000

 k-point     5 :       0.1250    0.3750    0.1250
  band No.  band energies     occupation 
      1     -34.9802      1.00000
      2     -34.9773      1.00000
      3     -34.9723      1.00000
      4     -34.9693      1.00000
      5     -34.8749      1.00000
      6     -34.8722      1.00000
      7     -34.8656      1.00000
      8     -34.8629      1.00000
      9     -34.7831      1.00000
     10     -34.7795      1.00000
     11     -34.7739      1.00000
     12     -34.7712      1.00000
     13     -34.7630      1.00000
     14     -34.7605      1.00000
     15     -34.7589      1.00000
     16     -34.7561      1.00000
     17     -34.7246      1.00000
     18     -34.7228      1.00000
     19     -34.7216      1.00000
     20     -34.7195      1.00000
     21     -34.6943      1.00000
     22     -34.6931      1.00000
     23     -34.6841      1.00000
     24     -34.6831      1.00000
     25     -23.3280      1.00000
     26     -23.2960      1.00000
     27     -23.2940      1.00000
     28     -23.2716      1.00000
     29     -22.8415      1.00000
     30     -22.8319      1.00000
     31     -22.8294      1.00000
     32     -22.8186      1.00000
     33     -22.3603      1.00000
     34     -22.3571      1.00000
     35     -22.3516      1.00000
     36     -22.3319      1.00000
     37     -22.0809      1.00000
     38     -22.0727      1.00000
     39     -22.0507      1.00000
     40     -22.0369      1.00000
     41     -16.7581      1.00000
     42     -16.7153      1.00000
     43     -16.6925      1.00000
     44     -16.6170      1.00000
     45     -16.5520      1.00000
     46     -16.4903      1.00000
     47     -16.4630      1.00000
     48     -16.4482      1.00000
     49      -6.9217      1.00000
     50      -6.9054      1.00000
     51      -6.8694      1.00000
     52      -6.8491      1.00000
     53      -5.8045      1.00000
     54      -5.7741      1.00000
     55      -5.7608      1.00000
     56      -5.7406      1.00000
     57      -5.6425      1.00000
     58      -5.6150      1.00000
     59      -5.5940      1.00000
     60      -5.5674      1.00000
     61      -5.5337      1.00000
     62      -5.4697      1.00000
     63      -5.4509      1.00000
     64      -5.4071      1.00000
     65      -5.3280      1.00000
     66      -5.3003      1.00000
     67      -5.1480      1.00000
     68      -5.1257      1.00000
     69      -5.0802      1.00000
     70      -5.0616      1.00000
     71      -4.5966      1.00000
     72      -4.5762      1.00000
     73      -4.5447      1.00000
     74      -4.4556      1.00000
     75      -4.4349      1.00000
     76      -4.4203      1.00000
     77      -4.3896      1.00000
     78      -4.3749      1.00000
     79      -4.3375      1.00000
     80      -4.2432      1.00000
     81      -4.1919      1.00000
     82      -4.1717      1.00000
     83      -4.1600      1.00000
     84      -4.1324      1.00000
     85      -3.9102      1.00000
     86      -3.8346      1.00000
     87      -3.7908      1.00000
     88      -3.7291      1.00000
     89      -3.6932      1.00000
     90      -3.6776      1.00000
     91      -3.5422      1.00000
     92      -3.5315      1.00000
     93      -3.4364      1.00000
     94      -3.2541      1.00000
     95      -3.0748      1.00000
     96      -3.0285      1.00000
     97      -2.9977      1.00000
     98      -2.9687      1.00000
     99      -2.9425      1.00000
    100      -2.9190      1.00000
    101      -2.8947      1.00000
    102      -2.8845      1.00000
    103      -2.8622      1.00000
    104      -2.8514      1.00000
    105      -2.4601      1.00000
    106      -2.4412      1.00000
    107      -2.4362      1.00000
    108      -2.4166      1.00000
    109      -2.2449      1.00000
    110      -2.1591      1.00000
    111      -2.0937      1.00000
    112      -2.0830      1.00000
    113      -2.0612      1.00000
    114      -1.9798      1.00000
    115      -1.7830      1.00000
    116      -1.5802      1.00000
    117      -1.1358      1.00000
    118      -1.1218      1.00000
    119      -1.1127      1.00000
    120      -1.1103      1.00000
    121       1.9705      0.00000
    122       2.0118      0.00000
    123       2.2487      0.00000
    124       2.2529      0.00000
    125       2.2734      0.00000
    126       2.2953      0.00000
    127       2.7028      0.00000
    128       2.7687      0.00000
    129       2.9948      0.00000
    130       3.0008      0.00000
    131       3.0143      0.00000
    132       3.0372      0.00000
    133       3.0941      0.00000
    134       3.1902      0.00000
    135       3.2141      0.00000
    136       3.2349      0.00000
    137       3.2842      0.00000
    138       3.3776      0.00000
    139       3.4096      0.00000
    140       3.5324      0.00000
    141       3.6562      0.00000
    142       3.6852      0.00000
    143       3.7244      0.00000
    144       3.8130      0.00000
    145       3.8377      0.00000
    146       3.8710      0.00000
    147       3.8966      0.00000
    148       3.9538      0.00000
    149       4.0530      0.00000
    150       4.1063      0.00000
    151       4.1593      0.00000
    152       4.8850      0.00000
    153       5.0449      0.00000
    154       5.2447      0.00000
    155       5.2962      0.00000
    156       5.7593      0.00000
    157       6.2407      0.00000
    158       6.2476      0.00000
    159       6.2568      0.00000
    160       6.4794      0.00000

 k-point     6 :       0.3750    0.3750    0.1250
  band No.  band energies     occupation 
      1     -34.9798      1.00000
      2     -34.9777      1.00000
      3     -34.9416      1.00000
      4     -34.9387      1.00000
      5     -34.8974      1.00000
      6     -34.8946      1.00000
      7     -34.8745      1.00000
      8     -34.8726      1.00000
      9     -34.7758      1.00000
     10     -34.7740      1.00000
     11     -34.7695      1.00000
     12     -34.7662      1.00000
     13     -34.7643      1.00000
     14     -34.7614      1.00000
     15     -34.7507      1.00000
     16     -34.7504      1.00000
     17     -34.7282      1.00000
     18     -34.7263      1.00000
     19     -34.7214      1.00000
     20     -34.7184      1.00000
     21     -34.7078      1.00000
     22     -34.7074      1.00000
     23     -34.6841      1.00000
     24     -34.6835      1.00000
     25     -23.2973      1.00000
     26     -23.2763      1.00000
     27     -23.1854      1.00000
     28     -23.1644      1.00000
     29     -22.9891      1.00000
     30     -22.9727      1.00000
     31     -22.8272      1.00000
     32     -22.8209      1.00000
     33     -22.3588      1.00000
     34     -22.3544      1.00000
     35     -22.3458      1.00000
     36     -22.3291      1.00000
     37     -22.0817      1.00000
     38     -22.0693      1.00000
     39     -22.0461      1.00000
     40     -22.0341      1.00000
     41     -16.7617      1.00000
     42     -16.7194      1.00000
     43     -16.6984      1.00000
     44     -16.6240      1.00000
     45     -16.5622      1.00000
     46     -16.4933      1.00000
     47     -16.4665      1.00000
     48     -16.4481      1.00000
     49      -6.8714      1.00000
     50      -6.8459      1.00000
     51      -6.5379      1.00000
     52      -6.5292      1.00000
     53      -5.9934      1.00000
     54      -5.9571      1.00000
     55      -5.7586      1.00000
     56      -5.7355      1.00000
     57      -5.7336      1.00000
     58      -5.7203      1.00000
     59      -5.5982      1.00000
     60      -5.5499      1.00000
     61      -5.5074      1.00000
     62      -5.4621      1.00000
     63      -5.4465      1.00000
     64      -5.2702      1.00000
     65      -5.1762      1.00000
     66      -5.1423      1.00000
     67      -5.1155      1.00000
     68      -5.0513      1.00000
     69      -4.9310      1.00000
     70      -4.8482      1.00000
     71      -4.7978      1.00000
     72      -4.7625      1.00000
     73      -4.6766      1.00000
     74      -4.5476      1.00000
     75      -4.5382      1.00000
     76      -4.4891      1.00000
     77      -4.4588      1.00000
     78      -4.3776      1.00000
     79      -4.3294      1.00000
     80      -4.2042      1.00000
     81      -4.1862      1.00000
     82      -4.1714      1.00000
     83      -4.1521      1.00000
     84      -4.0083      1.00000
     85      -3.9501      1.00000
     86      -3.9105      1.00000
     87      -3.8124      1.00000
     88      -3.7643      1.00000
     89      -3.7083      1.00000
     90      -3.6897      1.00000
     91      -3.6535      1.00000
     92      -3.5929      1.00000
     93      -3.4149      1.00000
     94      -3.4032      1.00000
     95      -3.2164      1.00000
     96      -3.2054      1.00000
     97      -3.0388      1.00000
     98      -3.0043      1.00000
     99      -2.9879      1.00000
    100      -2.9735      1.00000
    101      -2.9640      1.00000
    102      -2.9242      1.00000
    103      -2.8828      1.00000
    104      -2.8370      1.00000
    105      -2.5697      1.00000
    106      -2.5379      1.00000
    107      -2.4411      1.00000
    108      -2.4390      1.00000
    109      -2.1786      1.00000
    110      -2.0853      1.00000
    111      -2.0553      1.00000
    112      -2.0370      1.00000
    113      -1.8869      1.00000
    114      -1.8503      1.00000
    115      -1.7867      1.00000
    116      -1.7255      1.00000
    117      -1.1359      1.00000
    118      -1.1227      1.00000
    119      -1.1054      1.00000
    120      -1.1035      1.00000
    121       2.1974      0.00000
    122       2.2056      0.00000
    123       2.2602      0.00000
    124       2.3122      0.00000
    125       2.4115      0.00000
    126       2.4336      0.00000
    127       2.5453      0.00000
    128       2.7979      0.00000
    129       2.8217      0.00000
    130       2.8327      0.00000
    131       3.0000      0.00000
    132       3.0234      0.00000
    133       3.1264      0.00000
    134       3.1929      0.00000
    135       3.2148      0.00000
    136       3.2276      0.00000
    137       3.3023      0.00000
    138       3.4698      0.00000
    139       3.5418      0.00000
    140       3.5510      0.00000
    141       3.6463      0.00000
    142       3.6730      0.00000
    143       3.7028      0.00000
    144       3.7435      0.00000
    145       3.8047      0.00000
    146       3.8900      0.00000
    147       3.9427      0.00000
    148       4.0165      0.00000
    149       4.2822      0.00000
    150       4.3842      0.00000
    151       4.6647      0.00000
    152       4.8438      0.00000
    153       4.9682      0.00000
    154       5.3108      0.00000
    155       5.3861      0.00000
    156       5.5509      0.00000
    157       5.7801      0.00000
    158       5.9361      0.00000
    159       6.2648      0.00000
    160       6.3362      0.00000

 k-point     7 :      -0.3750    0.3750    0.1250
  band No.  band energies     occupation 
      1     -34.9798      1.00000
      2     -34.9777      1.00000
      3     -34.9416      1.00000
      4     -34.9387      1.00000
      5     -34.8974      1.00000
      6     -34.8946      1.00000
      7     -34.8745      1.00000
      8     -34.8726      1.00000
      9     -34.7758      1.00000
     10     -34.7740      1.00000
     11     -34.7695      1.00000
     12     -34.7662      1.00000
     13     -34.7643      1.00000
     14     -34.7614      1.00000
     15     -34.7507      1.00000
     16     -34.7504      1.00000
     17     -34.7282      1.00000
     18     -34.7263      1.00000
     19     -34.7214      1.00000
     20     -34.7184      1.00000
     21     -34.7078      1.00000
     22     -34.7074      1.00000
     23     -34.6841      1.00000
     24     -34.6835      1.00000
     25     -23.2973      1.00000
     26     -23.2763      1.00000
     27     -23.1854      1.00000
     28     -23.1644      1.00000
     29     -22.9891      1.00000
     30     -22.9727      1.00000
     31     -22.8272      1.00000
     32     -22.8209      1.00000
     33     -22.3588      1.00000
     34     -22.3544      1.00000
     35     -22.3458      1.00000
     36     -22.3291      1.00000
     37     -22.0817      1.00000
     38     -22.0693      1.00000
     39     -22.0461      1.00000
     40     -22.0341      1.00000
     41     -16.7617      1.00000
     42     -16.7194      1.00000
     43     -16.6984      1.00000
     44     -16.6240      1.00000
     45     -16.5622      1.00000
     46     -16.4933      1.00000
     47     -16.4665      1.00000
     48     -16.4481      1.00000
     49      -6.8714      1.00000
     50      -6.8459      1.00000
     51      -6.5379      1.00000
     52      -6.5292      1.00000
     53      -5.9934      1.00000
     54      -5.9571      1.00000
     55      -5.7586      1.00000
     56      -5.7355      1.00000
     57      -5.7336      1.00000
     58      -5.7203      1.00000
     59      -5.5982      1.00000
     60      -5.5499      1.00000
     61      -5.5074      1.00000
     62      -5.4621      1.00000
     63      -5.4465      1.00000
     64      -5.2702      1.00000
     65      -5.1762      1.00000
     66      -5.1423      1.00000
     67      -5.1155      1.00000
     68      -5.0513      1.00000
     69      -4.9310      1.00000
     70      -4.8482      1.00000
     71      -4.7978      1.00000
     72      -4.7625      1.00000
     73      -4.6766      1.00000
     74      -4.5476      1.00000
     75      -4.5382      1.00000
     76      -4.4891      1.00000
     77      -4.4588      1.00000
     78      -4.3776      1.00000
     79      -4.3294      1.00000
     80      -4.2042      1.00000
     81      -4.1862      1.00000
     82      -4.1714      1.00000
     83      -4.1521      1.00000
     84      -4.0083      1.00000
     85      -3.9501      1.00000
     86      -3.9105      1.00000
     87      -3.8124      1.00000
     88      -3.7643      1.00000
     89      -3.7083      1.00000
     90      -3.6897      1.00000
     91      -3.6535      1.00000
     92      -3.5929      1.00000
     93      -3.4149      1.00000
     94      -3.4032      1.00000
     95      -3.2164      1.00000
     96      -3.2054      1.00000
     97      -3.0388      1.00000
     98      -3.0043      1.00000
     99      -2.9879      1.00000
    100      -2.9735      1.00000
    101      -2.9640      1.00000
    102      -2.9242      1.00000
    103      -2.8828      1.00000
    104      -2.8370      1.00000
    105      -2.5697      1.00000
    106      -2.5379      1.00000
    107      -2.4411      1.00000
    108      -2.4390      1.00000
    109      -2.1786      1.00000
    110      -2.0853      1.00000
    111      -2.0553      1.00000
    112      -2.0370      1.00000
    113      -1.8869      1.00000
    114      -1.8503      1.00000
    115      -1.7867      1.00000
    116      -1.7255      1.00000
    117      -1.1359      1.00000
    118      -1.1227      1.00000
    119      -1.1054      1.00000
    120      -1.1035      1.00000
    121       2.1974      0.00000
    122       2.2056      0.00000
    123       2.2602      0.00000
    124       2.3122      0.00000
    125       2.4115      0.00000
    126       2.4336      0.00000
    127       2.5453      0.00000
[...]
  0.000   0.000  -0.000   0.000   0.000  -0.000  -0.000  -0.000   0.000   0.000   0.000   0.000  -0.000   0.000   0.000  -0.000
 -0.000   0.000   0.000  -0.000   0.000  -0.000   0.000   0.000  -0.000   0.000  -0.000  -0.000   0.000   0.000  -0.000  -0.000
  0.000  -0.000  -0.000   0.000  -0.000   0.000   0.000   0.000   0.000   0.000  -0.000  -0.000  -0.000  -0.000  -0.000   0.000
  0.000   0.000  -0.000  -0.000  -0.000   0.000   0.000  -0.000   0.000  -0.000   0.000  -0.000   0.000  -0.000   0.000  -0.000
 -0.000  -0.000  -0.000   0.000   0.000  -0.000   0.000   0.000   0.000   0.000   0.000  -0.000  -0.000  -0.000   0.000  -0.000
  0.000  -0.000   0.000  -0.000   0.000  -0.000   0.000  -0.000  -0.000   0.000  -0.000  -0.000   0.000   0.000  -0.000   0.000
 -0.000  -0.000  -0.000   0.000  -0.000   0.000  -0.000  -0.000   0.000  -0.000  -0.000   0.000  -0.000  -0.000   0.000   0.000
 -0.000   0.000   0.000   0.000   0.000  -0.000   0.000  -0.000   0.000  -0.000  -0.000  -0.000   0.000  -0.000  -0.000  -0.000
 -0.000   0.000  -0.000   0.000  -0.000  -0.000  -0.000  -0.000   0.000  -0.000  -0.000   0.000   0.000  -0.000   0.000   0.000


------------------------ aborting loop because EDIFF is reached ----------------------------------------


 


 total charge     
 
# of ion       s       p       d       tot
------------------------------------------
    1        0.319   6.465   1.759   8.542
    2        0.319   6.465   1.759   8.542
    3        0.318   6.462   1.753   8.534
    4        0.318   6.462   1.753   8.534
    5        0.319   6.465   1.759   8.542
    6        0.319   6.464   1.759   8.542
    7        0.318   6.462   1.753   8.534
    8        0.318   6.462   1.753   8.534
    9        1.568   3.464   0.000   5.031
   10        1.568   3.464   0.000   5.031
   11        1.569   3.471   0.000   5.041
   12        1.569   3.471   0.000   5.041
   13        1.569   3.471   0.000   5.041
   14        1.569   3.471   0.000   5.041
   15        1.569   3.467   0.000   5.035
   16        1.569   3.467   0.000   5.035
   17        1.730   4.391   0.000   6.122
   18        1.730   4.391   0.000   6.122
   19        1.728   4.370   0.000   6.099
   20        1.728   4.370   0.000   6.099
   21        1.730   4.390   0.000   6.120
   22        1.730   4.390   0.000   6.120
   23        1.730   4.381   0.000   6.110
   24        1.730   4.381   0.000   6.110
   25        1.730   4.381   0.000   6.110
   26        1.730   4.381   0.000   6.110
   27        1.728   4.369   0.000   6.097
   28        1.731   4.390   0.000   6.121
   29        1.730   4.388   0.000   6.118
   30        1.728   4.369   0.000   6.097
   31        1.730   4.388   0.000   6.118
   32        1.731   4.390   0.000   6.121
--------------------------------------------------
tot         42.772 149.574  14.049 206.396
 


 magnetization (x)
 
# of ion       s       p       d       tot
------------------------------------------
    1        0.000  -0.000  -0.000  -0.000
    2        0.000  -0.000  -0.000  -0.000
    3       -0.000  -0.000  -0.000  -0.000
    4       -0.000   0.000   0.000   0.000
    5       -0.000  -0.000  -0.000  -0.000
    6        0.000  -0.000  -0.000  -0.000
    7        0.000   0.000  -0.000  -0.000
    8        0.000   0.000  -0.000  -0.000
    9       -0.000   0.000   0.000   0.000
   10        0.000   0.000   0.000   0.000
   11        0.000   0.000   0.000   0.000
   12       -0.000  -0.000   0.000  -0.000
   13       -0.000   0.000   0.000   0.000
   14       -0.000   0.000   0.000   0.000
   15       -0.000   0.000   0.000   0.000
   16        0.000   0.000   0.000   0.000
   17       -0.000  -0.000   0.000  -0.000
   18       -0.000   0.000   0.000   0.000
   19       -0.000  -0.000   0.000  -0.000
   20       -0.000  -0.000   0.000  -0.000
   21       -0.000  -0.000   0.000  -0.000
   22       -0.000  -0.000   0.000  -0.000
   23       -0.000  -0.000   0.000  -0.000
   24       -0.000  -0.000   0.000  -0.000
   25       -0.000   0.000   0.000   0.000
   26        0.000   0.000   0.000   0.000
   27        0.000   0.000   0.000   0.000
   28        0.000  -0.000   0.000  -0.000
   29        0.000   0.000   0.000   0.000
   30        0.000   0.000   0.000   0.000
   31        0.000  -0.000   0.000   0.000
   32        0.000  -0.000   0.000  -0.000
--------------------------------------------------
tot          0.000   0.000  -0.000  -0.000
 
    CHARGE:  cpu time    1.1548: real time    1.1808
    FORLOC:  cpu time    0.0100: real time    0.0094
    FORNL :  cpu time    6.8230: real time    6.8813
    STRESS:  cpu time   20.5379: real time   20.7259
    FORCOR:  cpu time    0.1290: real time    0.1292
    FORHAR:  cpu time    0.0230: real time    0.0229
    MIXING:  cpu time    0.0010: real time    0.0016
    OFIELD:  cpu time    0.0000: real time    0.0000

  FORCE on cell =-STRESS in cart. coord.  units (eV):
  Direction    XX          YY          ZZ          XY          YZ          ZX
  --------------------------------------------------------------------------------------
  Alpha Z   762.60060   762.60060   762.60060
  Ewald   -4294.81238 -4232.05827 -4309.49498    -0.00934    -0.00264    -0.00114
  Hartree  2730.36789  2756.42449  2724.98389    -0.00490    -0.00134    -0.00061
  E(xc)   -1232.26723 -1232.51499 -1232.28376    -0.00000    -0.00000    -0.00000
  Local   -2110.16995 -2227.70345 -2090.33042     0.01407     0.00394     0.00173
  n-local  -968.57294  -962.73435  -968.71569    -0.00009    -0.00003    -0.00001
  augment   753.98306   763.71979   754.05181     0.00001    -0.00000     0.00000
  Kinetic  4358.85367  4372.31433  4359.19156     0.00048     0.00013     0.00005
  Fock        0.00000     0.00000     0.00000     0.00000     0.00000     0.00000
  -------------------------------------------------------------------------------------
  Total      -0.01726     0.04814     0.00301     0.00022     0.00005     0.00003
  in kB      -0.06024     0.16798     0.01051     0.00076     0.00018     0.00009
  external pressure =        0.04 kB  Pullay stress =        0.00 kB


 VOLUME and BASIS-vectors are now :
 -----------------------------------------------------------------------------
  energy-cutoff  :      700.00
  volume of cell :      459.17
      direct lattice vectors                 reciprocal lattice vectors
     7.751066852 -0.000007897 -0.000000964     0.129014498  0.000000132  0.000000016
    -0.000007801  7.645251187 -0.000001772     0.000000133  0.130800150  0.000000030
    -0.000000968 -0.000001796  7.748608526     0.000000016  0.000000030  0.129055429

  length of vectors
     7.751066852  7.645251187  7.748608526     0.129014498  0.130800150  0.129055429


 FORCES acting on ions
    electron-ion (+dipol)            ewald-force                    non-local-force                 convergence-correction
 -----------------------------------------------------------------------------------------------
   0.879E+01 0.390E+02 0.501E+01   -.872E+01 -.398E+02 -.601E+01   -.732E-01 0.798E+00 0.993E+00   0.868E-03 0.271E-02 0.301E-03
   0.879E+01 0.390E+02 -.501E+01   -.871E+01 -.398E+02 0.601E+01   -.732E-01 0.798E+00 -.993E+00   0.869E-03 0.271E-02 -.299E-03
   0.244E+02 -.380E+02 0.774E+01   -.253E+02 0.388E+02 -.763E+01   0.880E+00 -.792E+00 -.114E+00   0.170E-02 -.267E-02 0.393E-03
   0.244E+02 -.380E+02 -.774E+01   -.253E+02 0.388E+02 0.763E+01   0.880E+00 -.792E+00 0.114E+00   0.171E-02 -.268E-02 -.396E-03
   -.879E+01 0.390E+02 -.501E+01   0.871E+01 -.398E+02 0.601E+01   0.732E-01 0.798E+00 -.993E+00   -.868E-03 0.271E-02 -.304E-03
   -.879E+01 0.390E+02 0.501E+01   0.871E+01 -.398E+02 -.601E+01   0.732E-01 0.798E+00 0.993E+00   -.868E-03 0.270E-02 0.305E-03
   -.244E+02 -.380E+02 -.774E+01   0.253E+02 0.388E+02 0.763E+01   -.880E+00 -.792E+00 0.114E+00   -.170E-02 -.268E-02 -.395E-03
   -.244E+02 -.380E+02 0.774E+01   0.253E+02 0.388E+02 -.763E+01   -.880E+00 -.792E+00 -.114E+00   -.171E-02 -.267E-02 0.394E-03
   -.693E-04 0.152E+01 0.231E-04   0.108E-03 -.379E+01 -.301E-04   -.335E-05 0.227E+01 0.786E-05   -.331E-04 -.164E-02 0.578E-07
   0.122E-03 0.152E+01 -.322E-04   -.196E-03 -.379E+01 0.303E-04   0.308E-04 0.227E+01 0.335E-05   0.361E-04 -.164E-02 -.174E-06
   -.472E+01 -.319E+00 -.103E+02   0.609E+01 0.354E+00 0.119E+02   -.137E+01 -.350E-01 -.155E+01   0.650E-03 -.472E-03 0.500E-03
   -.472E+01 -.320E+00 0.103E+02   0.609E+01 0.354E+00 -.119E+02   -.137E+01 -.350E-01 0.155E+01   0.648E-03 -.542E-03 -.503E-03
   0.472E+01 -.320E+00 0.103E+02   -.609E+01 0.354E+00 -.119E+02   0.137E+01 -.350E-01 0.155E+01   -.648E-03 -.530E-03 -.503E-03
   0.472E+01 -.319E+00 -.103E+02   -.609E+01 0.354E+00 0.119E+02   0.137E+01 -.350E-01 -.155E+01   -.651E-03 -.481E-03 0.501E-03
   0.509E+01 -.125E+00 0.212E-03   -.522E+01 0.235E+01 -.259E-03   0.127E+00 -.223E+01 0.116E-04   0.298E-03 0.147E-02 0.307E-04
   -.509E+01 -.125E+00 0.210E-03   0.522E+01 0.235E+01 -.245E-03   -.127E+00 -.223E+01 0.116E-04   -.298E-03 0.147E-02 0.163E-04
   0.152E-03 0.974E+00 -.118E-03   -.119E-03 0.317E+01 0.124E-03   -.182E-04 -.415E+01 -.386E-05   -.196E-04 0.110E-02 -.196E-05
   -.256E-03 0.974E+00 -.416E-04   0.277E-03 0.317E+01 0.384E-04   -.311E-04 -.415E+01 0.479E-05   0.206E-04 0.110E-02 -.915E-06
   0.976E-05 -.989E+01 -.893E-04   -.129E-04 0.764E+01 0.892E-04   -.268E-04 0.226E+01 0.590E-06   0.273E-04 -.129E-02 0.769E-07
   0.326E-03 -.989E+01 0.389E-04   -.375E-03 0.764E+01 -.508E-04   0.732E-04 0.226E+01 0.130E-04   -.277E-04 -.128E-02 -.258E-07
   -.349E-03 -.683E+01 -.960E-04   0.402E-03 0.114E+02 0.102E-03   -.605E-04 -.459E+01 -.460E-05   0.190E-04 0.180E-02 -.207E-05
   0.206E-03 -.683E+01 -.626E-04   -.194E-03 0.114E+02 0.620E-04   0.315E-05 -.459E+01 0.247E-05   -.212E-04 0.180E-02 -.895E-06
   0.669E+00 -.433E+00 -.562E+01   0.948E+00 0.489E+00 0.732E+01   -.161E+01 -.559E-01 -.170E+01   0.145E-02 0.346E-03 0.872E-03
   0.668E+00 -.434E+00 0.562E+01   0.949E+00 0.489E+00 -.732E+01   -.161E+01 -.560E-01 0.170E+01   0.145E-02 0.401E-03 -.876E-03
   -.668E+00 -.433E+00 0.562E+01   -.948E+00 0.489E+00 -.732E+01   0.161E+01 -.560E-01 0.170E+01   -.145E-02 0.391E-03 -.875E-03
   -.669E+00 -.433E+00 -.562E+01   -.948E+00 0.488E+00 0.732E+01   0.161E+01 -.559E-01 -.170E+01   -.145E-02 0.352E-03 0.873E-03
   0.559E+01 0.918E+01 0.518E-03   -.570E+01 -.694E+01 -.539E-03   0.105E+00 -.224E+01 0.331E-04   0.345E-03 0.138E-02 -.228E-04
   -.105E+02 -.330E+00 -.106E-03   0.147E+02 -.378E+01 0.110E-03   -.426E+01 0.411E+01 -.324E-04   0.897E-03 -.971E-03 0.327E-04
   -.945E+01 0.523E+01 0.136E-03   0.136E+02 -.965E+01 -.116E-03   -.410E+01 0.442E+01 0.439E-05   0.892E-03 -.153E-02 -.314E-04
   -.559E+01 0.918E+01 0.354E-03   0.570E+01 -.694E+01 -.374E-03   -.105E+00 -.224E+01 0.250E-04   -.345E-03 0.138E-02 -.117E-04
   0.945E+01 0.523E+01 0.230E-03   -.136E+02 -.965E+01 -.228E-03   0.410E+01 0.442E+01 0.161E-04   -.893E-03 -.153E-02 -.264E-04
   0.105E+02 -.329E+00 -.110E-03   -.147E+02 -.378E+01 0.110E-03   0.426E+01 0.411E+01 -.221E-04   -.898E-03 -.971E-03 0.276E-04
 -----------------------------------------------------------------------------------------------
   0.953E-05 0.630E+00 -.235E-03   -.195E-13 -.155E-12 0.188E-13   -.792E-05 -.634E+00 0.244E-03   -.152E-05 0.246E-03 -.105E-05
 
 
 POSITION                                       TOTAL-FORCE (eV/Angst)
 -----------------------------------------------------------------------------------
      0.00218      7.55946      7.64475        -0.001107      0.000604     -0.000566
      0.00218      7.55946      3.97815        -0.001103      0.000576      0.000578
      7.65258      3.90844      0.00326        -0.000025     -0.000408     -0.000151
      7.65258      3.90844      3.87104        -0.000014     -0.000417      0.000148
      3.87333      7.55946      0.10385         0.001103      0.000576      0.000582
      3.87333      7.55946      3.77045         0.001104      0.000597     -0.000572
      3.97401      3.90845      7.74534         0.000010     -0.000413      0.000151
      3.97401      3.90845      3.87757         0.000027     -0.000406     -0.000153
      5.81330      3.80034      7.74861         0.000003     -0.004632      0.000001
      5.81330      3.80034      3.87430        -0.000007     -0.004630      0.000001
      0.01449      5.73387      0.02223        -0.002052     -0.001063      0.000233
      0.01449      5.73387      3.85207        -0.002054     -0.001052     -0.000230
      3.86103      5.73387      7.72637         0.002060     -0.001053     -0.000231
      3.86103      5.73387      3.89654         0.002058     -0.001060      0.000233
      7.74510      0.01799      5.81146        -0.001606      0.002634     -0.000006
      3.88150      0.01800      1.93715         0.001604      0.002635     -0.000007
      1.93777      0.07262      7.74861        -0.000005     -0.003212      0.000000
      1.93777      0.07262      3.87430         0.000010     -0.003212      0.000000
      1.93776      3.78193     -0.00000        -0.000003      0.001382      0.000000
      1.93776      3.78193      3.87430        -0.000004      0.001382      0.000001
      5.81330      0.09047     -0.00000         0.000012      0.006381     -0.000001
      5.81330      0.09047      3.87430        -0.000006      0.006379      0.000001
      0.03147      1.91048      0.03495         0.007012      0.000203      0.005166
      0.03148      1.91048      3.83935         0.007005      0.000220     -0.005159
      3.84405      1.91048      7.71366        -0.007007      0.000215     -0.005161
      3.84405      1.91048      3.90925        -0.007014      0.000202      0.005166
      7.74413      0.04189      1.93715        -0.002239     -0.000049     -0.000010
      0.06400      3.74972      1.93715         0.000371      0.001675      0.000004
      0.06138      3.73722      5.81146        -0.000107     -0.002840     -0.000007
      3.88247      0.04190      5.81146         0.002238     -0.000048     -0.000007
      3.81414      3.73722      1.93715         0.000107     -0.002841     -0.000009
      3.81152      3.74971      5.81146        -0.000370      0.001675      0.000005
 -----------------------------------------------------------------------------------
    total drift:                                0.000000     -0.003696      0.000009


--------------------------------------------------------------------------------------------------------



  FREE ENERGIE OF THE ION-ELECTRON SYSTEM (eV)
  ---------------------------------------------------
  free  energy   TOTEN  =      -213.53644325 eV

  energy  without entropy=     -213.53644325  energy(sigma->0) =     -213.53644325
 


--------------------------------------------------------------------------------------------------------


    POTLOK:  cpu time    0.9729: real time    0.9819


--------------------------------------------------------------------------------------------------------


 stress matrix after NEB project (eV)
     -0.01726      0.00022      0.00003
      0.00022      0.04814      0.00005
      0.00003      0.00005      0.00301
  FORCES: max atom, RMS     0.008713    0.004082
  FORCE total and by dimension    0.023090    0.007014
  Stress total and by dimension    0.051234    0.048142
 Quasi-Newton relaxation of ions (Broydens 2nd method)
  g(Force)  = 0.257E-04   g(Stress)= 0.396E-05

 Reset! Starting new Quasi-Newton update for ions 


--------------------------------------------------------------------------------------------------------


  
 reached required accuracy - stopping structural energy minimisation
 writing wavefunctions
     LOOP+:  cpu time  106.5158: real time  108.8840
    4ORBIT:  cpu time    0.0000: real time    0.0000
 


 total charge     
 
# of ion       s       p       d       tot
------------------------------------------
    1        0.319   6.465   1.759   8.542
    2        0.319   6.465   1.759   8.542
    3        0.318   6.462   1.753   8.534
    4        0.318   6.462   1.753   8.534
    5        0.319   6.465   1.759   8.542
    6        0.319   6.464   1.759   8.542
    7        0.318   6.462   1.753   8.534
    8        0.318   6.462   1.753   8.534
    9        1.568   3.464   0.000   5.031
   10        1.568   3.464   0.000   5.031
   11        1.569   3.471   0.000   5.041
   12        1.569   3.471   0.000   5.041
   13        1.569   3.471   0.000   5.041
   14        1.569   3.471   0.000   5.041
   15        1.569   3.467   0.000   5.035
   16        1.569   3.467   0.000   5.035
   17        1.730   4.391   0.000   6.122
   18        1.730   4.391   0.000   6.122
   19        1.728   4.370   0.000   6.099
   20        1.728   4.370   0.000   6.099
   21        1.730   4.390   0.000   6.120
   22        1.730   4.390   0.000   6.120
   23        1.730   4.381   0.000   6.110
   24        1.730   4.381   0.000   6.110
   25        1.730   4.381   0.000   6.110
   26        1.730   4.381   0.000   6.110
   27        1.728   4.369   0.000   6.097
   28        1.731   4.390   0.000   6.121
   29        1.730   4.388   0.000   6.118
   30        1.728   4.369   0.000   6.097
   31        1.730   4.388   0.000   6.118
   32        1.731   4.390   0.000   6.121
--------------------------------------------------
tot         42.772 149.574  14.049 206.396
 


 magnetization (x)
 
# of ion       s       p       d       tot
------------------------------------------
    1        0.000  -0.000  -0.000  -0.000
    2        0.000  -0.000  -0.000  -0.000
    3       -0.000  -0.000  -0.000  -0.000
    4       -0.000   0.000   0.000   0.000
    5       -0.000  -0.000  -0.000  -0.000
    6        0.000  -0.000  -0.000  -0.000
    7        0.000   0.000  -0.000  -0.000
    8        0.000   0.000  -0.000  -0.000
    9       -0.000   0.000   0.000   0.000
   10        0.000   0.000   0.000   0.000
   11        0.000   0.000   0.000   0.000
   12       -0.000  -0.000   0.000  -0.000
   13       -0.000   0.000   0.000   0.000
   14       -0.000   0.000   0.000   0.000
   15       -0.000   0.000   0.000   0.000
   16        0.000   0.000   0.000   0.000
   17       -0.000  -0.000   0.000  -0.000
   18       -0.000   0.000   0.000   0.000
   19       -0.000  -0.000   0.000  -0.000
   20       -0.000  -0.000   0.000  -0.000
   21       -0.000  -0.000   0.000  -0.000
   22       -0.000  -0.000   0.000  -0.000
   23       -0.000  -0.000   0.000  -0.000
   24       -0.000  -0.000   0.000  -0.000
   25       -0.000   0.000   0.000   0.000
   26        0.000   0.000   0.000   0.000
   27        0.000   0.000   0.000   0.000
   28        0.000  -0.000   0.000  -0.000
   29        0.000   0.000   0.000   0.000
   30        0.000   0.000   0.000   0.000
   31        0.000  -0.000   0.000   0.000
   32        0.000  -0.000   0.000  -0.000
--------------------------------------------------
tot          0.000   0.000  -0.000  -0.000
 

 total amount of memory used by VASP MPI-rank0   106751. kBytes
=======================================================================

   base      :      30000. kBytes
   nonlr-proj:       8630. kBytes
   fftplans  :       8424. kBytes
   grid      :       8783. kBytes
   one-center:        124. kBytes
   wavefun   :      50790. kBytes
 
  
  
 General timing and accounting informations for this job:
 ========================================================
  
                  Total CPU time used (sec):      156.226
                            User time (sec):      133.165
                          System time (sec):       23.061
                         Elapsed time (sec):      170.338
  
                   Maximum memory used (kb):      225116.
                   Average memory used (kb):           0.
  
                          Minor page faults:        86826
                          Major page faults:            2
                 Voluntary context switches:        63739
