LTO                                     
           1
     7.940906    0.000000    0.000000
    -0.000000    7.773725    0.000000
     0.000000    0.000000    7.556931
   Ti   O    F 
   8   8  16
Direct configuration=     1
   1.00000000  0.00000007  0.98745340
   0.00000000  0.00000034  0.51007357
   0.00000000  0.50000004  0.01254660
   1.00000000  0.50000012  0.48992642
   0.50000000  0.00000121  0.00032041
   0.50000000  0.99998823  0.49952858
   0.50000000  0.50000123  0.99967965
   0.50000000  0.49998314  0.50047141
   0.50000000  0.25000636  0.49999991
   0.50000000  0.75000586  0.50000001
   1.00000000  0.00000086  0.75051427
   0.00000000  0.50000002  0.24948568
   0.50000000  0.00000171  0.24266773
   0.50000000  0.00000161  0.75758005
   0.50000000  0.50000198  0.24241977
   0.50000000  0.50000213  0.75733258
   0.23835557  0.00000005  0.00540106
   0.23569150  0.00000047  0.49375455
   0.23835559  0.50000005  0.99459892
   0.23569144  0.50000063  0.50624544
   0.76164443  0.00000005  0.00540108
   0.76430850  0.00000047  0.49375455
   0.76164441  0.50000005  0.99459894
   0.76430855  0.50000063  0.50624544
   0.00000000  0.25000007  0.00000010
   1.00000000  0.25000026  0.49999988
   0.00000000  0.75000005  0.99999985
   1.00000000  0.75000026  0.50000011
   0.50000000  0.25000107  0.99999997
   0.50000000  0.75000100  0.00000006
   1.00000000  0.00000000  0.24873753
   0.00000000  0.49999998  0.75126246
