 vasp.6.3.0 20Jan22 (build Jan 25 2022 13:20:17) complex                        
  
 executed on             LinuxIFC date 2024.06.12  11:21:53
 running on   80 total cores
 distrk:  each k-point on   80 cores,    1 groups
 distr:  one band on NCORE=   8 cores,   10 groups


--------------------------------------------------------------------------------------------------------


 INCAR:
   SYSTEM = LTO
   ISTART = 1
   ENCUT = 700.0
   IALGO = 38
   EDIFF = 1E-6
   PREC = Accurate
   ISPIN = 2
   LMAXMIX = 4
   ADDGRID = .TRUE.
   LASPH = .TRUE.
   LREAL = Auto
   ROPT = 1E-4 1E-4 1E-4
   GGA = PS
   LDAU = .TRUE.
   LDAUTYPE = 2
   LDAUL = 2   -1    -1
   LDAUU = 4.2  0.0  0.0
   LDAUJ = 0.0  0.0  0.0
   NSW = 100
   EDIFFG = -0.01
   IBRION = 1
   ISIF = 3
   ISMEAR = 0
   SIGMA = 0.01
   ISYM = 0
   LORBIT = 11
   NEDOS = 3001
   NWRITE = 2
   NCORE = 8

 POTCAR:   PAW_PBE Ti_pv 07Sep2000                
 POTCAR:   PAW_PBE O 08Apr2002                    
 POTCAR:    PAW_PBE F 08Apr2002                   
 -----------------------------------------------------------------------------
|                                                                             |
|           W    W    AA    RRRRR   N    N  II  N    N   GGGG   !!!           |
|           W    W   A  A   R    R  NN   N  II  NN   N  G    G  !!!           |
|           W    W  A    A  R    R  N N  N  II  N N  N  G       !!!           |
|           W WW W  AAAAAA  RRRRR   N  N N  II  N  N N  G  GGG   !            |
|           WW  WW  A    A  R   R   N   NN  II  N   NN  G    G                |
|           W    W  A    A  R    R  N    N  II  N    N   GGGG   !!!           |
|                                                                             |
|     You use a magnetic or noncollinear calculation, but did not specify     |
|     the initial magnetic moment with the MAGMOM tag. Note that a            |
|     default of 1 will be used for all atoms. This ferromagnetic setup       |
|     may break the symmetry of the crystal, in particular it may rule        |
|     out finding an antiferromagnetic solution. Thence, we recommend         |
|     setting the initial magnetic moment manually or verifying carefully     |
|     that this magnetic setup is desired.                                    |
|                                                                             |
 -----------------------------------------------------------------------------

 POTCAR:   PAW_PBE Ti_pv 07Sep2000                
   VRHFIN =Ti: d3 s1                                                                                
   LEXCH  = PE                                                                                      
   EATOM  =  1042.3781 eV,   76.6126 Ry                                                             
                                                                                                    
   TITEL  = PAW_PBE Ti_pv 07Sep2000                                                                 
   LULTRA =        F    use ultrasoft PP ?                                                          
   IUNSCR =        1    unscreen: 0-lin 1-nonlin 2-no                                               
   RPACOR =    2.200    partial core radius                                                         
   POMASS =   47.880; ZVAL   =   10.000    mass and valenz                                          
   RCORE  =    2.500    outmost cutoff radius                                                       
   RWIGS  =    2.500; RWIGS  =    1.323    wigner-seitz radius (au A)                               
   ENMAX  =  222.338; ENMIN  =  166.753 eV                                                          
   RCLOC  =    1.701    cutoff for local pot                                                        
   LCOR   =        T    correct aug charges                                                         
   LPAW   =        T    paw PP                                                                      
   EAUG   =  482.848                                                                                
   DEXC   =    -.008                                                                                
   RMAX   =    3.092    core radius for proj-oper                                                   
   RAUG   =    1.300    factor for augmentation sphere                                              
   RDEP   =    2.538    radius for radial grids                                                     
   QCUT   =   -4.042; QGAM   =    8.085    optimization parameters                                  
                                                                                                    
   Description                                                                                      
     l     E      TYP  RCUT    TYP  RCUT                                                            
     1   .000     23  2.300                                                                         
     1  -.100     23  2.300                                                                         
     2   .000     23  2.500                                                                         
     2   .000     23  2.500                                                                         
     0   .000     23  2.500                                                                         
     0  1.500     23  2.500                                                                         
     3   .000      7   .000                                                                         
  local pseudopotential read in
  partial core-charges read in
  atomic valenz-charges read in
  non local Contribution for L=           1  read in
    real space projection operators read in
  non local Contribution for L=           1  read in
    real space projection operators read in
  non local Contribution for L=           2  read in
    real space projection operators read in
  non local Contribution for L=           2  read in
    real space projection operators read in
  non local Contribution for L=           0  read in
    real space projection operators read in
  non local Contribution for L=           0  read in
    real space projection operators read in
    PAW grid and wavefunctions read in
 
   number of l-projection  operators is LMAX  =           6
   number of lm-projection operators is LMMAX =          18
 
 POTCAR:   PAW_PBE O 08Apr2002                    
   VRHFIN =O: s2p4                                                                                  
   LEXCH  = PE                                                                                      
   EATOM  =   432.3788 eV,   31.7789 Ry                                                             
                                                                                                    
   TITEL  = PAW_PBE O 08Apr2002                                                                     
   LULTRA =        F    use ultrasoft PP ?                                                          
   IUNSCR =        0    unscreen: 0-lin 1-nonlin 2-no                                               
   RPACOR =     .000    partial core radius                                                         
   POMASS =   16.000; ZVAL   =    6.000    mass and valenz                                          
   RCORE  =    1.520    outmost cutoff radius                                                       
   RWIGS  =    1.550; RWIGS  =     .820    wigner-seitz radius (au A)                               
   ENMAX  =  400.000; ENMIN  =  300.000 eV                                                          
   ICORE  =        2    local potential                                                             
   LCOR   =        T    correct aug charges                                                         
   LPAW   =        T    paw PP                                                                      
   EAUG   =  605.392                                                                                
   DEXC   =     .000                                                                                
   RMAX   =    2.264    core radius for proj-oper                                                   
   RAUG   =    1.300    factor for augmentation sphere                                              
   RDEP   =    1.550    radius for radial grids                                                     
   QCUT   =   -5.520; QGAM   =   11.041    optimization parameters                                  
                                                                                                    
   Description                                                                                      
     l     E      TYP  RCUT    TYP  RCUT                                                            
     0   .000     23  1.200                                                                         
     0  -.700     23  1.200                                                                         
     1   .000     23  1.520                                                                         
     1   .600     23  1.520                                                                         
     2   .000      7  1.500                                                                         
  local pseudopotential read in
  atomic valenz-charges read in
  non local Contribution for L=           0  read in
    real space projection operators read in
  non local Contribution for L=           0  read in
    real space projection operators read in
  non local Contribution for L=           1  read in
    real space projection operators read in
  non local Contribution for L=           1  read in
    real space projection operators read in
    PAW grid and wavefunctions read in
 
   number of l-projection  operators is LMAX  =           4
   number of lm-projection operators is LMMAX =           8
 
 POTCAR:    PAW_PBE F 08Apr2002                   
   VRHFIN =F: s2p5                                                                                  
   LEXCH  = PE                                                                                      
   EATOM  =   659.6475 eV,   48.4827 Ry                                                             
                                                                                                    
   TITEL  = PAW_PBE F 08Apr2002                                                                     
   LULTRA =        F    use ultrasoft PP ?                                                          
   IUNSCR =        1    unscreen: 0-lin 1-nonlin 2-no                                               
   RPACOR =    1.200    partial core radius                                                         
   POMASS =   18.998; ZVAL   =    7.000    mass and valenz                                          
   RCORE  =    1.520    outmost cutoff radius                                                       
   RWIGS  =    1.500; RWIGS  =    0.794    wigner-seitz radius (au A)                               
   ENMAX  =  400.000; ENMIN  =  300.000 eV                                                          
   ICORE  =        2    local potential                                                             
   LCOR   =        T    correct aug charges                                                         
   LPAW   =        T    paw PP                                                                      
   EAUG   =  613.614                                                                                
   RMAX   =    1.555    core radius for proj-oper                                                   
   RAUG   =    1.300    factor for augmentation sphere                                              
   RDEP   =    1.539    radius for radial grids                                                     
   RDEPT  =    1.299    core radius for aug-charge                                                  
                                                                                                    
   Atomic configuration                                                                             
    4 entries                                                                                       
     n  l   j            E        occ.                                                              
     1  0  0.50      -663.3661   2.0000                                                             
     2  0  0.50       -29.8995   2.0000                                                             
     2  1  0.50       -11.1114   5.0000                                                             
     3  2  1.50       -10.8847   0.0000                                                             
   Description                                                                                      
     l       E           TYP  RCUT    TYP  RCUT                                                     
     0    -29.8995018     23  1.200                                                                 
     0     -9.5240782     23  1.200                                                                 
     1    -11.1113914     23  1.520                                                                 
     1      1.3605826     23  1.520                                                                 
     2    -10.8846608      7  1.500                                                                 
  local pseudopotential read in
  partial core-charges read in
  partial kinetic energy density read in
  atomic valenz-charges read in
  non local Contribution for L=           0  read in
    real space projection operators read in
  non local Contribution for L=           0  read in
    real space projection operators read in
  non local Contribution for L=           1  read in
    real space projection operators read in
  non local Contribution for L=           1  read in
    real space projection operators read in
    PAW grid and wavefunctions read in
 
   number of l-projection  operators is LMAX  =           4
   number of lm-projection operators is LMMAX =           8
 
 Optimization of the real space projectors (new method)

 maximal supplied QI-value         = 15.12
 optimisation between [QCUT,QGAM] = [ 13.45, 27.06] = [ 50.69,205.06] Ry 
 Optimized for a Real-space Cutoff    1.49 Angstroem

   l    n(q)    QCUT    max X(q) W(low)/X(q) W(high)/X(q)  e(spline) 
   1     12    13.455     4.841    0.13E-05    0.83E-06    0.56E-07
   1     12    13.455     5.701    0.32E-04    0.25E-04    0.17E-06
   2     11    13.455     4.569    0.64E-05    0.34E-05    0.50E-07
   2     11    13.455    32.276    0.49E-04    0.38E-04    0.46E-06
   0     12    13.455    30.046    0.17E-04    0.41E-05    0.51E-07
   0     12    13.455    45.433    0.12E-04    0.27E-04    0.38E-06
 Optimization of the real space projectors (new method)

 maximal supplied QI-value         = 24.76
 optimisation between [QCUT,QGAM] = [ 13.37, 26.98] = [ 50.04,203.89] Ry 
 Optimized for a Real-space Cutoff    1.17 Angstroem

   l    n(q)    QCUT    max X(q) W(low)/X(q) W(high)/X(q)  e(spline) 
   0      9    13.368     4.192    0.20E-04    0.58E-05    0.56E-07
   0      9    13.368     8.473    0.60E-04    0.52E-04    0.21E-06
   1      9    13.368     2.474    0.22E-04    0.17E-04    0.28E-07
   1      9    13.368     3.912    0.94E-04    0.97E-04    0.20E-06
 Optimization of the real space projectors (new method)

 maximal supplied QI-value         = 24.76
 optimisation between [QCUT,QGAM] = [ 13.37, 26.98] = [ 50.04,203.89] Ry 
 Optimized for a Real-space Cutoff    1.17 Angstroem

   l    n(q)    QCUT    max X(q) W(low)/X(q) W(high)/X(q)  e(spline) 
   0      9    13.368    14.049    0.39E-04    0.34E-04    0.16E-06
   0      9    13.368     8.945    0.54E-04    0.47E-04    0.20E-06
   1      9    13.368     7.086    0.99E-04    0.10E-03    0.23E-06
   1      9    13.368     6.747    0.86E-04    0.89E-04    0.21E-06
 -----------------------------------------------------------------------------
|                                                                             |
|               ----> ADVICE to this user running VASP <----                  |
|                                                                             |
|     You enforced a specific xc type in the INCAR file but a different       |
|     type was found in the POTCAR file.                                      |
|     I HOPE YOU KNOW WHAT YOU ARE DOING!                                     |
|                                                                             |
 -----------------------------------------------------------------------------

 PAW_PBE Ti_pv 07Sep2000                :
 energy of atom  1       EATOM=-1042.3781
 kinetic energy error for atom=    0.0006 (will be added to EATOM!!)
 PAW_PBE O 08Apr2002                    :
 energy of atom  2       EATOM= -432.3788
 kinetic energy error for atom=    0.0091 (will be added to EATOM!!)
  PAW_PBE F 08Apr2002                   :
 energy of atom  3       EATOM= -659.6475
 kinetic energy error for atom=    0.0140 (will be added to EATOM!!)
 
 
 POSCAR: Ti27 O27 F54
  positions in direct lattice
  velocities in cartesian coordinates
 exchange correlation table for  LEXCH =       14
   RHO(1)=    0.500       N(1)  =     2000
   RHO(2)=  100.500       N(2)  =     4000
 


--------------------------------------------------------------------------------------------------------


 ion  position               nearest neighbor table
   1  0.009  0.006  0.012-  46 1.80  37 1.85  28 1.90  60 2.05  86 2.07  92 2.08
   2  0.991  0.989  0.325-  29 1.82  42 1.84  46 1.85  73 2.05  91 2.08  55 2.12
   3  0.001  0.986  0.667-  30 1.76  92 1.93  87 1.93  74 1.93  91 1.93  56 2.13
   4  0.994  0.320  1.000-  28 1.76  43 1.88  94 1.96  93 1.96  75 2.02  57 2.08
   5  1.000  0.334  0.343-  47 1.83  55 1.90  58 1.90  76 1.92  88 1.93  93 2.02
   6  0.000  0.333  0.658-  47 1.82  56 1.91  77 1.91  59 1.91  89 1.92  94 2.02
   7  0.987  0.664  0.999-  44 1.77  96 1.92  95 1.92  57 1.93  60 1.94  78 2.09
   8  0.010  0.677  0.343-  29 1.82  38 1.83  48 1.85  95 2.08  90 2.08  58 2.11
   9  0.993  0.672  0.655-  48 1.80  45 1.86  30 1.90  79 2.04  59 2.05  96 2.10
  10  0.321  0.999  0.009-  37 1.80  49 1.82  66 1.97  61 1.98  98 2.04  80 2.08
  11  0.333  0.990  0.324-  32 1.80  49 1.84  81 1.95  73 1.95  97 2.05  62 2.09
  12  0.345  0.991  0.667-  39 1.79  33 1.83  98 1.95  97 1.95  63 2.08  74 2.09
  13  0.335  0.340  0.011-  50 1.80  31 1.87  82 1.94  75 1.95  61 2.00 100 2.06
  14  0.345  0.333  0.325-  40 1.80  50 1.85  62 1.92  64 1.93  99 2.06  76 2.09
  15  0.346  0.334  0.667-  41 1.75  63 1.92  65 1.93 100 1.94  99 1.95  77 2.10
  16  0.332  0.655  1.000-  31 1.79 101 1.92 102 1.92  78 1.93  83 1.93  66 2.04
  17  0.322  0.676  0.342-  38 1.81  51 1.86  32 1.86  64 2.06 101 2.07  84 2.09
  18  0.333  0.677  0.655-  51 1.79  33 1.82  85 1.95  79 1.96  65 2.08 102 2.09
  19  0.666  0.986  1.000-  35 1.77 103 1.92 104 1.92  80 1.93  86 1.93  67 2.10
  20  0.677  0.995  0.343-  42 1.81  52 1.82  36 1.92  68 2.03  81 2.07 103 2.09
  21  0.658  0.010  0.656-  52 1.82  39 1.85  34 1.86  72 2.05  87 2.06 104 2.08
  22  0.679  0.333  0.000-  43 1.78 105 1.92 106 1.93  67 1.93  69 1.94  82 2.06
  23  0.658  0.335  0.346-  53 1.79  40 1.84  70 1.93  68 1.93  88 2.07 105 2.09
  24  0.662  0.322  0.658-  34 1.80  53 1.86  41 1.90  89 2.05  71 2.05 106 2.07
  25  0.673  0.672  0.990-  54 1.80  35 1.88  44 1.89  83 2.03  69 2.04 107 2.05
  26  0.665  0.680  0.332-  36 1.76  84 1.93  90 1.94 107 1.94 108 1.95  70 2.09
  27  0.678  0.666  0.677-  45 1.80  54 1.84  71 1.95  72 1.95  85 2.06 108 2.06
  28  0.997  0.168  0.998-   4 1.76   1 1.90
  29  0.999  0.833  0.342-   8 1.82   2 1.82
  30  0.008  0.835  0.662-   3 1.76   9 1.90
  31  0.332  0.500  0.999-  16 1.79  13 1.87
  32  0.337  0.835  0.335-  11 1.80  17 1.86
  33  0.328  0.834  0.665-  18 1.82  12 1.83
  34  0.674  0.168  0.675-  24 1.80  21 1.86
  35  0.666  0.834  0.007-  19 1.77  25 1.88
  36  0.662  0.831  0.328-  26 1.76  20 1.92
  37  0.167  0.995  0.993-  10 1.80   1 1.85
  38  0.167  0.663  0.326-  17 1.81   8 1.83
  39  0.499  0.003  0.669-  12 1.79  21 1.85
  40  0.500  0.334  0.341-  14 1.80  23 1.84
  41  0.498  0.332  0.662-  15 1.75  24 1.90
  42  0.833  0.005  0.331-  20 1.81   2 1.84
  43  0.832  0.342  0.001-  22 1.78   4 1.88
  44  0.834  0.656  0.998-   7 1.77  25 1.89
  45  0.834  0.666  0.670-  27 1.80   9 1.86
  46  0.004  0.998  0.166-   1 1.80   2 1.85
  47  0.994  0.336  0.501-   6 1.82   5 1.83
  48  0.002  0.654  0.501-   9 1.80   8 1.85
  49  0.333  0.005  0.166-  10 1.82  11 1.84
  50  0.334  0.328  0.166-  13 1.80  14 1.85
  51  0.332  0.659  0.501-  18 1.79  17 1.86
  52  0.666  0.003  0.500-  21 1.82  20 1.82
  53  0.680  0.332  0.499-  23 1.79  24 1.86
  54  0.661  0.666  0.834-  25 1.80  27 1.84
  55  0.005  0.171  0.332-   5 1.90   2 2.12
  56  0.994  0.169  0.672-   6 1.91   3 2.13
  57  0.013  0.499  0.001-   7 1.93   4 2.08
  58  0.993  0.497  0.324-   5 1.90   8 2.11
  59  0.005  0.497  0.676-   6 1.91   9 2.05
  60  0.993  0.831  0.994-   7 1.94   1 2.05
  61  0.334  0.168  0.992-  10 1.98  13 2.00
  62  0.327  0.169  0.342-  14 1.92  11 2.09
  63  0.326  0.169  0.666-  15 1.92  12 2.08
  64  0.334  0.499  0.327-  14 1.93  17 2.06
  65  0.330  0.499  0.676-  15 1.93  18 2.08
  66  0.340  0.831  0.998-  10 1.97  16 2.04
  67  0.669  0.167  0.994-  22 1.93  19 2.10
  68  0.666  0.169  0.324-  23 1.93  20 2.03
  69  0.654  0.498  0.005-  22 1.94  25 2.04
  70  0.672  0.500  0.330-  23 1.93  26 2.09
  71  0.665  0.499  0.665-  27 1.95  24 2.05
  72  0.666  0.833  0.665-  27 1.95  21 2.05
  73  0.166  0.006  0.341-  11 1.95   2 2.05
  74  0.166  0.011  0.671-   3 1.93  12 2.09
  75  0.167  0.331  0.997-  13 1.95   4 2.02
  76  0.165  0.339  0.336-   5 1.92  14 2.09
  77  0.165  0.331  0.667-   6 1.91  15 2.10
  78  0.167  0.674  0.002-  16 1.93   7 2.09
  79  0.167  0.658  0.676-  18 1.96   9 2.04
  80  0.500  0.004  0.993-  19 1.93  10 2.08
  81  0.500  0.011  0.333-  11 1.95  20 2.07
  82  0.501  0.329  0.996-  13 1.94  22 2.06
  83  0.499  0.666  0.004-  16 1.93  25 2.03
  84  0.500  0.656  0.331-  26 1.93  17 2.09
  85  0.501  0.664  0.665-  18 1.95  27 2.06
  86  0.832  0.000  0.001-  19 1.93   1 2.07
  87  0.835  0.995  0.667-   3 1.93  21 2.06
  88  0.835  0.329  0.320-   5 1.93  23 2.07
  89  0.836  0.342  0.679-   6 1.92  24 2.05
  90  0.832  0.662  0.330-  26 1.94   8 2.08
  91  0.002  0.015  0.503-   3 1.93   2 2.08
  92  0.994  0.999  0.832-   3 1.93   1 2.08
  93  0.008  0.334  0.168-   4 1.96   5 2.02
  94  0.004  0.336  0.832-   4 1.96   6 2.02
  95  0.998  0.667  0.164-   7 1.92   8 2.08
  96  0.007  0.664  0.835-   7 1.92   9 2.10
  97  0.331  0.008  0.500-  12 1.95  11 2.05
  98  0.334  0.002  0.834-  12 1.95  10 2.04
  99  0.322  0.341  0.501-  15 1.95  14 2.06
 100  0.332  0.331  0.834-  15 1.94  13 2.06
 101  0.338  0.668  0.165-  16 1.92  17 2.07
 102  0.337  0.668  0.835-  16 1.92  18 2.09
 103  0.660  0.009  0.164-  19 1.92  20 2.09
 104  0.672  0.994  0.834-  19 1.92  21 2.08
 105  0.662  0.332  0.165-  22 1.92  23 2.09
 106  0.665  0.342  0.835-  22 1.93  24 2.07
 107  0.665  0.658  0.166-  26 1.94  25 2.05
 108  0.665  0.664  0.499-  26 1.95  27 2.06
 

IMPORTANT INFORMATION: All symmetrisations will be switched off!
NOSYMM: (Re-)initialisation of all symmetry stuff for point group C_1.


----------------------------------------------------------------------------------------

                                     Primitive cell                                     

  volume of cell :    1557.0552

  direct lattice vectors                    reciprocal lattice vectors
    11.588429223  0.002337061 -0.000516260     0.086292976 -0.000017421  0.000003840
     0.002340403 11.593259200  0.001567480    -0.000017396  0.086257026 -0.000011629
    -0.000515413  0.001562380 11.589746224     0.000003846 -0.000011667  0.086283168

  length of vectors
    11.588429470 11.593259542 11.589746341     0.086292978  0.086257028  0.086283169

  position of ions in fractional coordinates (direct lattice)
     0.009367365  0.005958096  0.011564373
     0.990970598  0.989429045  0.325208305
     0.001258834  0.986222028  0.667016945
     0.993574623  0.320261794  0.999932389
     0.999690991  0.334367963  0.342547196
     0.000275209  0.333040513  0.657834866
     0.986614222  0.663794864  0.999078988
     0.010037967  0.676920199  0.342950301
     0.993139290  0.672035502  0.654623486
     0.321463444  0.998964572  0.009362470
     0.333439452  0.989935355  0.324110691
     0.344543051  0.990613273  0.666745632
     0.334713838  0.339508780  0.011333844
     0.344692952  0.333371460  0.325348574
     0.346352473  0.333723716  0.667115335
     0.332277032  0.654704825  0.999785493
     0.321904631  0.675674322  0.342215792
     0.333247609  0.676948509  0.654628658
     0.665741519  0.986289467  0.999894445
     0.677196298  0.995498529  0.342831722
     0.657923750  0.009688366  0.656060915
     0.679177259  0.333337639  0.000235353
     0.658044950  0.334573403  0.345632489
     0.661521419  0.321834835  0.657876433
     0.672584358  0.672493423  0.989500534
     0.665446278  0.679744003  0.331694410
     0.678304011  0.665880384  0.676560442
     0.996870899  0.168409029  0.998173025
     0.999015317  0.833361627  0.342000015
     0.008261037  0.834810249  0.661655649
     0.331969750  0.500169093  0.999393683
     0.337496867  0.835247790  0.334970657
     0.328185959  0.833947300  0.664936629
     0.674383151  0.168439204  0.674956312
     0.666465647  0.833533003  0.006709183
     0.662456585  0.831295905  0.327666546
     0.167218290  0.995310950  0.993043652
     0.166794969  0.662586474  0.326065547
     0.498747147  0.003098581  0.669271299
     0.499536212  0.334204440  0.340697816
     0.497574882  0.331562463  0.661764495
     0.832951497  0.005016710  0.331331582
     0.832433350  0.341516654  0.001424591
     0.834244699  0.655877739  0.997685186
     0.833788588  0.665702139  0.670424212
     0.004401848  0.997776745  0.166211064
     0.993791584  0.336332275  0.500706217
     0.001659704  0.653543063  0.501001809
     0.332566223  0.004808077  0.165776458
     0.333694388  0.327857876  0.166184488
     0.331547538  0.659303130  0.501266688
     0.666322835  0.003012630  0.499553908
     0.679524156  0.331602014  0.498955089
     0.660954430  0.665608574  0.834355154
     0.005393672  0.171202103  0.332371634
     0.994046862  0.169347810  0.672244975
     0.012806615  0.499010679  0.001417934
     0.992875569  0.497148428  0.324120465
     0.005025275  0.496897886  0.676019329
     0.993217776  0.830630537  0.994490795
     0.333872393  0.168224236  0.991855693
     0.327114157  0.169290752  0.342084099
     0.325791012  0.169016287  0.665763610
     0.333597707  0.499180580  0.327152883
     0.330381766  0.498882436  0.676412855
     0.340126275  0.830783547  0.998094336
     0.668798160  0.167424710  0.993999461
     0.666451287  0.169273530  0.324309050
     0.654175788  0.498433788  0.004559730
     0.672199751  0.499923834  0.330182771
     0.665335856  0.498858962  0.665066627
     0.665699329  0.832971605  0.665274348
     0.166485106  0.005712798  0.340808811
     0.165736856  0.011441529  0.671032672
     0.167102700  0.331273905  0.996731189
     0.164956302  0.339422552  0.336098480
     0.164924789  0.331191666  0.667480426
     0.166976287  0.673706803  0.002420797
     0.166905819  0.658467262  0.676136933
     0.500456679  0.004298124  0.993291563
     0.499730199  0.011142992  0.333470181
     0.501337974  0.328537544  0.996142792
     0.498562347  0.666152522  0.004389649
     0.500417530  0.656397989  0.330507990
     0.500690619  0.663920359  0.665423750
     0.831518495  0.000471098  0.001086178
     0.835061025  0.995121811  0.667246988
     0.835135326  0.329483512  0.320171793
     0.836190659  0.342216088  0.678776283
     0.831615258  0.662452265  0.329650465
     0.001770087  0.014642402  0.502931012
     0.993580350  0.999224106  0.832490807
     0.007541791  0.333887224  0.168038082
     0.004006817  0.336154931  0.832115739
     0.997731572  0.667191025  0.164444057
     0.007172610  0.663635276  0.834823613
     0.331219838  0.007690020  0.500037981
     0.334458237  0.002350341  0.834044545
     0.321959425  0.340571951  0.501156092
     0.331553264  0.330743832  0.833521921
     0.337508930  0.668253176  0.164533162
     0.336542392  0.667793381  0.834893074
     0.659959280  0.009160641  0.163794569
     0.671883768  0.994421334  0.834442696
     0.662044710  0.332377224  0.165215836
     0.664608911  0.342427805  0.834834782
     0.664798430  0.658413903  0.165578170
     0.664585389  0.664400305  0.498945300

  ion indices of the primitive-cell ions
   primitive index   ion index
                 1           1
                 2           2
                 3           3
                 4           4
                 5           5
                 6           6
                 7           7
                 8           8
                 9           9
                10          10
                11          11
                12          12
                13          13
                14          14
                15          15
                16          16
                17          17
                18          18
                19          19
                20          20
                21          21
                22          22
                23          23
                24          24
                25          25
                26          26
                27          27
                28          28
                29          29
                30          30
                31          31
                32          32
                33          33
                34          34
                35          35
                36          36
                37          37
                38          38
                39          39
                40          40
                41          41
                42          42
                43          43
                44          44
                45          45
                46          46
                47          47
                48          48
                49          49
                50          50
                51          51
                52          52
                53          53
                54          54
                55          55
                56          56
                57          57
                58          58
                59          59
                60          60
                61          61
                62          62
                63          63
                64          64
                65          65
                66          66
                67          67
                68          68
                69          69
                70          70
                71          71
                72          72
                73          73
                74          74
                75          75
                76          76
                77          77
                78          78
                79          79
                80          80
                81          81
                82          82
                83          83
                84          84
                85          85
                86          86
                87          87
                88          88
                89          89
                90          90
                91          91
                92          92
                93          93
                94          94
                95          95
                96          96
                97          97
                98          98
                99          99
               100         100
               101         101
               102         102
               103         103
               104         104
               105         105
               106         106
               107         107
               108         108

----------------------------------------------------------------------------------------

 
 
 KPOINTS: Title                                   

Automatic generation of k-mesh.
 Grid dimensions read from file:
 generate k-points for:    3    3    3

 Generating k-lattice:

  Cartesian coordinates                     Fractional coordinates (reciprocal lattice)
     0.028764325 -0.000005807  0.000001280     0.333333333  0.000000000  0.000000000
    -0.000005799  0.028752342 -0.000003876    -0.000000000  0.333333333 -0.000000000
     0.000001282 -0.000003889  0.028761056    -0.000000000  0.000000000  0.333333333

  Length of vectors
     0.028764326  0.028752343  0.028761056

  Shift w.r.t. Gamma in fractional coordinates (k-lattice)
     0.000000000  0.000000000  0.000000000

 
 Subroutine IBZKPT returns following result:
 ===========================================
 
 Found     14 irreducible k-points:
 
 Following reciprocal coordinates:
            Coordinates               Weight
  0.000000  0.000000  0.000000      1.000000
  0.333333  0.000000 -0.000000      2.000000
  0.000000  0.333333 -0.000000      2.000000
  0.333333  0.333333  0.000000      2.000000
 -0.333333  0.333333 -0.000000      2.000000
  0.000000  0.000000  0.333333      2.000000
  0.333333 -0.000000  0.333333      2.000000
 -0.333333 -0.000000  0.333333      2.000000
 -0.000000  0.333333  0.333333      2.000000
  0.333333  0.333333  0.333333      2.000000
 -0.333333  0.333333  0.333333      2.000000
 -0.000000 -0.333333  0.333333      2.000000
  0.333333 -0.333333  0.333333      2.000000
 -0.333333 -0.333333  0.333333      2.000000
 
 Following cartesian coordinates:
            Coordinates               Weight
  0.000000  0.000000  0.000000      1.000000
  0.028764 -0.000006  0.000001      2.000000
 -0.000006  0.028752 -0.000004      2.000000
  0.028759  0.028747 -0.000003      2.000000
 -0.028770  0.028758 -0.000005      2.000000
  0.000001 -0.000004  0.028761      2.000000
  0.028766 -0.000010  0.028762      2.000000
 -0.028763  0.000002  0.028760      2.000000
 -0.000005  0.028748  0.028757      2.000000
  0.028760  0.028743  0.028758      2.000000
 -0.028769  0.028754  0.028756      2.000000
  0.000007 -0.028756  0.028765      2.000000
  0.028771 -0.028762  0.028766      2.000000
 -0.028757 -0.028750  0.028764      2.000000
 


--------------------------------------------------------------------------------------------------------




 Dimension of arrays:
   k-points           NKPTS =     14   k-points in BZ     NKDIM =     14   number of bands    NBANDS=    540
   number of dos      NEDOS =   3001   number of ions     NIONS =    108
   non local maximal  LDIM  =      6   non local SUM 2l+1 LMDIM =     18
   total plane-waves  NPLWV = ******
   max r-space proj   IRMAX =   8911   max aug-charges    IRDMAX= 199652
   dimension x,y,z NGX =   100 NGY =  100 NGZ =  100
   dimension x,y,z NGXF=   200 NGYF=  200 NGZF=  200
   support grid    NGXF=   400 NGYF=  400 NGZF=  400
   ions per type =              27  27  54
   NGX,Y,Z   is equivalent  to a cutoff of  14.35, 14.34, 14.34 a.u.
   NGXF,Y,Z  is equivalent  to a cutoff of  28.69, 28.68, 28.69 a.u.

 SYSTEM =  LTO                                     
 POSCAR =  Ti27 O27 F54                            

 Startparameter for this run:
   NWRITE =      2    write-flag & timer
   PREC   = accura    normal or accurate (medium, high low for compatibility)
   ISTART =      0    job   : 0-new  1-cont  2-samecut
   ICHARG =      2    charge: 1-file 2-atom 10-const
   ISPIN  =      2    spin polarized calculation?
   LNONCOLLINEAR =      F non collinear calculations
   LSORBIT =      F    spin-orbit coupling
   INIWAV =      1    electr: 0-lowe 1-rand  2-diag
   LASPH  =      T    aspherical Exc in radial PAW
 Electronic Relaxation 1
   ENCUT  =  700.0 eV  51.45 Ry    7.17 a.u.  25.00 25.01 25.00*2*pi/ulx,y,z
   ENINI  =  700.0     initial cutoff
   ENAUG  =  613.6 eV  augmentation charge cutoff
   NELM   =     60;   NELMIN=  2; NELMDL=  0     # of ELM steps 
   EDIFF  = 0.1E-05   stopping-criterion for ELM
   LREAL  =      T    real-space projection
   NLSPLINE    = F    spline interpolate recip. space projectors
   LCOMPAT=      F    compatible to vasp.4.4
   GGA_COMPAT  = T    GGA compatible to vasp.4.4-vasp.4.6
   LMAXPAW     = -100 max onsite density
   LMAXMIX     =    4 max onsite mixed and CHGCAR
   VOSKOWN=      0    Vosko Wilk Nusair interpolation
   ROPT   =   -0.00010  -0.00010  -0.00010
 Ionic relaxation
   EDIFFG = -.1E-01   stopping-criterion for IOM
   NSW    =    100    number of steps for IOM
   NBLOCK =      1;   KBLOCK =    100    inner block; outer block 
   IBRION =      1    ionic relax: 0-MD 1-quasi-New 2-CG
   NFREE  =      0    steps in history (QN), initial steepest desc. (CG)
   ISIF   =      3    stress and relaxation
   IWAVPR =     11    prediction:  0-non 1-charg 2-wave 3-comb
   ISYM   =      0    0-nonsym 1-usesym 2-fastsym
   LCORR  =      T    Harris-Foulkes like correction to forces

   POTIM  = 0.5000    time-step for ionic-motion
   TEIN   =    0.0    initial temperature
   TEBEG  =    0.0;   TEEND  =   0.0 temperature during run
   SMASS  =  -3.00    Nose mass-parameter (am)
   estimated Nose-frequenzy (Omega)   =  0.10E-29 period in steps = 0.13E+47 mass=  -0.307E-26a.u.
   SCALEE = 1.0000    scale energy and forces
   NPACO  =    256;   APACO  = 10.0  distance and # of slots for P.C.
   PSTRESS=    0.0 pullay stress

  Mass of Ions in am
   POMASS =  47.88 16.00 19.00
  Ionic Valenz
   ZVAL   =  10.00  6.00  7.00
  Atomic Wigner-Seitz radii
   RWIGS  =  -1.00 -1.00 -1.00
  virtual crystal weights 
   VCA    =   1.00  1.00  1.00
   NELECT =     810.0000    total number of electrons
   NUPDOWN=      -1.0000    fix difference up-down

 DOS related values:
   EMIN   =  10.00;   EMAX   =-10.00  energy-range for DOS
   EFERMI =   0.00
   ISMEAR =     0;   SIGMA  =   0.01  broadening in eV -4-tet -1-fermi 0-gaus

 Electronic relaxation 2 (details)
   IALGO  =     38    algorithm
   LDIAG  =      T    sub-space diagonalisation (order eigenvalues)
   LSUBROT=      F    optimize rotation matrix (better conditioning)
   TURBO    =      0    0=normal 1=particle mesh
   IRESTART =      0    0=no restart 2=restart with 2 vectors
   NREBOOT  =      0    no. of reboots
   NMIN     =      0    reboot dimension
   EREF     =   0.00    reference energy to select bands
   IMIX   =      4    mixing-type and parameters
     AMIX     =   0.40;   BMIX     =  1.00
     AMIX_MAG =   1.60;   BMIX_MAG =  1.00
     AMIN     =   0.10
     WC   =   100.;   INIMIX=   1;  MIXPRE=   1;  MAXMIX= -45

 Intra band minimization:
   WEIMIN = 0.0010     energy-eigenvalue tresh-hold
   EBREAK =  0.46E-09  absolut break condition
   DEPER  =   0.30     relativ break condition  

   TIME   =   0.40     timestep for ELM

  volume/ion in A,a.u.               =      14.42        97.29
  Fermi-wavevector in a.u.,A,eV,Ry     =   1.316644  2.488097 23.586414  1.733552
  Thomas-Fermi vector in A             =   2.446742
 
 Write flags
   LWAVE        =      T    write WAVECAR
   LDOWNSAMPLE  =      F    k-point downsampling of WAVECAR
   LCHARG       =      T    write CHGCAR
   LVTOT        =      F    write LOCPOT, total local potential
   LVHAR        =      F    write LOCPOT, Hartree potential only
   LELF         =      F    write electronic localiz. function (ELF)
   LORBIT       =     11    0 simple, 1 ext, 2 COOP (PROOUT), +10 PAW based schemes


 Dipole corrections
   LMONO  =      F    monopole corrections only (constant potential shift)
   LDIPOL =      F    correct potential (dipole corrections)
   IDIPOL =      0    1-x, 2-y, 3-z, 4-all directions 
   EPSILON=  1.0000000 bulk dielectric constant

 LDA+U is selected, type is set to LDAUTYPE =  2
   angular momentum for each species LDAUL =     2   -1   -1
   U (eV)           for each species LDAUU =   4.2  0.0  0.0
   J (eV)           for each species LDAUJ =   0.0  0.0  0.0
 Exchange correlation treatment:
   GGA     =    PS    GGA type
   LEXCH   =    14    internal setting for exchange type
   LIBXC   =     F    Libxc                    
   VOSKOWN =     0    Vosko Wilk Nusair interpolation
   LHFCALC =     F    Hartree Fock is set to
   LHFONE  =     F    Hartree Fock one center treatment
   AEXX    =    0.0000 exact exchange contribution

 Linear response parameters
   LEPSILON=     F    determine dielectric tensor
   LRPA    =     F    only Hartree local field effects (RPA)
   LNABLA  =     F    use nabla operator in PAW spheres
   LVEL    =     F    velocity operator in full k-point grid
   CSHIFT  =0.1000    complex shift for real part using Kramers Kronig
   OMEGAMAX=  -1.0    maximum frequency
   DEG_THRESHOLD= 0.2000000E-02 threshold for treating states as degnerate
   RTIME   =   -0.100 relaxation time in fs
  (WPLASMAI=    0.000 imaginary part of plasma frequency in eV, 0.658/RTIME)
   DFIELD  = 0.0000000 0.0000000 0.0000000 field for delta impulse in time
 
  Optional k-point grid parameters
   LKPOINTS_OPT  =     F    use optional k-point grid
   KPOINTS_OPT_MODE=     1    mode for optional k-point grid
 
 Orbital magnetization related:
   ORBITALMAG=     F  switch on orbital magnetization
   LCHIMAG   =     F  perturbation theory with respect to B field
   DQ        =  0.001000  dq finite difference perturbation B field
   LLRAUG    =     F  two centre corrections for induced B field



--------------------------------------------------------------------------------------------------------


 quasi-Newton-method for relaxation of ions
 charge density and potential will be updated during run
 spin polarized calculation
 Variant of blocked Davidson
 Davidson routine will perform the subspace rotation
 perform sub-space diagonalisation
    after iterative eigenvector-optimisation
 modified Broyden-mixing scheme, WC =      100.0
 initial mixing is a Kerker type mixing with AMIX =  0.4000 and BMIX =      1.0000
 Hartree-type preconditioning will be used
 using additional bands          135
 real space projection scheme for non local part
 use partial core corrections
 calculate Harris-corrections to forces 
   (improved forces if not selfconsistent)
 use gradient corrections 
 use of overlap-Matrix (Vanderbilt PP)
 Gauss-broadening in eV      SIGMA  =   0.01


--------------------------------------------------------------------------------------------------------


  energy-cutoff  :      700.00
  volume of cell :     1557.06
      direct lattice vectors                 reciprocal lattice vectors
    11.588429223  0.002337061 -0.000516260     0.086292976 -0.000017421  0.000003840
     0.002340403 11.593259200  0.001567480    -0.000017396  0.086257026 -0.000011629
    -0.000515413  0.001562380 11.589746224     0.000003846 -0.000011667  0.086283168

  length of vectors
    11.588429470 11.593259542 11.589746341     0.086292978  0.086257028  0.086283169


 
 k-points in units of 2pi/SCALE and weight: Title                                   
   0.00000000  0.00000000  0.00000000       0.037
   0.02876433 -0.00000581  0.00000128       0.074
  -0.00000580  0.02875234 -0.00000388       0.074
   0.02875853  0.02874653 -0.00000260       0.074
  -0.02877012  0.02875815 -0.00000516       0.074
   0.00000128 -0.00000389  0.02876106       0.074
   0.02876561 -0.00000970  0.02876234       0.074
  -0.02876304  0.00000192  0.02875978       0.074
  -0.00000452  0.02874845  0.02875718       0.074
   0.02875981  0.02874265  0.02875846       0.074
  -0.02876884  0.02875426  0.02875590       0.074
   0.00000708 -0.02875623  0.02876493       0.074
   0.02877141 -0.02876204  0.02876621       0.074
  -0.02875724 -0.02875042  0.02876365       0.074
 
 k-points in reciprocal lattice and weights: Title                                   
   0.00000000  0.00000000  0.00000000       0.037
   0.33333333  0.00000000 -0.00000000       0.074
   0.00000000  0.33333333 -0.00000000       0.074
   0.33333333  0.33333333  0.00000000       0.074
  -0.33333333  0.33333333 -0.00000000       0.074
   0.00000000  0.00000000  0.33333333       0.074
   0.33333333 -0.00000000  0.33333333       0.074
  -0.33333333 -0.00000000  0.33333333       0.074
  -0.00000000  0.33333333  0.33333333       0.074
   0.33333333  0.33333333  0.33333333       0.074
  -0.33333333  0.33333333  0.33333333       0.074
  -0.00000000 -0.33333333  0.33333333       0.074
   0.33333333 -0.33333333  0.33333333       0.074
  -0.33333333 -0.33333333  0.33333333       0.074
 
 position of ions in fractional coordinates (direct lattice) 
   0.00936736  0.00595810  0.01156437
   0.99097060  0.98942904  0.32520831
   0.00125883  0.98622203  0.66701694
   0.99357462  0.32026179  0.99993239
   0.99969099  0.33436796  0.34254720
   0.00027521  0.33304051  0.65783487
   0.98661422  0.66379486  0.99907899
   0.01003797  0.67692020  0.34295030
   0.99313929  0.67203550  0.65462349
   0.32146344  0.99896457  0.00936247
   0.33343945  0.98993535  0.32411069
   0.34454305  0.99061327  0.66674563
   0.33471384  0.33950878  0.01133384
   0.34469295  0.33337146  0.32534857
   0.34635247  0.33372372  0.66711533
   0.33227703  0.65470482  0.99978549
   0.32190463  0.67567432  0.34221579
   0.33324761  0.67694851  0.65462866
   0.66574152  0.98628947  0.99989445
   0.67719630  0.99549853  0.34283172
   0.65792375  0.00968837  0.65606092
   0.67917726  0.33333764  0.00023535
   0.65804495  0.33457340  0.34563249
   0.66152142  0.32183483  0.65787643
   0.67258436  0.67249342  0.98950053
   0.66544628  0.67974400  0.33169441
   0.67830401  0.66588038  0.67656044
   0.99687090  0.16840903  0.99817303
   0.99901532  0.83336163  0.34200002
   0.00826104  0.83481025  0.66165565
   0.33196975  0.50016909  0.99939368
   0.33749687  0.83524779  0.33497066
   0.32818596  0.83394730  0.66493663
   0.67438315  0.16843920  0.67495631
   0.66646565  0.83353300  0.00670918
   0.66245659  0.83129591  0.32766655
   0.16721829  0.99531095  0.99304365
   0.16679497  0.66258647  0.32606555
   0.49874715  0.00309858  0.66927130
   0.49953621  0.33420444  0.34069782
   0.49757488  0.33156246  0.66176449
   0.83295150  0.00501671  0.33133158
   0.83243335  0.34151665  0.00142459
   0.83424470  0.65587774  0.99768519
   0.83378859  0.66570214  0.67042421
   0.00440185  0.99777674  0.16621106
   0.99379158  0.33633227  0.50070622
   0.00165970  0.65354306  0.50100181
   0.33256622  0.00480808  0.16577646
   0.33369439  0.32785788  0.16618449
   0.33154754  0.65930313  0.50126669
   0.66632283  0.00301263  0.49955391
   0.67952416  0.33160201  0.49895509
   0.66095443  0.66560857  0.83435515
   0.00539367  0.17120210  0.33237163
   0.99404686  0.16934781  0.67224497
   0.01280661  0.49901068  0.00141793
   0.99287557  0.49714843  0.32412046
   0.00502527  0.49689789  0.67601933
   0.99321778  0.83063054  0.99449080
   0.33387239  0.16822424  0.99185569
   0.32711416  0.16929075  0.34208410
   0.32579101  0.16901629  0.66576361
   0.33359771  0.49918058  0.32715288
   0.33038177  0.49888244  0.67641286
   0.34012627  0.83078355  0.99809434
   0.66879816  0.16742471  0.99399946
   0.66645129  0.16927353  0.32430905
   0.65417579  0.49843379  0.00455973
   0.67219975  0.49992383  0.33018277
   0.66533586  0.49885896  0.66506663
   0.66569933  0.83297160  0.66527435
   0.16648511  0.00571280  0.34080881
   0.16573686  0.01144153  0.67103267
   0.16710270  0.33127391  0.99673119
   0.16495630  0.33942255  0.33609848
   0.16492479  0.33119167  0.66748043
   0.16697629  0.67370680  0.00242080
   0.16690582  0.65846726  0.67613693
   0.50045668  0.00429812  0.99329156
   0.49973020  0.01114299  0.33347018
   0.50133797  0.32853754  0.99614279
   0.49856235  0.66615252  0.00438965
   0.50041753  0.65639799  0.33050799
   0.50069062  0.66392036  0.66542375
   0.83151850  0.00047110  0.00108618
   0.83506102  0.99512181  0.66724699
   0.83513533  0.32948351  0.32017179
   0.83619066  0.34221609  0.67877628
   0.83161526  0.66245226  0.32965046
   0.00177009  0.01464240  0.50293101
   0.99358035  0.99922411  0.83249081
   0.00754179  0.33388722  0.16803808
   0.00400682  0.33615493  0.83211574
   0.99773157  0.66719102  0.16444406
   0.00717261  0.66363528  0.83482361
   0.33121984  0.00769002  0.50003798
   0.33445824  0.00235034  0.83404454
   0.32195943  0.34057195  0.50115609
   0.33155326  0.33074383  0.83352192
   0.33750893  0.66825318  0.16453316
   0.33654239  0.66779338  0.83489307
   0.65995928  0.00916064  0.16379457
   0.67188377  0.99442133  0.83444270
   0.66204471  0.33237722  0.16521584
   0.66460891  0.34242780  0.83483478
   0.66479843  0.65841390  0.16557817
   0.66458539  0.66440030  0.49894530
 
 position of ions in cartesian coordinates  (Angst):
   0.10856103  0.06911371  0.13403265
  11.48594069 11.47353143  3.77012104
   0.01655228 11.43457267  7.73210235
  11.51420336  3.71676231 11.58895169
  11.58545430  3.87928600  3.97004308
   0.00362963  3.86205343  7.62466104
  11.43434769  7.69941264 11.57960306
   0.11773177  7.84827061  3.97576283
  11.51015980  7.79442556  7.58746076
   3.72758952 11.58202113  0.10990855
   3.86618929 11.47786281  3.75774022
   3.99468755 11.48628337  7.72878757
   3.87959637  3.93681324  0.13171574
   3.99506241  3.86617563  3.77105200
   4.01411833  3.87079728  7.73204173
   3.85158584  7.59250133 11.58811483
   3.73177400  7.83455453  3.96708710
   3.86306326  7.84984113  7.58786908
   7.71669143 11.43742754 11.58972517
   7.84979453 11.54319076  3.97454347
   7.62398734  0.11488236  7.60325504
   7.87137762  3.86605730  0.00289955
   7.62631222  3.88087408  4.00597754
   7.66640828  3.73368853  7.62478386
   7.79526013  7.79950841 11.46876696
   7.71289701  7.88252184  3.84497598
   7.86168775  7.72236617  7.84185740
  11.55204753  1.95629879 11.56832138
  11.57879243  9.66424644  3.96448391
   0.09734521  9.67922466  7.66972534
   3.84766345  5.80092721 11.58333179
   3.91284072  9.68455623  3.88335990
   3.80476881  9.66997308  7.70758455
   7.81508774  1.95538996  7.82248823
   7.72523733  9.66493221  0.07872021
   7.67860794  9.63948904  3.79853316
   1.93961492 11.54084014 11.51059771
   1.93427436  7.68243599  3.77996942
   5.77935832  0.03813391  7.75643188
   5.78944661  3.87621845  3.94886720
   5.76654621  3.84608636  7.66994540
   9.65244043  0.06062434  3.83962679
   9.64739352  3.96123877  0.01661621
   9.66860645  7.60726907 11.56351550
   9.66351250  7.72065352  7.77065951
   0.05326003 11.56775440  1.92790577
  11.51701252  3.90229208  5.80307213
   0.02050470  7.57748076  5.80750739
   3.85384595  0.05677751  1.92114293
   3.86767546  3.80198084  1.92637768
   3.84339985  7.64503009  5.81041599
   7.72138458  0.03726393  5.78936375
   7.87513650  3.84671574  5.78293183
   7.66055139  7.71942100  9.67066660
   0.06273356  1.98532225  3.85236846
  11.51949157  1.96666651  7.79090092
   0.14957570  5.78519229  0.01720908
  11.50686473  5.76639739  3.75674062
   0.05904955  5.76173393  7.83566875
  11.51126534  9.63359009 11.52668518
   3.86893910  1.95259710 11.49544709
   3.79095915  1.96393051  3.96476438
   3.77545851  1.96125120  7.71612802
   3.86687308  5.78842062  3.79222912
   3.82942466  5.78550232  7.84006476
   3.94295920  9.63384330 11.56878671
   7.75019967  1.94411409 11.52011866
   7.72335258  1.96449613  3.75858085
   7.58203400  5.78000807  0.05328967
   7.79073908  5.79783343  3.82717111
   7.71102222  5.78599527  7.70839189
   7.71601616  9.65945091  7.71132286
   1.92913858  0.06715150  3.94981063
   1.92031075  0.13408035  7.77703074
   1.93671939  3.84249205 11.55229453
   1.91220559  3.93592425  3.89574297
   1.91165034  3.84101913  7.73636274
   1.93656839  7.81085161  0.02902624
   1.93536885  7.63522809  7.83720144
   5.79900491  0.05255076 11.51174551
   5.79094225  0.13087250  3.86459425
   5.80997511  3.81154891 11.54529832
   5.77911128  7.72405089  0.05166171
   5.80041901  7.61147791  3.83127427
   5.80342868  7.69921059  7.71287459
   9.63599377  0.00740657  0.01215998
   9.67903066 11.53969917  7.73435199
   9.67851272  3.82223975  3.71079514
   9.69058735  3.97041454  7.86694958
   9.63849506  7.68243939  3.82117428
   0.02028759  0.17054307  5.82886483
  11.51594507 11.58788678  9.64941051
   0.08809233  3.87112129  1.94803819
   0.04679057  3.89844069  9.64453509
  11.56361844  7.73750717  1.90639560
   0.08424218  7.69501685  9.67643034
   3.83807792  0.09070772  5.79515435
   3.87542124  0.02933285  9.66619563
   3.73154278  3.94987434  5.80863955
   3.84252599  3.83647611  9.66065480
   3.91267753  7.74827812  1.90777082
   3.90113028  7.74399270  9.67707186
   7.64782842  0.10799996  1.89801113
   7.78797476 11.53145823  9.67219095
   7.67275100  3.85514068  1.91498882
   7.70214446  3.97271186  9.67571690
   7.70542516  7.63497541  1.91969781
   7.70279855  7.70489766  5.78334774
 


--------------------------------------------------------------------------------------------------------


 k-point   1 :   0.0000 0.0000 0.0000  plane waves:   65237
 k-point   2 :   0.3333 0.0000-0.0000  plane waves:   65428
 k-point   3 :   0.0000 0.3333-0.0000  plane waves:   65441
 k-point   4 :   0.3333 0.3333 0.0000  plane waves:   65464
 k-point   5 :  -0.3333 0.3333-0.0000  plane waves:   65469
 k-point   6 :   0.0000 0.0000 0.3333  plane waves:   65428
 k-point   7 :   0.3333-0.0000 0.3333  plane waves:   65469
 k-point   8 :  -0.3333-0.0000 0.3333  plane waves:   65468
 k-point   9 :  -0.0000 0.3333 0.3333  plane waves:   65467
 k-point  10 :   0.3333 0.3333 0.3333  plane waves:   65534
 k-point  11 :  -0.3333 0.3333 0.3333  plane waves:   65536
 k-point  12 :  -0.0000-0.3333 0.3333  plane waves:   65468
 k-point  13 :   0.3333-0.3333 0.3333  plane waves:   65533
 k-point  14 :  -0.3333-0.3333 0.3333  plane waves:   65533

 maximum and minimum number of plane-waves per node :      8221     8132

 maximum number of plane-waves:     65536
 maximum index in each direction: 
   IXMAX=   25   IYMAX=   25   IZMAX=   25
   IXMIN=  -25   IYMIN=  -25   IZMIN=  -25


 real space projection operators:
  total allocation   :      54066.73 KBytes
  max/ min on nodes  :       7374.91       6142.80


 parallel 3D FFT for wavefunctions:
    minimum data exchange during FFTs selected (reduces bandwidth)
 parallel 3D FFT for charge:
    minimum data exchange during FFTs selected (reduces bandwidth)


 total amount of memory used by VASP MPI-rank0   297948. kBytes
=======================================================================

   base      :      30000. kBytes
   nonlr-proj:      25307. kBytes
   fftplans  :      18873. kBytes
   grid      :      21088. kBytes
   one-center:        435. kBytes
   wavefun   :     202245. kBytes
 
     INWAV:  cpu time      0.0000: real time      0.0000
 Broyden mixing: mesh for mixing (old mesh)
   NGX = 49   NGY = 51   NGZ = 51
  (NGX  =200   NGY  =200   NGZ  =200)
  gives a total of 127449 points

 initial charge density was supplied:
 charge density of overlapping atoms calculated
 number of electron     810.0000000 magnetization     108.0000000
 keeping initial charge density in first step


--------------------------------------------------------------------------------------------------------


 Maximum index for non-local projection operator         1370
 Maximum index for augmentation-charges         4050 (set IRDMAX)


--------------------------------------------------------------------------------------------------------


 First call to EWALD:  gamma=   0.153
 Maximum number of real-space cells 3x 3x 3
 Maximum number of reciprocal cells 3x 3x 3

    FEWALD:  cpu time      0.0058: real time      0.0058


--------------------------------------- Iteration      1(   1)  ---------------------------------------


    POTLOK:  cpu time      0.1622: real time      0.1777
    SETDIJ:  cpu time      0.8949: real time      0.8974
     EDDAV:  cpu time     89.8409: real time     90.0728
       DOS:  cpu time      0.0078: real time      0.0080
    --------------------------------------------
      LOOP:  cpu time     90.9058: real time     91.1558

 eigenvalue-minimisations  : 30240
 total energy-change (2. order) : 0.1320051E+05  (-0.4642799E+05)
 number of electron     810.0000000 magnetization     108.0000000
 augmentation part      810.0000000 magnetization     108.0000000

 Free energy of the ion-electron system (eV)
  ---------------------------------------------------
  alpha Z        PSCENC =      2561.63730721
  Ewald energy   TEWEN  =    -43276.43921423
  -Hartree energ DENC   =    -27734.23101399
  -exchange      EXHF   =         0.00000000
  -V(xc)+E(xc)   XCENC  =      3762.42997937
  PAW double counting   =     55010.87535266   -55252.78449702
  entropy T*S    EENTRO =        -0.00221149
  eigenvalues    EBANDS =      2858.58037729
  atomic energy  EATOM  =     75270.44210491
  Solvation  Ediel_sol  =         0.00000000
  ---------------------------------------------------
  free energy    TOTEN  =     13200.50818470 eV

  energy without entropy =    13200.51039619  energy(sigma->0) =    13200.50929045


--------------------------------------------------------------------------------------------------------




--------------------------------------- Iteration      1(   2)  ---------------------------------------


     EDDAV:  cpu time     90.5359: real time     90.7776
       DOS:  cpu time      0.0047: real time      0.0047
    --------------------------------------------
      LOOP:  cpu time     90.5406: real time     90.7823

 eigenvalue-minimisations  : 30290
 total energy-change (2. order) :-0.1155595E+05  (-0.1081505E+05)
 number of electron     810.0000000 magnetization     108.0000000
 augmentation part      810.0000000 magnetization     108.0000000

 Free energy of the ion-electron system (eV)
  ---------------------------------------------------
  alpha Z        PSCENC =      2561.63730721
  Ewald energy   TEWEN  =    -43276.43921423
  -Hartree energ DENC   =    -27734.23101399
  -exchange      EXHF   =         0.00000000
  -V(xc)+E(xc)   XCENC  =      3762.42997937
  PAW double counting   =     55010.87535266   -55252.78449702
  entropy T*S    EENTRO =        -0.00156256
  eigenvalues    EBANDS =     -8697.37409331
  atomic energy  EATOM  =     75270.44210491
  Solvation  Ediel_sol  =         0.00000000
  ---------------------------------------------------
  free energy    TOTEN  =      1644.55436303 eV

  energy without entropy =     1644.55592560  energy(sigma->0) =     1644.55514432


--------------------------------------------------------------------------------------------------------




--------------------------------------- Iteration      1(   3)  ---------------------------------------


     EDDAV:  cpu time     95.7564: real time     96.1215
       DOS:  cpu time      0.0062: real time      0.0062
    --------------------------------------------
      LOOP:  cpu time     95.7626: real time     96.1277

 eigenvalue-minimisations  : 32450
 total energy-change (2. order) :-0.2415741E+04  (-0.2269288E+04)
 number of electron     810.0000000 magnetization     108.0000000
 augmentation part      810.0000000 magnetization     108.0000000

 Free energy of the ion-electron system (eV)
  ---------------------------------------------------
  alpha Z        PSCENC =      2561.63730721
  Ewald energy   TEWEN  =    -43276.43921423
  -Hartree energ DENC   =    -27734.23101399
  -exchange      EXHF   =         0.00000000
  -V(xc)+E(xc)   XCENC  =      3762.42997937
  PAW double counting   =     55010.87535266   -55252.78449702
  entropy T*S    EENTRO =        -0.00000000
  eigenvalues    EBANDS =    -11113.11677373
  atomic energy  EATOM  =     75270.44210491
  Solvation  Ediel_sol  =         0.00000000
  ---------------------------------------------------
  free energy    TOTEN  =      -771.18675483 eV

  energy without entropy =     -771.18675483  energy(sigma->0) =     -771.18675483


--------------------------------------------------------------------------------------------------------




--------------------------------------- Iteration      1(   4)  ---------------------------------------


     EDDAV:  cpu time    106.5195: real time    106.9064
       DOS:  cpu time      0.0071: real time      0.0071
    --------------------------------------------
      LOOP:  cpu time    106.5266: real time    106.9136

 eigenvalue-minimisations  : 37390
 total energy-change (2. order) :-0.1523658E+03  (-0.1507100E+03)
 number of electron     810.0000000 magnetization     108.0000000
 augmentation part      810.0000000 magnetization     108.0000000

 Free energy of the ion-electron system (eV)
  ---------------------------------------------------
  alpha Z        PSCENC =      2561.63730721
  Ewald energy   TEWEN  =    -43276.43921423
  -Hartree energ DENC   =    -27734.23101399
  -exchange      EXHF   =         0.00000000
  -V(xc)+E(xc)   XCENC  =      3762.42997937
  PAW double counting   =     55010.87535266   -55252.78449702
  entropy T*S    EENTRO =        -0.00000000
  eigenvalues    EBANDS =    -11265.48260476
  atomic energy  EATOM  =     75270.44210491
  Solvation  Ediel_sol  =         0.00000000
  ---------------------------------------------------
  free energy    TOTEN  =      -923.55258586 eV

  energy without entropy =     -923.55258586  energy(sigma->0) =     -923.55258586


--------------------------------------------------------------------------------------------------------




--------------------------------------- Iteration      1(   5)  ---------------------------------------


     EDDAV:  cpu time    108.7588: real time    109.1311
       DOS:  cpu time      0.0037: real time      0.0037
    CHARGE:  cpu time      3.9050: real time      3.9148
    MIXING:  cpu time      0.0051: real time      0.0053
    --------------------------------------------
      LOOP:  cpu time    112.6727: real time    113.0550

 eigenvalue-minimisations  : 38300
 total energy-change (2. order) :-0.4870443E+01  (-0.4849641E+01)
 number of electron     810.0000011 magnetization      68.7672531
 augmentation part      205.6093231 magnetization      70.5151231

 Broyden mixing:
  rms(total) = 0.10947E+02    rms(broyden)= 0.10947E+02
  rms(prec ) = 0.13041E+02
  weight for this iteration     100.00

 Free energy of the ion-electron system (eV)
  ---------------------------------------------------
  alpha Z        PSCENC =      2561.63730721
  Ewald energy   TEWEN  =    -43276.43921423
  -Hartree energ DENC   =    -27734.23101399
  -exchange      EXHF   =         0.00000000
  -V(xc)+E(xc)   XCENC  =      3762.42997937
  PAW double counting   =     55010.87535266   -55252.78449702
  entropy T*S    EENTRO =        -0.00000000
  eigenvalues    EBANDS =    -11270.35304759
  atomic energy  EATOM  =     75270.44210491
  Solvation  Ediel_sol  =         0.00000000
  ---------------------------------------------------
  free energy    TOTEN  =      -928.42302869 eV

  energy without entropy =     -928.42302869  energy(sigma->0) =     -928.42302869


--------------------------------------------------------------------------------------------------------




--------------------------------------- Iteration      1(   6)  ---------------------------------------


    POTLOK:  cpu time      0.1566: real time      0.2396
    SETDIJ:  cpu time      0.8882: real time      0.8906
     EDDAV:  cpu time    112.4962: real time    112.7818
       DOS:  cpu time      0.0085: real time      0.0085
    CHARGE:  cpu time      3.9509: real time      3.9608
    MIXING:  cpu time      0.0066: real time      0.0069
    --------------------------------------------
      LOOP:  cpu time    117.5070: real time    117.8883

 eigenvalue-minimisations  : 40180
 total energy-change (2. order) : 0.4220365E+03  (-0.1148628E+03)
 number of electron     810.0000011 magnetization      47.1011127
 augmentation part      211.7665438 magnetization      41.6640508

 Broyden mixing:
  rms(total) = 0.32855E+01    rms(broyden)= 0.32848E+01
  rms(prec ) = 0.35890E+01
  weight for this iteration     100.00

 eigenvalues of (default mixing * dielectric matrix)
  average eigenvalue GAMMA=   0.8692
  0.8692

 Free energy of the ion-electron system (eV)
  ---------------------------------------------------
  alpha Z        PSCENC =      2561.63730721
  Ewald energy   TEWEN  =    -43276.43921423
  -Hartree energ DENC   =    -28140.71236671
  -exchange      EXHF   =         0.00000000
  -V(xc)+E(xc)   XCENC  =      3909.31116623
  PAW double counting   =     57654.74244688   -58027.71043827
  entropy T*S    EENTRO =        -0.00000000
  eigenvalues    EBANDS =    -10457.65758083
  atomic energy  EATOM  =     75270.44210491
  Solvation  Ediel_sol  =         0.00000000
  ---------------------------------------------------
  free energy    TOTEN  =      -506.38657482 eV

  energy without entropy =     -506.38657482  energy(sigma->0) =     -506.38657482


--------------------------------------------------------------------------------------------------------




--------------------------------------- Iteration      1(   7)  ---------------------------------------


    POTLOK:  cpu time      0.1628: real time      0.1687
    SETDIJ:  cpu time      0.9009: real time      0.9032
     EDDAV:  cpu time    108.6677: real time    108.9420
       DOS:  cpu time      0.0071: real time      0.0071
    CHARGE:  cpu time      3.9869: real time      3.9968
    MIXING:  cpu time      0.0056: real time      0.0056
    --------------------------------------------
      LOOP:  cpu time    113.7310: real time    114.0234

 eigenvalue-minimisations  : 38510
 total energy-change (2. order) :-0.9507862E+02  (-0.1932576E+02)
 number of electron     810.0000011 magnetization      26.4380899
 augmentation part      207.5012120 magnetization      22.5005922

 Broyden mixing:
  rms(total) = 0.19125E+01    rms(broyden)= 0.19125E+01
  rms(prec ) = 0.21305E+01
  weight for this iteration     100.00

 eigenvalues of (default mixing * dielectric matrix)
  average eigenvalue GAMMA=   0.9774
  1.1012  0.8535

 Free energy of the ion-electron system (eV)
  ---------------------------------------------------
  alpha Z        PSCENC =      2561.63730721
  Ewald energy   TEWEN  =    -43276.43921423
  -Hartree energ DENC   =    -28168.76020023
  -exchange      EXHF   =         0.00000000
  -V(xc)+E(xc)   XCENC  =      3859.90247540
  PAW double counting   =     59240.54982881   -59625.68087399
  entropy T*S    EENTRO =        -0.00000000
  eigenvalues    EBANDS =    -10463.11661881
  atomic energy  EATOM  =     75270.44210491
  Solvation  Ediel_sol  =         0.00000000
  ---------------------------------------------------
  free energy    TOTEN  =      -601.46519093 eV

  energy without entropy =     -601.46519093  energy(sigma->0) =     -601.46519093


--------------------------------------------------------------------------------------------------------




--------------------------------------- Iteration      1(   8)  ---------------------------------------


    POTLOK:  cpu time      0.1836: real time      0.3191
    SETDIJ:  cpu time      0.9073: real time      0.9096
     EDDAV:  cpu time    100.6875: real time    100.9411
       DOS:  cpu time      0.0043: real time      0.0043
    CHARGE:  cpu time      3.9334: real time      3.9431
    MIXING:  cpu time      0.0051: real time      0.0051
    --------------------------------------------
      LOOP:  cpu time    105.7211: real time    106.1222

 eigenvalue-minimisations  : 34730
 total energy-change (2. order) :-0.5562247E+02  (-0.4311701E+01)
 number of electron     810.0000011 magnetization      10.1674368
 augmentation part      209.6155859 magnetization       7.3972190

 Broyden mixing:
  rms(total) = 0.12413E+01    rms(broyden)= 0.12413E+01
  rms(prec ) = 0.13350E+01
  weight for this iteration     100.00

 eigenvalues of (default mixing * dielectric matrix)
  average eigenvalue GAMMA=   1.1717
  1.4137  1.4137  0.6876

 Free energy of the ion-electron system (eV)
  ---------------------------------------------------
  alpha Z        PSCENC =      2561.63730721
  Ewald energy   TEWEN  =    -43276.43921423
  -Hartree energ DENC   =    -28012.20622976
  -exchange      EXHF   =         0.00000000
  -V(xc)+E(xc)   XCENC  =      3823.47644146
  PAW double counting   =     60274.38234437   -60678.21091527
  entropy T*S    EENTRO =        -0.00000000
  eigenvalues    EBANDS =    -10620.16949522
  atomic energy  EATOM  =     75270.44210491
  Solvation  Ediel_sol  =         0.00000000
  ---------------------------------------------------
  free energy    TOTEN  =      -657.08765653 eV

  energy without entropy =     -657.08765653  energy(sigma->0) =     -657.08765653


--------------------------------------------------------------------------------------------------------




--------------------------------------- Iteration      1(   9)  ---------------------------------------


    POTLOK:  cpu time      0.1664: real time      0.1993
    SETDIJ:  cpu time      0.8931: real time      0.8954
     EDDAV:  cpu time    102.6370: real time    102.8965
       DOS:  cpu time      0.0124: real time      0.0124
    CHARGE:  cpu time      4.0215: real time      4.0314
    MIXING:  cpu time      0.0055: real time      0.0055
    --------------------------------------------
      LOOP:  cpu time    107.7359: real time    108.0405

 eigenvalue-minimisations  : 35800
 total energy-change (2. order) :-0.5299206E+02  (-0.7727148E+01)
 number of electron     810.0000011 magnetization       4.7609523
 augmentation part      208.6339659 magnetization       3.7937265

 Broyden mixing:
  rms(total) = 0.51838E+00    rms(broyden)= 0.51827E+00
  rms(prec ) = 0.63562E+00
  weight for this iteration     100.00

 eigenvalues of (default mixing * dielectric matrix)
  average eigenvalue GAMMA=   1.1617
  1.8469  1.4572  0.7576  0.5853

 Free energy of the ion-electron system (eV)
  ---------------------------------------------------
  alpha Z        PSCENC =      2561.63730721
  Ewald energy   TEWEN  =    -43276.43921423
  -Hartree energ DENC   =    -27869.65315184
  -exchange      EXHF   =         0.00000000
  -V(xc)+E(xc)   XCENC  =      3788.58491889
  PAW double counting   =     60910.19888394   -61319.10586826
  entropy T*S    EENTRO =        -0.00000000
  eigenvalues    EBANDS =    -10775.74469769
  atomic energy  EATOM  =     75270.44210491
  Solvation  Ediel_sol  =         0.00000000
  ---------------------------------------------------
  free energy    TOTEN  =      -710.07971708 eV

  energy without entropy =     -710.07971708  energy(sigma->0) =     -710.07971708


--------------------------------------------------------------------------------------------------------




--------------------------------------- Iteration      1(  10)  ---------------------------------------


    POTLOK:  cpu time      0.1767: real time      0.2078
    SETDIJ:  cpu time      0.9024: real time      0.9047
     EDDAV:  cpu time    106.2938: real time    106.5639
       DOS:  cpu time      0.0047: real time      0.0047
    CHARGE:  cpu time      3.9366: real time      3.9466
    MIXING:  cpu time      0.0053: real time      0.0054
    --------------------------------------------
      LOOP:  cpu time    111.3195: real time    111.6330

 eigenvalue-minimisations  : 37320
 total energy-change (2. order) :-0.8815519E+01  (-0.1377435E+01)
 number of electron     810.0000011 magnetization       1.8891531
 augmentation part      209.0926850 magnetization       1.5415894

 Broyden mixing:
  rms(total) = 0.19791E+00    rms(broyden)= 0.19785E+00
  rms(prec ) = 0.22538E+00
  weight for this iteration     100.00

 eigenvalues of (default mixing * dielectric matrix)
  average eigenvalue GAMMA=   1.2177
  2.1661  1.5970  0.9676  0.7689  0.5887

 Free energy of the ion-electron system (eV)
  ---------------------------------------------------
  alpha Z        PSCENC =      2561.63730721
  Ewald energy   TEWEN  =    -43276.43921423
  -Hartree energ DENC   =    -27828.99472472
  -exchange      EXHF   =         0.00000000
  -V(xc)+E(xc)   XCENC  =      3783.61010512
  PAW double counting   =     61031.72521802   -61445.78039547
  entropy T*S    EENTRO =        -0.00000000
  eigenvalues    EBANDS =    -10815.09563722
  atomic energy  EATOM  =     75270.44210491
  Solvation  Ediel_sol  =         0.00000000
  ---------------------------------------------------
  free energy    TOTEN  =      -718.89523639 eV

  energy without entropy =     -718.89523639  energy(sigma->0) =     -718.89523639


--------------------------------------------------------------------------------------------------------




--------------------------------------- Iteration      1(  11)  ---------------------------------------


    POTLOK:  cpu time      0.1888: real time      0.2338
    SETDIJ:  cpu time      0.9054: real time      0.9076
     EDDAV:  cpu time    102.4327: real time    102.6917
       DOS:  cpu time      0.0086: real time      0.0086
    CHARGE:  cpu time      3.8563: real time      3.8660
    MIXING:  cpu time      0.0046: real time      0.0047
    --------------------------------------------
      LOOP:  cpu time    107.3964: real time    107.7123

 eigenvalue-minimisations  : 35790
 total energy-change (2. order) :-0.2251440E+01  (-0.3817993E+00)
 number of electron     810.0000011 magnetization       0.5796344
 augmentation part      209.1108828 magnetization       0.4634146

 Broyden mixing:
  rms(total) = 0.97784E-01    rms(broyden)= 0.97755E-01
  rms(prec ) = 0.11861E+00
  weight for this iteration     100.00

 eigenvalues of (default mixing * dielectric matrix)
  average eigenvalue GAMMA=   1.2398
  2.5497  1.3887  1.3887  0.8023  0.7072  0.6021

 Free energy of the ion-electron system (eV)
  ---------------------------------------------------
  alpha Z        PSCENC =      2561.63730721
  Ewald energy   TEWEN  =    -43276.43921423
  -Hartree energ DENC   =    -27792.01582094
  -exchange      EXHF   =         0.00000000
  -V(xc)+E(xc)   XCENC  =      3781.31097951
  PAW double counting   =     60980.73196758   -61396.78885041
  entropy T*S    EENTRO =        -0.00000000
  eigenvalues    EBANDS =    -10850.02514967
  atomic energy  EATOM  =     75270.44210491
  Solvation  Ediel_sol  =         0.00000000
  ---------------------------------------------------
  free energy    TOTEN  =      -721.14667605 eV

  energy without entropy =     -721.14667605  energy(sigma->0) =     -721.14667605


--------------------------------------------------------------------------------------------------------




--------------------------------------- Iteration      1(  12)  ---------------------------------------


    POTLOK:  cpu time      0.2151: real time      0.3681
    SETDIJ:  cpu time      0.8861: real time      0.8882
     EDDAV:  cpu time     97.3341: real time     97.6311
       DOS:  cpu time      0.0140: real time      0.0140
    CHARGE:  cpu time      3.9952: real time      4.0056
    MIXING:  cpu time      0.0062: real time      0.0075
    --------------------------------------------
      LOOP:  cpu time    102.4507: real time    102.9145

 eigenvalue-minimisations  : 33340
 total energy-change (2. order) :-0.1666863E-01  (-0.2561951E-01)
 number of electron     810.0000011 magnetization       0.2676753
 augmentation part      209.1395857 magnetization       0.2310810

 Broyden mixing:
  rms(total) = 0.45032E-01    rms(broyden)= 0.45025E-01
  rms(prec ) = 0.56511E-01
  weight for this iteration     100.00

 eigenvalues of (default mixing * dielectric matrix)
  average eigenvalue GAMMA=   1.2209
  2.5385  1.5160  1.5160  0.5739  0.8361  0.8361  0.7300

 Free energy of the ion-electron system (eV)
  ---------------------------------------------------
  alpha Z        PSCENC =      2561.63730721
  Ewald energy   TEWEN  =    -43276.43921423
  -Hartree energ DENC   =    -27765.06934252
  -exchange      EXHF   =         0.00000000
  -V(xc)+E(xc)   XCENC  =      3780.27742709
  PAW double counting   =     60904.28756956   -61320.72559684
  entropy T*S    EENTRO =        -0.00000000
  eigenvalues    EBANDS =    -10875.57359985
  atomic energy  EATOM  =     75270.44210491
  Solvation  Ediel_sol  =         0.00000000
  ---------------------------------------------------
  free energy    TOTEN  =      -721.16334468 eV

  energy without entropy =     -721.16334468  energy(sigma->0) =     -721.16334468


--------------------------------------------------------------------------------------------------------




--------------------------------------- Iteration      1(  13)  ---------------------------------------


    POTLOK:  cpu time      0.1674: real time      0.1718
    SETDIJ:  cpu time      0.9101: real time      0.9124
     EDDAV:  cpu time     98.4934: real time     98.7414
       DOS:  cpu time      0.0050: real time      0.0050
    CHARGE:  cpu time      3.9332: real time      3.9429
    MIXING:  cpu time      0.0057: real time      0.0057
    --------------------------------------------
      LOOP:  cpu time    103.5147: real time    103.7791

 eigenvalue-minimisations  : 34130
 total energy-change (2. order) :-0.2836266E-02  (-0.5410499E-02)
 number of electron     810.0000011 magnetization       0.0132594
 augmentation part      209.1340688 magnetization      -0.0041823

 Broyden mixing:
  rms(total) = 0.22137E-01    rms(broyden)= 0.22135E-01
  rms(prec ) = 0.27750E-01
  weight for this iteration     100.00

 eigenvalues of (default mixing * dielectric matrix)
  average eigenvalue GAMMA=   1.2689
  2.6537  2.3611  1.1754  0.9593  0.9593  0.8088  0.5822  0.6515

 Free energy of the ion-electron system (eV)
  ---------------------------------------------------
  alpha Z        PSCENC =      2561.63730721
  Ewald energy   TEWEN  =    -43276.43921423
  -Hartree energ DENC   =    -27754.22513763
  -exchange      EXHF   =         0.00000000
  -V(xc)+E(xc)   XCENC  =      3779.85934680
  PAW double counting   =     60871.44348599   -61287.43911940
  entropy T*S    EENTRO =        -0.00000000
  eigenvalues    EBANDS =    -10886.44495460
  atomic energy  EATOM  =     75270.44210491
  Solvation  Ediel_sol  =         0.00000000
  ---------------------------------------------------
  free energy    TOTEN  =      -721.16618095 eV

  energy without entropy =     -721.16618095  energy(sigma->0) =     -721.16618095


--------------------------------------------------------------------------------------------------------




--------------------------------------- Iteration      1(  14)  ---------------------------------------


    POTLOK:  cpu time      0.1858: real time      0.2950
    SETDIJ:  cpu time      0.9085: real time      0.9108
     EDDAV:  cpu time     98.1385: real time     98.3874
       DOS:  cpu time      0.0111: real time      0.0111
    CHARGE:  cpu time      4.0035: real time      4.0133
    MIXING:  cpu time      0.0051: real time      0.0051
    --------------------------------------------
      LOOP:  cpu time    103.2526: real time    103.6228

 eigenvalue-minimisations  : 33730
 total energy-change (2. order) : 0.6870695E-02  (-0.1402438E-02)
 number of electron     810.0000011 magnetization       0.0026688
 augmentation part      209.1432302 magnetization      -0.0021769

 Broyden mixing:
  rms(total) = 0.78466E-02    rms(broyden)= 0.78450E-02
  rms(prec ) = 0.10204E-01
  weight for this iteration     100.00

[...]
      4.01412      3.87080      7.73204         0.000916      0.001419      0.002131
      3.85159      7.59250     11.58811         0.001921     -0.003794     -0.000770
      3.73177      7.83455      3.96709         0.000271      0.001591     -0.000719
      3.86306      7.84984      7.58787        -0.001089      0.002631      0.001257
      7.71669     11.43743     11.58973        -0.000808     -0.007851     -0.001483
      7.84979     11.54319      3.97454        -0.001346      0.001746      0.000630
      7.62399      0.11488      7.60326         0.002433      0.003534      0.001108
      7.87138      3.86606      0.00290         0.002243      0.001661      0.000165
      7.62631      3.88087      4.00598         0.003251      0.002525      0.000154
      7.66641      3.73369      7.62478         0.006354     -0.004118      0.000214
      7.79526      7.79951     11.46877        -0.001166     -0.003650      0.000665
      7.71290      7.88252      3.84498        -0.000566     -0.000926     -0.005456
      7.86169      7.72237      7.84186         0.002999     -0.000150      0.005655
     11.55205      1.95630     11.56832        -0.000345     -0.005061      0.001790
     11.57879      9.66425      3.96448        -0.001533      0.002463      0.008174
      0.09735      9.67922      7.66973         0.003170      0.003187     -0.004418
      3.84766      5.80093     11.58333        -0.001241     -0.000018      0.000064
      3.91284      9.68456      3.88336         0.000283      0.002128      0.001796
      3.80477      9.66997      7.70758        -0.000566      0.002208     -0.003044
      7.81509      1.95539      7.82249         0.002460      0.002419      0.002783
      7.72524      9.66493      0.07872        -0.000189      0.004490      0.001935
      7.67861      9.63949      3.79853        -0.001783      0.003731     -0.001308
      1.93961     11.54084     11.51060        -0.001671     -0.002897     -0.002216
      1.93427      7.68244      3.77997        -0.001043      0.002112     -0.002213
      5.77936      0.03813      7.75643        -0.002058      0.001364     -0.000372
      5.78945      3.87622      3.94887         0.000361      0.002165      0.004983
      5.76655      3.84609      7.66995        -0.002051     -0.000602     -0.002347
      9.65244      0.06062      3.83963        -0.000560      0.002168     -0.001451
      9.64739      3.96124      0.01662        -0.000535     -0.000781      0.000738
      9.66861      7.60727     11.56352         0.003998     -0.005679     -0.000332
      9.66351      7.72065      7.77066        -0.001909      0.000675     -0.000266
      0.05326     11.56775      1.92791         0.002147     -0.005348      0.004232
     11.51701      3.90229      5.80307        -0.000370      0.001758      0.005526
      0.02050      7.57748      5.80751         0.002526     -0.006030     -0.001717
      3.85385      0.05678      1.92114        -0.003403      0.000048      0.002295
      3.86768      3.80198      1.92638         0.002825     -0.002771      0.001045
      3.84340      7.64503      5.81042        -0.002757     -0.001531     -0.001816
      7.72138      0.03726      5.78936         0.000005      0.003970     -0.005118
      7.87514      3.84672      5.78293         0.003818     -0.002107     -0.001152
      7.66055      7.71942      9.67067        -0.000235      0.000089     -0.008252
      0.06273      1.98532      3.85237         0.000823     -0.000529     -0.001356
     11.51949      1.96667      7.79090        -0.001896      0.000917      0.003429
      0.14958      5.78519      0.01721         0.003111     -0.000090      0.001525
     11.50686      5.76640      3.75674        -0.002296      0.001726     -0.002734
      0.05905      5.76173      7.83567         0.003322     -0.001283      0.004457
     11.51127      9.63359     11.52669        -0.004017     -0.001106     -0.002239
      3.86894      1.95260     11.49545         0.000932     -0.002188     -0.002139
      3.79096      1.96393      3.96476        -0.001800      0.001839      0.002678
      3.77546      1.96125      7.71613         0.000173      0.001776     -0.000369
      3.86687      5.78842      3.79223        -0.001141      0.001389     -0.002863
      3.82942      5.78550      7.84006         0.001728     -0.001458      0.002726
      3.94296      9.63384     11.56879         0.001703      0.000175     -0.002050
      7.75020      1.94411     11.52012        -0.000522     -0.001608     -0.001639
      7.72335      1.96450      3.75858        -0.001160      0.000752     -0.005071
      7.58203      5.78001      0.05329        -0.003279     -0.002231      0.000543
      7.79074      5.79783      3.82717         0.002244     -0.000410     -0.000075
      7.71102      5.78600      7.70839         0.001127      0.000809     -0.002162
      7.71602      9.65945      7.71132        -0.000966     -0.000694     -0.002909
      1.92914      0.06715      3.94981        -0.001223      0.001572      0.004328
      1.92031      0.13408      7.77703        -0.000029      0.002378      0.001885
      1.93672      3.84249     11.55229         0.001237     -0.003403     -0.000140
      1.91221      3.93592      3.89574         0.001444      0.003242      0.000454
      1.91165      3.84102      7.73636         0.002189     -0.000827      0.000582
      1.93657      7.81085      0.02903        -0.000254      0.002466      0.002154
      1.93537      7.63523      7.83720         0.001656     -0.001559      0.003577
      5.79900      0.05255     11.51175        -0.000627     -0.001888     -0.002827
      5.79094      0.13087      3.86459        -0.001529      0.004886      0.000451
      5.80998      3.81155     11.54530        -0.000292     -0.002234     -0.002510
      5.77911      7.72405      0.05166        -0.001887     -0.001931     -0.000612
      5.80042      7.61148      3.83127        -0.000617     -0.001403     -0.000489
      5.80343      7.69921      7.71287         0.000364     -0.001729     -0.001846
      9.63599      0.00741      0.01216        -0.001192     -0.001592      0.002179
      9.67903     11.53970      7.73435         0.001008     -0.003842     -0.000293
      9.67851      3.82224      3.71080         0.000171     -0.000922     -0.002986
      9.69059      3.97041      7.86695         0.002668      0.003421      0.002861
      9.63850      7.68244      3.82117        -0.000582      0.002255     -0.001100
      0.02029      0.17054      5.82886        -0.001751      0.006528      0.000586
     11.51595     11.58789      9.64941        -0.001590     -0.002857     -0.000829
      0.08809      3.87112      1.94804         0.002942     -0.000546     -0.000345
      0.04679      3.89844      9.64454         0.002466     -0.001166      0.000491
     11.56362      7.73751      1.90640        -0.001763      0.003110      0.001582
      0.08424      7.69502      9.67643         0.000872     -0.001040      0.001039
      3.83808      0.09071      5.79515         0.000053      0.003775      0.000341
      3.87542      0.02933      9.66620        -0.000330      0.000522     -0.001917
      3.73154      3.94987      5.80864        -0.001763      0.004262      0.001691
      3.84253      3.83648      9.66065         0.001049     -0.001060     -0.002786
      3.91268      7.74828      1.90777         0.000993      0.001037      0.000244
      3.90113      7.74399      9.67707         0.001623      0.000625     -0.000030
      7.64783      0.10800      1.89801        -0.003992      0.000481     -0.000351
      7.78797     11.53146      9.67219         0.000805     -0.004358     -0.000083
      7.67275      3.85514      1.91499        -0.001726      0.001436     -0.000169
      7.70214      3.97271      9.67572         0.001204      0.003171     -0.000888
      7.70543      7.63498      1.91970        -0.001515     -0.001051      0.001978
      7.70280      7.70490      5.78335        -0.000641      0.000799     -0.000299
 -----------------------------------------------------------------------------------
    total drift:                                0.003023      0.001674     -0.002395


--------------------------------------------------------------------------------------------------------



  FREE ENERGIE OF THE ION-ELECTRON SYSTEM (eV)
  ---------------------------------------------------
  free  energy   TOTEN  =      -721.15984304 eV

  energy  without entropy=     -721.15984304  energy(sigma->0) =     -721.15984304
 


--------------------------------------------------------------------------------------------------------


    POTLOK:  cpu time      1.0738: real time      1.0765


--------------------------------------------------------------------------------------------------------


 Quasi-Newton relaxation of ions (Broydens 2nd method)
  g(Force)  = 0.881E-04   g(Stress)= 0.645E-04

 Reset! Starting new Quasi-Newton update for ions 


--------------------------------------------------------------------------------------------------------


  
 reached required accuracy - stopping structural energy minimisation
 writing wavefunctions
     LOOP+:  cpu time   2179.4858: real time   2186.7817
    4ORBIT:  cpu time      0.0000: real time      0.0000



 total charge

# of ion       s       p       d       tot
------------------------------------------
    1        0.328   6.458   1.819   8.605
    2        0.330   6.456   1.824   8.610
    3        0.318   6.459   1.777   8.554
    4        0.319   6.457   1.797   8.573
    5        0.317   6.471   1.708   8.496
    6        0.317   6.473   1.717   8.507
    7        0.317   6.462   1.762   8.541
    8        0.330   6.456   1.833   8.619
    9        0.328   6.458   1.811   8.597
   10        0.320   6.455   1.796   8.570
   11        0.320   6.454   1.779   8.554
   12        0.322   6.456   1.802   8.580
   13        0.319   6.461   1.761   8.541
   14        0.323   6.460   1.778   8.561
   15        0.316   6.459   1.779   8.554
   16        0.316   6.467   1.737   8.519
   17        0.328   6.457   1.814   8.600
   18        0.322   6.454   1.806   8.582
   19        0.317   6.462   1.759   8.538
   20        0.327   6.456   1.808   8.591
   21        0.328   6.458   1.809   8.596
   22        0.315   6.462   1.748   8.526
   23        0.323   6.458   1.796   8.578
   24        0.326   6.458   1.807   8.592
   25        0.327   6.465   1.791   8.583
   26        0.314   6.456   1.768   8.538
   27        0.320   6.456   1.776   8.552
   28        1.571   3.470   0.000   5.041
   29        1.569   3.479   0.000   5.048
   30        1.571   3.470   0.000   5.041
   31        1.570   3.469   0.000   5.039
   32        1.569   3.472   0.000   5.041
   33        1.569   3.475   0.000   5.044
   34        1.570   3.472   0.000   5.041
   35        1.571   3.471   0.000   5.042
   36        1.570   3.464   0.000   5.034
   37        1.570   3.477   0.000   5.046
   38        1.569   3.477   0.000   5.046
   39        1.570   3.476   0.000   5.046
   40        1.570   3.476   0.000   5.046
   41        1.571   3.469   0.000   5.040
   42        1.569   3.475   0.000   5.044
   43        1.570   3.469   0.000   5.039
   44        1.571   3.470   0.000   5.041
   45        1.569   3.472   0.000   5.041
   46        1.569   3.476   0.000   5.045
   47        1.570   3.467   0.000   5.036
   48        1.569   3.475   0.000   5.044
   49        1.568   3.472   0.000   5.040
   50        1.570   3.472   0.000   5.042
   51        1.570   3.476   0.000   5.046
   52        1.569   3.477   0.000   5.047
   53        1.570   3.473   0.000   5.043
   54        1.570   3.475   0.000   5.045
   55        1.731   4.373   0.000   6.104
   56        1.731   4.372   0.000   6.103
   57        1.730   4.376   0.000   6.106
   58        1.731   4.374   0.000   6.105
   59        1.731   4.381   0.000   6.112
   60        1.729   4.379   0.000   6.109
   61        1.729   4.382   0.000   6.111
   62        1.730   4.376   0.000   6.107
   63        1.730   4.378   0.000   6.108
   64        1.730   4.380   0.000   6.111
   65        1.730   4.378   0.000   6.108
   66        1.729   4.378   0.000   6.107
   67        1.730   4.374   0.000   6.103
   68        1.730   4.383   0.000   6.113
   69        1.730   4.381   0.000   6.111
   70        1.730   4.378   0.000   6.107
   71        1.730   4.379   0.000   6.109
   72        1.729   4.379   0.000   6.108
   73        1.729   4.379   0.000   6.109
   74        1.730   4.376   0.000   6.106
   75        1.730   4.383   0.000   6.113
   76        1.730   4.375   0.000   6.106
   77        1.731   4.376   0.000   6.106
   78        1.730   4.375   0.000   6.104
   79        1.730   4.381   0.000   6.111
   80        1.730   4.376   0.000   6.106
   81        1.729   4.377   0.000   6.106
   82        1.730   4.378   0.000   6.108
   83        1.730   4.383   0.000   6.114
   84        1.730   4.376   0.000   6.106
   85        1.729   4.378   0.000   6.107
   86        1.730   4.379   0.000   6.109
   87        1.730   4.379   0.000   6.109
   88        1.730   4.376   0.000   6.106
   89        1.731   4.379   0.000   6.109
   90        1.729   4.377   0.000   6.106
   91        1.730   4.376   0.000   6.106
   92        1.730   4.377   0.000   6.107
   93        1.729   4.381   0.000   6.110
   94        1.730   4.382   0.000   6.112
   95        1.730   4.378   0.000   6.108
   96        1.730   4.376   0.000   6.107
   97        1.729   4.380   0.000   6.109
   98        1.730   4.383   0.000   6.112
   99        1.729   4.378   0.000   6.107
  100        1.730   4.379   0.000   6.108
  101        1.730   4.379   0.000   6.109
  102        1.730   4.376   0.000   6.107
  103        1.730   4.376   0.000   6.106
  104        1.730   4.377   0.000   6.108
  105        1.730   4.376   0.000   6.106
  106        1.730   4.378   0.000   6.108
  107        1.730   4.380   0.000   6.110
  108        1.729   4.377   0.000   6.106
--------------------------------------------------
tot        144.485 504.586  48.161 697.231



 magnetization (x)

# of ion       s       p       d       tot
------------------------------------------
    1       -0.000  -0.000  -0.000  -0.000
    2       -0.000  -0.000  -0.000  -0.000
    3       -0.000  -0.000  -0.000  -0.000
    4       -0.000  -0.000  -0.000  -0.000
    5       -0.000  -0.000   0.000  -0.000
    6       -0.000  -0.000   0.000  -0.000
    7       -0.000  -0.000  -0.000  -0.000
    8       -0.000  -0.000  -0.000  -0.000
    9       -0.000  -0.000  -0.000  -0.000
   10       -0.000   0.000  -0.000  -0.000
   11       -0.000   0.000  -0.000  -0.000
   12       -0.000  -0.000  -0.000  -0.000
   13       -0.000  -0.000  -0.000  -0.000
   14       -0.000  -0.000  -0.000  -0.000
   15       -0.000  -0.000  -0.000  -0.000
   16       -0.000  -0.000  -0.000  -0.000
   17       -0.000   0.000  -0.000  -0.000
   18       -0.000   0.000  -0.000  -0.000
   19       -0.000  -0.000  -0.000  -0.000
   20       -0.000  -0.000  -0.000  -0.000
   21       -0.000  -0.000  -0.000  -0.000
   22       -0.000  -0.000  -0.000  -0.000
   23       -0.000   0.000  -0.000  -0.000
   24       -0.000  -0.000  -0.000  -0.000
   25       -0.000  -0.000  -0.000  -0.000
   26       -0.000   0.000  -0.000  -0.000
   27       -0.000  -0.000  -0.000  -0.000
   28        0.000   0.000   0.000   0.000
   29        0.000   0.000   0.000   0.000
   30        0.000   0.000   0.000   0.000
   31        0.000   0.000   0.000   0.000
   32        0.000   0.000   0.000   0.000
   33        0.000   0.000   0.000   0.000
   34        0.000   0.000   0.000   0.000
   35        0.000   0.000   0.000   0.000
   36        0.000   0.000   0.000   0.000
   37        0.000   0.000   0.000   0.000
   38        0.000   0.000   0.000   0.000
   39        0.000   0.000   0.000   0.000
   40        0.000   0.000   0.000   0.000
   41        0.000   0.000   0.000   0.000
   42        0.000   0.000   0.000   0.000
   43        0.000  -0.000   0.000  -0.000
   44        0.000   0.000   0.000   0.000
   45        0.000   0.000   0.000   0.000
   46        0.000   0.000   0.000   0.000
   47        0.000  -0.000   0.000   0.000
   48        0.000   0.000   0.000   0.000
   49        0.000   0.000   0.000   0.000
   50        0.000   0.000   0.000   0.000
   51        0.000   0.000   0.000   0.000
   52        0.000   0.000   0.000   0.000
   53        0.000   0.000   0.000   0.000
   54        0.000   0.000   0.000   0.000
   55       -0.000  -0.000   0.000  -0.000
   56        0.000  -0.000   0.000  -0.000
   57        0.000   0.000   0.000   0.000
   58        0.000   0.000   0.000   0.000
   59        0.000   0.000   0.000   0.000
   60        0.000   0.000   0.000   0.000
   61        0.000   0.000   0.000   0.000
   62        0.000   0.000   0.000   0.000
   63        0.000   0.000   0.000   0.000
   64        0.000   0.000   0.000   0.000
   65        0.000   0.000   0.000   0.000
   66        0.000   0.000   0.000   0.000
   67        0.000   0.000   0.000   0.000
   68        0.000   0.000   0.000   0.000
   69        0.000   0.000   0.000   0.000
   70        0.000   0.000   0.000   0.000
   71        0.000   0.000   0.000   0.000
   72        0.000   0.000   0.000   0.000
   73        0.000   0.000   0.000   0.000
   74       -0.000   0.000   0.000  -0.000
   75        0.000   0.000   0.000   0.000
   76        0.000   0.000   0.000   0.000
   77        0.000   0.000   0.000   0.000
   78        0.000   0.000   0.000   0.000
   79        0.000   0.000   0.000   0.000
   80        0.000   0.000   0.000   0.000
   81        0.000   0.000   0.000   0.000
   82        0.000   0.000   0.000   0.000
   83        0.000   0.000   0.000   0.000
   84        0.000   0.000   0.000   0.000
   85        0.000   0.000   0.000   0.000
   86        0.000   0.000   0.000   0.000
   87        0.000   0.000   0.000   0.000
   88        0.000   0.000   0.000   0.000
   89        0.000   0.000   0.000   0.000
   90        0.000  -0.000   0.000   0.000
   91        0.000  -0.000   0.000  -0.000
   92        0.000   0.000   0.000   0.000
   93        0.000   0.000   0.000   0.000
   94        0.000   0.000   0.000   0.000
   95        0.000   0.000   0.000   0.000
   96        0.000   0.000   0.000   0.000
   97        0.000   0.000   0.000   0.000
   98        0.000   0.000   0.000   0.000
   99        0.000   0.000   0.000   0.000
  100        0.000   0.000   0.000   0.000
  101        0.000   0.000   0.000   0.000
  102        0.000   0.000   0.000   0.000
  103        0.000  -0.000   0.000   0.000
  104        0.000   0.000   0.000   0.000
  105        0.000   0.000   0.000   0.000
  106        0.000   0.000   0.000   0.000
  107        0.000   0.000   0.000   0.000
  108        0.000  -0.000   0.000  -0.000
--------------------------------------------------
tot          0.000   0.000  -0.000   0.000
 

 total amount of memory used by VASP MPI-rank0   297948. kBytes
=======================================================================

   base      :      30000. kBytes
   nonlr-proj:      25307. kBytes
   fftplans  :      18873. kBytes
   grid      :      21088. kBytes
   one-center:        435. kBytes
   wavefun   :     202245. kBytes
 
  
  
 General timing and accounting informations for this job:
 ========================================================
  
                  Total CPU time used (sec):     2282.458
                            User time (sec):     2255.441
                          System time (sec):       27.017
                         Elapsed time (sec):     2290.838
  
                   Maximum memory used (kb):      894056.
                   Average memory used (kb):          N/A
  
                          Minor page faults:       305059
                          Major page faults:            2
                 Voluntary context switches:        15321
