 vasp.5.4.4.18Apr17-6-g9f103f2a35 (build Jul 16 2019 12:12:28) complex          
  
 executed on             LinuxIFC date 2020.01.06  10:30:32
 running on   96 total cores
 distrk:  each k-point on   96 cores,    1 groups
 distr:  one band on NCORES_PER_BAND=   8 cores,   12 groups


--------------------------------------------------------------------------------------------------------


 INCAR:
 POTCAR:    PAW_PBE Li_sv 10Sep2004               
 POTCAR:    PAW_PBE Ti_pv 07Sep2000               
 POTCAR:    PAW_PBE O 08Apr2002                   
 POTCAR:    PAW_PBE F 08Apr2002                   
 POTCAR:    PAW_PBE Li_sv 10Sep2004               
   VRHFIN =Li: 1s2s2p                                                           
   LEXCH  = PE                                                                  
   EATOM  =   202.7858 eV,   14.9043 Ry                                         
                                                                                
   TITEL  = PAW_PBE Li_sv 10Sep2004                                             
   LULTRA =        F    use ultrasoft PP ?                                      
   IUNSCR =        0    unscreen: 0-lin 1-nonlin 2-no                           
   RPACOR =    0.000    partial core radius                                     
   POMASS =    7.010; ZVAL   =    3.000    mass and valenz                      
   RCORE  =    1.700    outmost cutoff radius                                   
   RWIGS  =    2.050; RWIGS  =    1.085    wigner-seitz radius (au A)           
   ENMAX  =  499.034; ENMIN  =  374.276 eV                                      
   ICORE  =        2    local potential                                         
   LCOR   =        T    correct aug charges                                     
   LPAW   =        T    paw PP                                                  
   EAUG   =  628.945                                                            
   RMAX   =    1.732    core radius for proj-oper                               
   RAUG   =    1.300    factor for augmentation sphere                          
   RDEP   =    1.728    radius for radial grids                                 
   RDEPT  =    1.329    core radius for aug-charge                              
                                                                                
   Atomic configuration                                                         
    4 entries                                                                   
     n  l   j            E        occ.                                          
     1  0  0.50       -51.8549   2.0000                                         
     2  0  0.50        -2.8742   1.0000                                         
     2  1  0.50        -1.3606   0.0000                                         
     3  2  1.50        -1.3606   0.0000                                         
   Description                                                                  
     l       E           TYP  RCUT    TYP  RCUT                                 
     0    -51.8548813     23  1.400                                             
     0     -2.8742052     23  1.700                                             
     1     -1.3605826     23  1.400                                             
     2     -1.3605826     23  1.400                                             
  local pseudopotential read in
  atomic valenz-charges read in
  non local Contribution for L=           0  read in
    real space projection operators read in
  non local Contribution for L=           0  read in
    real space projection operators read in
  non local Contribution for L=           1  read in
    real space projection operators read in
    PAW grid and wavefunctions read in
 
   number of l-projection  operators is LMAX  =           3
   number of lm-projection operators is LMMAX =           5
 
 POTCAR:    PAW_PBE Ti_pv 07Sep2000               
   VRHFIN =Ti: d3 s1                                                            
   LEXCH  = PE                                                                  
   EATOM  =  1042.5995 eV,   76.6289 Ry                                         
                                                                                
   TITEL  = PAW_PBE Ti_pv 07Sep2000                                             
   LULTRA =        F    use ultrasoft PP ?                                      
   IUNSCR =        1    unscreen: 0-lin 1-nonlin 2-no                           
   RPACOR =    2.200    partial core radius                                     
   POMASS =   47.880; ZVAL   =   10.000    mass and valenz                      
   RCORE  =    2.500    outmost cutoff radius                                   
   RWIGS  =    2.500; RWIGS  =    1.323    wigner-seitz radius (au A)           
   ENMAX  =  222.335; ENMIN  =  166.751 eV                                      
   RCLOC  =    1.701    cutoff for local pot                                    
   LCOR   =        T    correct aug charges                                     
   LPAW   =        T    paw PP                                                  
   EAUG   =  482.848                                                            
   DEXC   =    0.000                                                            
   RMAX   =    2.564    core radius for proj-oper                               
   RAUG   =    1.300    factor for augmentation sphere                          
   RDEP   =    2.538    radius for radial grids                                 
   RDEPT  =    1.952    core radius for aug-charge                              
                                                                                
   Atomic configuration                                                         
    8 entries                                                                   
     n  l   j            E        occ.                                          
     1  0  0.50     -4865.3608   2.0000                                         
     2  0  0.50      -533.1368   2.0000                                         
     2  1  1.50      -440.5031   6.0000                                         
     3  0  0.50       -59.3186   2.0000                                         
     3  1  1.50       -35.7012   6.0000                                         
     3  2  2.50        -1.9157   3.0000                                         
     4  0  0.50        -3.7291   1.0000                                         
     4  3  2.50        -1.3606   0.0000                                         
   Description                                                                  
     l       E           TYP  RCUT    TYP  RCUT                                 
     1    -35.7012140     23  2.300                                             
     1     -1.3605826     23  2.300                                             
     2     -1.9156996     23  2.500                                             
     2     -0.4063033     23  2.500                                             
     0     -3.7290856     23  2.500                                             
     0     20.4087390     23  2.500                                             
  local pseudopotential read in
  partial core-charges read in
  partial kinetic energy density read in
  atomic valenz-charges read in
  non local Contribution for L=           1  read in
    real space projection operators read in
  non local Contribution for L=           1  read in
    real space projection operators read in
  non local Contribution for L=           2  read in
    real space projection operators read in
  non local Contribution for L=           2  read in
    real space projection operators read in
  non local Contribution for L=           0  read in
    real space projection operators read in
  non local Contribution for L=           0  read in
    real space projection operators read in
    PAW grid and wavefunctions read in
 
   number of l-projection  operators is LMAX  =           6
   number of lm-projection operators is LMMAX =          18
 
 POTCAR:    PAW_PBE O 08Apr2002                   
   VRHFIN =O: s2p4                                                              
   LEXCH  = PE                                                                  
   EATOM  =   432.3788 eV,   31.7789 Ry                                         
                                                                                
   TITEL  = PAW_PBE O 08Apr2002                                                 
   LULTRA =        F    use ultrasoft PP ?                                      
   IUNSCR =        1    unscreen: 0-lin 1-nonlin 2-no                           
   RPACOR =    1.200    partial core radius                                     
   POMASS =   16.000; ZVAL   =    6.000    mass and valenz                      
   RCORE  =    1.520    outmost cutoff radius                                   
   RWIGS  =    1.550; RWIGS  =    0.820    wigner-seitz radius (au A)           
   ENMAX  =  400.000; ENMIN  =  300.000 eV                                      
   ICORE  =        2    local potential                                         
   LCOR   =        T    correct aug charges                                     
   LPAW   =        T    paw PP                                                  
   EAUG   =  605.392                                                            
   DEXC   =    0.000                                                            
   RMAX   =    1.553    core radius for proj-oper                               
   RAUG   =    1.300    factor for augmentation sphere                          
   RDEP   =    1.550    radius for radial grids                                 
   RDEPT  =    1.329    core radius for aug-charge                              
                                                                                
   Atomic configuration                                                         
    4 entries                                                                   
     n  l   j            E        occ.                                          
     1  0  0.50      -514.6923   2.0000                                         
     2  0  0.50       -23.9615   2.0000                                         
     2  1  0.50        -9.0305   4.0000                                         
     3  2  1.50        -9.5241   0.0000                                         
   Description                                                                  
     l       E           TYP  RCUT    TYP  RCUT                                 
     0    -23.9615318     23  1.200                                             
     0     -9.5240782     23  1.200                                             
     1     -9.0304911     23  1.520                                             
     1      8.1634956     23  1.520                                             
     2     -9.5240782      7  1.500                                             
  local pseudopotential read in
  partial core-charges read in
  partial kinetic energy density read in
  kinetic energy density of atom read in
  atomic valenz-charges read in
  non local Contribution for L=           0  read in
    real space projection operators read in
  non local Contribution for L=           0  read in
    real space projection operators read in
  non local Contribution for L=           1  read in
    real space projection operators read in
  non local Contribution for L=           1  read in
    real space projection operators read in
    PAW grid and wavefunctions read in
 
   number of l-projection  operators is LMAX  =           4
   number of lm-projection operators is LMMAX =           8
 
 POTCAR:    PAW_PBE F 08Apr2002                   
   VRHFIN =F: s2p5                                                              
   LEXCH  = PE                                                                  
   EATOM  =   659.6475 eV,   48.4827 Ry                                         
                                                                                
   TITEL  = PAW_PBE F 08Apr2002                                                 
   LULTRA =        F    use ultrasoft PP ?                                      
   IUNSCR =        1    unscreen: 0-lin 1-nonlin 2-no                           
   RPACOR =    1.200    partial core radius                                     
   POMASS =   18.998; ZVAL   =    7.000    mass and valenz                      
   RCORE  =    1.520    outmost cutoff radius                                   
   RWIGS  =    1.500; RWIGS  =    0.794    wigner-seitz radius (au A)           
   ENMAX  =  400.000; ENMIN  =  300.000 eV                                      
   ICORE  =        2    local potential                                         
   LCOR   =        T    correct aug charges                                     
   LPAW   =        T    paw PP                                                  
   EAUG   =  613.614                                                            
   RMAX   =    1.555    core radius for proj-oper                               
   RAUG   =    1.300    factor for augmentation sphere                          
   RDEP   =    1.539    radius for radial grids                                 
   RDEPT  =    1.299    core radius for aug-charge                              
                                                                                
   Atomic configuration                                                         
    4 entries                                                                   
     n  l   j            E        occ.                                          
     1  0  0.50      -663.3661   2.0000                                         
     2  0  0.50       -29.8995   2.0000                                         
     2  1  0.50       -11.1114   5.0000                                         
     3  2  1.50       -10.8847   0.0000                                         
   Description                                                                  
     l       E           TYP  RCUT    TYP  RCUT                                 
     0    -29.8995018     23  1.200                                             
     0     -9.5240782     23  1.200                                             
     1    -11.1113914     23  1.520                                             
     1      1.3605826     23  1.520                                             
     2    -10.8846608      7  1.500                                             
  local pseudopotential read in
  partial core-charges read in
  partial kinetic energy density read in
  atomic valenz-charges read in
  non local Contribution for L=           0  read in
    real space projection operators read in
  non local Contribution for L=           0  read in
    real space projection operators read in
  non local Contribution for L=           1  read in
    real space projection operators read in
  non local Contribution for L=           1  read in
    real space projection operators read in
    PAW grid and wavefunctions read in
 
   number of l-projection  operators is LMAX  =           4
   number of lm-projection operators is LMMAX =           8
 
 Optimization of the real space projectors (new method)

 maximal supplied QI-value         = 22.11
 optimisation between [QCUT,QGAM] = [ 11.28, 22.77] = [ 35.61,145.23] Ry 
 Optimized for a Real-space Cutoff    1.31 Angstroem

   l    n(q)    QCUT    max X(q) W(low)/X(q) W(high)/X(q)  e(spline) 
   0      9    11.276    10.506    0.19E-04    0.17E-04    0.32E-07
   0      9    11.276     8.367    0.38E-04    0.40E-04    0.65E-07
   1      8    11.276     8.983    0.55E-04    0.98E-04    0.20E-06
 Optimization of the real space projectors (new method)

 maximal supplied QI-value         = 15.12
 optimisation between [QCUT,QGAM] = [ 11.34, 22.83] = [ 36.00,145.93] Ry 
 Optimized for a Real-space Cutoff    1.56 Angstroem

   l    n(q)    QCUT    max X(q) W(low)/X(q) W(high)/X(q)  e(spline) 
   1     10    11.338     4.216    0.27E-04    0.12E-04    0.66E-07
   1     10    11.338     5.422    0.81E-04    0.24E-04    0.19E-06
   2     10    11.338    72.084    0.64E-04    0.21E-03    0.51E-06
   2     10    11.338    65.965    0.63E-04    0.21E-03    0.50E-06
   0     11    11.338    41.531    0.33E-04    0.54E-04    0.13E-06
   0     11    11.338    16.290    0.26E-04    0.41E-04    0.11E-06
 Optimization of the real space projectors (new method)

 maximal supplied QI-value         = 24.76
 optimisation between [QCUT,QGAM] = [ 11.39, 22.77] = [ 36.31,145.25] Ry 
 Optimized for a Real-space Cutoff    1.20 Angstroem

   l    n(q)    QCUT    max X(q) W(low)/X(q) W(high)/X(q)  e(spline) 
   0      8    11.387    20.381    0.89E-04    0.31E-03    0.27E-06
   0      8    11.387    15.268    0.93E-04    0.32E-03    0.29E-06
   1      8    11.387     5.964    0.53E-04    0.28E-03    0.29E-06
   1      8    11.387     5.382    0.37E-04    0.22E-03    0.26E-06
 Optimization of the real space projectors (new method)

 maximal supplied QI-value         = 24.76
 optimisation between [QCUT,QGAM] = [ 11.39, 22.77] = [ 36.31,145.25] Ry 
 Optimized for a Real-space Cutoff    1.20 Angstroem

   l    n(q)    QCUT    max X(q) W(low)/X(q) W(high)/X(q)  e(spline) 
   0      8    11.387    14.049    0.69E-04    0.23E-03    0.18E-06
   0      8    11.387     8.945    0.88E-04    0.30E-03    0.26E-06
   1      8    11.387     7.086    0.62E-04    0.27E-03    0.27E-06
   1      8    11.387     6.747    0.46E-04    0.23E-03    0.25E-06

 ----------------------------------------------------------------------------- 
|                                                                             |
|  ADVICE TO THIS USER RUNNING 'VASP/VAMP'   (HEAR YOUR MASTER'S VOICE ...):  |
|                                                                             |
|      You enforced a specific xc-type in the INCAR file,                     |
|      a different type was found on the POTCAR file                          |
|          I HOPE YOU KNOW, WHAT YOU ARE  DOING                               |
|                                                                             |
 ----------------------------------------------------------------------------- 

  PAW_PBE Li_sv 10Sep2004               :
 energy of atom  1       EATOM= -202.7858
 kinetic energy error for atom=    0.0143 (will be added to EATOM!!)
  PAW_PBE Ti_pv 07Sep2000               :
 energy of atom  2       EATOM=-1042.5995
 kinetic energy error for atom=    0.0024 (will be added to EATOM!!)
  PAW_PBE O 08Apr2002                   :
 energy of atom  3       EATOM= -432.3788
 kinetic energy error for atom=    0.0224 (will be added to EATOM!!)
  PAW_PBE F 08Apr2002                   :
 energy of atom  4       EATOM= -659.6475
 kinetic energy error for atom=    0.0354 (will be added to EATOM!!)
 
 
 POSCAR: config 29                               
  positions in direct lattice
  velocities in cartesian coordinates
 exchange correlation table for  LEXCH =       14
   RHO(1)=    0.500       N(1)  =     2000
   RHO(2)=  100.500       N(2)  =     4000

 VTST: version 3.2, (02/03/18)

 CHAIN: initializing optimizer
 
 OPT: Using VASP QUASI-newton optimizer
 CHAIN: Read ICHAIN            0
 
 POSCAR: config 29                               
  positions in direct lattice
  velocities in cartesian coordinates
 


--------------------------------------------------------------------------------------------------------


 ion  position               nearest neighbor table
   1  0.377  0.817  0.129- 207 1.97 162 1.98 200 2.02 145 2.08
   2  0.996  0.996  0.994- 118 1.87  68 1.88 103 1.89 171 2.03 212 2.04 130 2.04
   3  0.999  0.992  0.494- 119 1.81  67 1.83 172 1.95 193 1.96 131 2.01 213 2.08
   4  0.006  0.496  0.997-  89 1.85 117 1.86 138 1.93 132 1.98 214 2.02 194 2.02
   5  0.994  0.504  0.507-  66 1.83 104 1.84 215 1.93 223 2.00 173 2.02 137 2.03
   6  0.495  0.994  0.000- 101 1.84 121 1.85 140 1.97 133 1.98 174 2.01 216 2.03
   7  0.501  0.008  0.498- 112 1.78 191 1.92 134 1.93 139 1.94 175 1.94 225 2.03
   8  0.504  0.495  0.997- 120 1.88  70 1.88  90 1.89 192 2.03 135 2.04 217 2.10
   9  0.492  0.498  0.496- 102 1.82  69 1.85 218 2.00 224 2.00 136 2.02 176 2.06
  10  0.006  0.003  0.256-  91 1.84  67 1.86 219 1.94 227 1.97 130 2.00 197 2.04
  11  0.003  0.008  0.757-  68 1.80 113 1.84 177 1.95 198 1.99 228 2.05 131 2.06
  12  0.994  0.494  0.251- 107 1.82 122 1.86 137 1.93 132 1.97 220 2.00 178 2.03
  13  0.993  0.500  0.742- 108 1.82  66 1.83 226 1.93 221 1.97 138 2.03 179 2.06
  14  0.506  0.008  0.250-  92 1.84 114 1.84 133 1.95 139 2.00 231 2.00 195 2.02
  15  0.493  0.006  0.753- 105 1.81 115 1.84 140 1.95 232 2.01 134 2.02 180 2.03
  16  0.493  0.496  0.259-  69 1.84 106 1.85 222 1.95 229 1.98 181 2.04 135 2.05
  17  0.501  0.504  0.760-  70 1.81 116 1.87 182 1.95 196 1.98 230 2.05 136 2.08
  18  0.996  0.258  0.002- 117 1.82 110 1.88 141 1.96 146 1.97 183 2.01 212 2.02
  19  0.998  0.248  0.491-  74 1.78 213 1.91 202 1.94 184 1.94 223 1.95 142 2.02
  20  0.998  0.759  0.006- 118 1.80  71 1.86 203 1.94 185 1.98 148 2.04 214 2.06
  21  0.997  0.757  0.506- 119 1.83  72 1.84 204 1.94 186 1.97 147 2.01 215 2.03
  22  0.496  0.258  0.002- 120 1.81 109 1.85 150 1.97 143 1.99 187 2.03 216 2.08
  23  0.509  0.245  0.498-  93 1.81 112 1.91 144 1.94 149 1.95 224 1.98 199 2.01
  24  0.510  0.756  0.998-  94 1.80 121 1.87 152 1.93 145 1.97 217 2.00 200 2.10
  25  0.507  0.752  0.508-  73 1.81  95 1.82 151 1.98 218 1.99 225 1.99 201 2.05
  26  0.999  0.259  0.255- 122 1.79  74 1.88 209 1.95 188 1.96 141 1.99 219 2.02
  27  0.007  0.243  0.748- 113 1.81  96 1.83 142 1.96 146 1.97 226 2.05 210 2.05
  28  0.004  0.749  0.243-  71 1.82  97 1.86 220 1.95 227 1.98 211 1.98 147 2.05
  29  0.993  0.750  0.743- 111 1.83  72 1.84 228 1.93 221 1.98 189 2.03 148 2.03
  30  0.508  0.241  0.252-  98 1.83 114 1.83 143 1.95 149 1.98 229 2.02 205 2.03
  31  0.508  0.243  0.752-  99 1.84 115 1.85 150 1.94 144 1.99 206 2.02 230 2.02
  32  0.506  0.752  0.255- 100 1.89 151 2.00 222 2.03 207 2.06 145 2.07 231 2.07
  33  0.502  0.741  0.743- 116 1.82  73 1.82 190 1.93 208 1.98 152 2.06 232 2.08
  34  0.256  0.998  0.005-  75 1.85 101 1.86 246 1.95 233 1.96 171 2.01 157 2.04
  35  0.252  0.993  0.506- 128 1.83  76 1.84 172 1.95 191 1.99 234 2.03 156 2.03
  36  0.244  0.509  0.998-  89 1.84 123 1.84 159 1.94 153 1.98 192 2.02 245 2.04
  37  0.255  0.494  0.506-  77 1.87 102 1.87 127 1.89 173 2.04 158 2.06 235 2.06
  38  0.757  0.001  0.993- 103 1.79  81 1.87 236 1.96 249 1.96 154 2.04 174 2.06
  39  0.749  0.007  0.494-  80 1.83 124 1.84 193 1.94 155 2.00 175 2.00 250 2.04
  40  0.742  0.501  0.005-  90 1.80  78 1.87 237 1.96 247 1.96 161 2.03 194 2.06
  41  0.756  0.498  0.506-  79 1.85 104 1.86 248 1.97 238 1.98 176 2.02 160 2.02
  42  0.244  0.002  0.243-  91 1.84  75 1.85 239 1.93 252 1.98 156 2.03 195 2.05
  43  0.259  0.997  0.744- 105 1.84  76 1.84 253 1.93 240 1.97 177 2.03 157 2.03
  44  0.255  0.492  0.252- 106 1.82 129 1.83 158 1.94 153 1.98 178 2.04 241 2.07
  45  0.247  0.505  0.740-  77 1.79 125 1.84 179 1.95 196 1.97 251 2.02 159 2.08
  46  0.744  0.001  0.255-  92 1.85  80 1.86 256 1.94 242 1.96 154 2.00 197 2.01
  47  0.748  0.007  0.756-  81 1.82 126 1.83 180 1.95 198 1.97 257 2.04 155 2.06
  48  0.755  0.499  0.242-  78 1.82 107 1.86 243 1.94 254 1.97 181 2.02 160 2.06
  49  0.757  0.498  0.742- 108 1.83  79 1.83 255 1.94 244 1.98 182 2.03 161 2.04
  50  0.257  0.253  0.006- 109 1.83  82 1.86 245 1.94 233 1.98 168 2.02 183 2.05
  51  0.254  0.257  0.505- 127 1.81  83 1.85 199 1.96 184 2.01 167 2.04 234 2.06
  52  0.250  0.741  0.991-  86 1.81 123 1.81 185 1.94 200 1.97 246 2.05 162 2.12
  53  0.252  0.755  0.494-  85 1.84 128 1.86 201 1.94 186 1.98 235 2.01 163 2.03
  54  0.757  0.252  0.008- 110 1.81  84 1.86 236 1.94 247 1.95 187 2.04 170 2.04
  55  0.742  0.243  0.498- 124 1.82  93 1.84 169 1.94 164 1.96 248 2.03 202 2.05
  56  0.743  0.749  0.993-  88 1.82  94 1.84 237 1.95 249 1.95 203 2.00 165 2.03
  57  0.742  0.753  0.492-  87 1.82  95 1.83 250 1.96 238 1.98 204 2.05 166 2.05
  58  0.251  0.259  0.244- 129 1.82  82 1.83 205 1.96 188 1.99 167 2.03 239 2.05
  59  0.245  0.252  0.744-  83 1.84  96 1.84 251 1.94 240 1.98 168 2.04 206 2.05
  60  0.240  0.747  0.259-  97 1.80  85 1.82 241 1.93 252 1.99 207 2.08 162 2.10
  61  0.248  0.740  0.754- 125 1.80  86 1.86 189 1.93 208 1.97 163 2.01 253 2.05
  62  0.741  0.252  0.243-  84 1.80  98 1.83 254 1.94 242 1.95 209 2.05 169 2.07
  63  0.745  0.243  0.751- 126 1.82  99 1.84 170 1.94 164 2.01 210 2.02 255 2.05
  64  0.744  0.751  0.255- 100 1.79  87 1.86 243 1.96 256 1.96 211 2.03 165 2.03
  65  0.757  0.750  0.756- 111 1.82  88 1.85 257 1.93 244 1.97 166 2.02 190 2.03
  66  0.011  0.504  0.625-  13 1.83   5 1.83
  67  0.000  0.005  0.376-   3 1.83  10 1.86
  68  0.005  0.002  0.873-  11 1.80   2 1.88
  69  0.497  0.482  0.377-  16 1.84   9 1.85
  70  0.493  0.488  0.876-  17 1.81   8 1.88
  71  0.998  0.745  0.125-  28 1.82  20 1.86
  72  0.004  0.745  0.624-  21 1.84  29 1.84
  73  0.505  0.740  0.625-  25 1.81  33 1.82
  74  0.990  0.248  0.376-  19 1.78  26 1.88
  75  0.261  0.992  0.125-  42 1.85  34 1.85
  76  0.261  0.998  0.625-  35 1.84  43 1.84
  77  0.238  0.487  0.626-  45 1.79  37 1.87
  78  0.748  0.488  0.125-  48 1.82  40 1.87
  79  0.745  0.490  0.624-  49 1.83  41 1.85
  80  0.746  0.003  0.376-  39 1.83  46 1.86
  81  0.742  0.003  0.873-  47 1.82  38 1.87
  82  0.242  0.258  0.126-  58 1.83  50 1.86
  83  0.250  0.256  0.625-  59 1.84  51 1.85
  84  0.738  0.264  0.126-  62 1.80  54 1.86
  85  0.256  0.738  0.376-  60 1.82  53 1.84
  86  0.253  0.743  0.874-  52 1.81  61 1.86
  87  0.754  0.748  0.375-  57 1.82  64 1.86
  88  0.748  0.749  0.875-  56 1.82  65 1.85
  89  0.125  0.509  0.993-  36 1.84   4 1.85
  90  0.625  0.511  0.997-  40 1.80   8 1.89
  91  0.125  0.004  0.246-  10 1.84  42 1.84
  92  0.624  0.999  0.246-  14 1.84  46 1.85
  93  0.625  0.262  0.490-  23 1.81  55 1.84
  94  0.625  0.739  0.004-  24 1.80  56 1.84
  95  0.624  0.768  0.494-  25 1.82  57 1.83
  96  0.125  0.254  0.753-  27 1.83  59 1.84
  97  0.124  0.752  0.252-  60 1.80  28 1.86
  98  0.625  0.246  0.265-  30 1.83  62 1.83
  99  0.626  0.255  0.752-  31 1.84  63 1.84
 100  0.628  0.759  0.249-  64 1.79  32 1.89
 101  0.376  0.996  0.989-   6 1.84  34 1.86
 102  0.375  0.509  0.506-   9 1.82  37 1.87
 103  0.873  0.999  0.995-  38 1.79   2 1.89
 104  0.875  0.508  0.502-   5 1.84  41 1.86
 105  0.377  0.998  0.762-  15 1.81  43 1.84
 106  0.373  0.495  0.247-  44 1.82  16 1.85
 107  0.876  0.497  0.250-  12 1.82  48 1.86
 108  0.876  0.511  0.743-  13 1.82  49 1.83
 109  0.376  0.251  0.008-  50 1.83  22 1.85
 110  0.875  0.253  0.009-  54 1.81  18 1.88
 111  0.875  0.742  0.749-  65 1.82  29 1.83
 112  0.516  0.122  0.484-   7 1.78  23 1.91
 113  0.999  0.126  0.745-  27 1.81  11 1.84
 114  0.496  0.125  0.271-  30 1.83  14 1.84
 115  0.504  0.124  0.761-  15 1.84  31 1.85
 116  0.503  0.625  0.760-  33 1.82  17 1.87
 117  0.004  0.376  0.005-  18 1.82   4 1.86
 118  0.006  0.875  0.002-  20 1.80   2 1.87
 119  0.987  0.875  0.499-   3 1.81  21 1.83
 120  0.507  0.374  0.016-  22 1.81   8 1.88
 121  0.504  0.876  0.016-   6 1.85  24 1.87
 122  0.008  0.374  0.246-  26 1.79  12 1.86
 123  0.260  0.626  0.012-  52 1.81  36 1.84
 124  0.735  0.125  0.507-  55 1.82  39 1.84
 125  0.245  0.624  0.741-  61 1.80  45 1.84
 126  0.750  0.125  0.741-  63 1.82  47 1.83
 127  0.258  0.373  0.488-  51 1.81  37 1.89
 128  0.259  0.875  0.494-  35 1.83  53 1.86
 129  0.241  0.375  0.264-  58 1.82  44 1.83
 130  0.995  0.003  0.126-  10 2.00   2 2.04
 131  0.999  0.998  0.624-   3 2.01  11 2.06
 132  0.003  0.511  0.125-  12 1.97   4 1.98
 133  0.489  0.022  0.125-  14 1.95   6 1.98
 134  0.491  0.012  0.622-   7 1.93  15 2.02
 135  0.503  0.515  0.128-   8 2.04  16 2.05
 136  0.510  0.507  0.625-   9 2.02  17 2.08
 137  0.001  0.494  0.376-  12 1.93   5 2.03
 138  0.993  0.496  0.873-   4 1.93  13 2.03
 139  0.508  0.978  0.376-   7 1.94  14 2.00
 140  0.519  0.986  0.875-  15 1.95   6 1.97
 141  0.012  0.245  0.127-  18 1.96  26 1.99
 142  0.004  0.258  0.621-  27 1.96  19 2.02
 143  0.512  0.229  0.127-  30 1.95  22 1.99
 144  0.503  0.234  0.623-  23 1.94  31 1.99
 145  0.487  0.739  0.123-  24 1.97  32 2.07   1 2.08
 146  0.992  0.252  0.874-  18 1.97  27 1.97
 147  0.994  0.752  0.375-  21 2.01  28 2.05
 148  0.002  0.752  0.874-  29 2.03  20 2.04
 149  0.488  0.270  0.376-  23 1.95  30 1.98
 150  0.496  0.265  0.875-  31 1.94  22 1.97
 151  0.485  0.767  0.382-  25 1.98  32 2.00
 152  0.496  0.764  0.874-  24 1.93  33 2.06
 153  0.242  0.486  0.125-  36 1.98  44 1.98
 154  0.753  1.000  0.126-  46 2.00  38 2.04
 155  0.752  0.993  0.623-  39 2.00  47 2.06
 156  0.246  0.007  0.375-  35 2.03  42 2.03
 157  0.239  0.001  0.874-  43 2.03  34 2.04
 158  0.250  0.518  0.375-  44 1.94  37 2.06
 159  0.262  0.509  0.874-  36 1.94  45 2.08
 160  0.748  0.510  0.375-  41 2.02  48 2.06
 161  0.755  0.510  0.874-  40 2.03  49 2.04
 162  0.258  0.769  0.126-   1 1.98  60 2.10  52 2.12
 163  0.245  0.758  0.625-  61 2.01  53 2.03
 164  0.747  0.265  0.623-  55 1.96  63 2.01
 165  0.757  0.752  0.124-  56 2.03  64 2.03
 166  0.745  0.752  0.625-  65 2.02  57 2.05
 167  0.258  0.238  0.374-  58 2.03  51 2.04
 168  0.256  0.245  0.875-  50 2.02  59 2.04
 169  0.766  0.239  0.374-  55 1.94  62 2.07
 170  0.757  0.241  0.876-  63 1.94  54 2.04
 171  0.126  0.006  0.007-  34 2.01   2 2.03
 172  0.125  0.994  0.504-  35 1.95   3 1.95
 173  0.124  0.494  0.490-   5 2.02  37 2.04
 174  0.624  0.005  0.011-   6 2.01  38 2.06
 175  0.624  0.979  0.507-   7 1.94  39 2.00
 176  0.626  0.487  0.496-  41 2.02   9 2.06
 177  0.128  0.998  0.741-  11 1.95  43 2.03
 178  0.124  0.509  0.251-  12 2.03  44 2.04
 179  0.124  0.491  0.765-  45 1.95  13 2.06
 180  0.624  0.994  0.736-  47 1.95  15 2.03
 181  0.625  0.498  0.252-  48 2.02  16 2.04
 182  0.627  0.490  0.758-  17 1.95  49 2.03
 183  0.125  0.248  0.991-  18 2.01  50 2.05
 184  0.124  0.253  0.493-  19 1.94  51 2.01
 185  0.125  0.740  0.002-  52 1.94  20 1.98
 186  0.124  0.758  0.494-  21 1.97  53 1.98
 187  0.626  0.246  0.991-  22 2.03  54 2.04
 188  0.125  0.237  0.261-  26 1.96  58 1.99
 189  0.124  0.756  0.753-  61 1.93  29 2.03
 190  0.626  0.757  0.753-  33 1.93  65 2.03
 191  0.378  0.014  0.487-   7 1.92  35 1.99
 192  0.373  0.493  0.010-  36 2.02   8 2.03
 193  0.874  0.017  0.503-  39 1.94   3 1.96
 194  0.875  0.495  0.002-   4 2.02  40 2.06
 195  0.376  0.998  0.261-  14 2.02  42 2.05
 196  0.375  0.501  0.739-  45 1.97  17 1.98
 197  0.874  0.003  0.251-  46 2.01  10 2.04
 198  0.875  0.996  0.749-  47 1.97  11 1.99
 199  0.379  0.235  0.502-  51 1.96  23 2.01
 200  0.374  0.768  0.007-  52 1.97   1 2.02  24 2.10
 201  0.376  0.737  0.509-  53 1.94  25 2.05
 202  0.874  0.241  0.510-  19 1.94  55 2.05
 203  0.873  0.760  0.996-  20 1.94  56 2.00
 204  0.872  0.736  0.506-  21 1.94  57 2.05
 205  0.378  0.257  0.242-  58 1.96  30 2.03
 206  0.377  0.248  0.748-  31 2.02  59 2.05
 207  0.374  0.756  0.241-   1 1.97  32 2.06  60 2.08
 208  0.375  0.752  0.746-  61 1.97  33 1.98
 209  0.874  0.257  0.240-  26 1.95  62 2.05
 210  0.875  0.252  0.743-  63 2.02  27 2.05
 211  0.875  0.746  0.250-  28 1.98  64 2.03
 212  0.001  0.127  0.000-  18 2.02   2 2.04
 213  0.007  0.126  0.508-  19 1.91   3 2.08
 214  0.990  0.626  0.993-   4 2.02  20 2.06
 215  0.009  0.627  0.491-   5 1.93  21 2.03
 216  0.501  0.125  0.986-   6 2.03  22 2.08
 217  0.485  0.629  0.989-  24 2.00   8 2.10
 218  0.513  0.626  0.487-  25 1.99   9 2.00
 219  0.992  0.128  0.247-  10 1.94  26 2.02
 220  0.999  0.624  0.259-  28 1.95  12 2.00
 221  0.013  0.625  0.757-  13 1.97  29 1.98
 222  0.500  0.621  0.269-  16 1.95  32 2.03
 223  0.994  0.374  0.500-  19 1.95   5 2.00
 224  0.488  0.370  0.517-  23 1.98   9 2.00
 225  0.483  0.879  0.514-  25 1.99   7 2.03
 226  0.993  0.375  0.749-  13 1.93  27 2.05
 227  0.995  0.876  0.250-  10 1.97  28 1.98
 228  0.998  0.876  0.747-  29 1.93  11 2.05
 229  0.505  0.371  0.233-  16 1.98  30 2.02
 230  0.495  0.373  0.736-  31 2.02  17 2.05
 231  0.488  0.881  0.226-  14 2.00  32 2.07
 232  0.500  0.876  0.740-  15 2.01  33 2.08
 233  0.250  0.125  0.003-  34 1.96  50 1.98
 234  0.243  0.124  0.502-  35 2.03  51 2.06
 235  0.239  0.626  0.512-  53 2.01  37 2.06
 236  0.747  0.127  0.008-  54 1.94  38 1.96
 237  0.765  0.626  0.007-  56 1.95  40 1.96
 238  0.736  0.625  0.506-  57 1.98  41 1.98
 239  0.259  0.127  0.244-  42 1.93  58 2.05
 240  0.250  0.125  0.751-  43 1.97  59 1.98
 241  0.252  0.625  0.232-  60 1.93  44 2.07
 242  0.756  0.127  0.243-  62 1.95  46 1.96
 243  0.747  0.625  0.242-  48 1.94  64 1.96
 244  0.737  0.625  0.744-  65 1.97  49 1.98
 245  0.246  0.377  0.989-  50 1.94  36 2.04
 246  0.240  0.874  0.994-  34 1.95  52 2.05
 247  0.744  0.375  0.983-  54 1.95  40 1.96
 248  0.762  0.372  0.486-  41 1.97  55 2.03
 249  0.740  0.875  0.003-  56 1.95  38 1.96
 250  0.767  0.877  0.500-  57 1.96  39 2.04
 251  0.257  0.376  0.764-  59 1.94  45 2.02
 252  0.253  0.875  0.260-  42 1.98  60 1.99
 253  0.249  0.873  0.753-  43 1.93  61 2.05
 254  0.748  0.374  0.269-  62 1.94  48 1.97
 255  0.758  0.374  0.762-  49 1.94  63 2.05
 256  0.761  0.877  0.247-  46 1.94  64 1.96
 257  0.753  0.875  0.748-  65 1.93  47 2.04
 

IMPORTANT INFORMATION: All symmetrisations will be switched off!
NOSYMM: (Re-)initialisation of all symmetry stuff for point group C_1.

 
 
 KPOINTS: Title                                   

Automatic generation of k-mesh.
Space group operators:
 irot       det(A)        alpha          n_x          n_y          n_z        tau_x        tau_y        tau_z
    1     1.000000     0.000001     1.000000     0.000000     0.000000     0.000000     0.000000     0.000000
 
 Subroutine IBZKPT returns following result:
 ===========================================
 
 Found      4 irreducible k-points:
 
 Following reciprocal coordinates:
            Coordinates               Weight
  0.250000  0.250000  0.250000      2.000000
 -0.250000  0.250000  0.250000      2.000000
  0.250000 -0.250000  0.250000      2.000000
 -0.250000 -0.250000  0.250000      2.000000
 
 Following cartesian coordinates:
            Coordinates               Weight
  0.016206  0.016206  0.016206      2.000000
 -0.016206  0.016206  0.016206      2.000000
  0.016206 -0.016206  0.016206      2.000000
 -0.016206 -0.016206  0.016206      2.000000
 


--------------------------------------------------------------------------------------------------------




 Dimension of arrays:
   k-points           NKPTS =      4   k-points in BZ     NKDIM =      4   number of bands    NBANDS=   1164
   number of dos      NEDOS =   3001   number of ions     NIONS =    257
   non local maximal  LDIM  =      6   non local SUM 2l+1 LMDIM =     18
   total plane-waves  NPLWV = ******
   max r-space proj   IRMAX =   7595   max aug-charges    IRDMAX= 146383
   dimension x,y,z NGX =   120 NGY =  120 NGZ =  120
   dimension x,y,z NGXF=   240 NGYF=  240 NGZF=  240
   support grid    NGXF=   480 NGYF=  480 NGZF=  480
   ions per type =               1  64  64 128
   NGX,Y,Z   is equivalent  to a cutoff of  12.93, 12.93, 12.93 a.u.
   NGXF,Y,Z  is equivalent  to a cutoff of  25.86, 25.86, 25.86 a.u.

 SYSTEM =  LTO                                     
 POSCAR =  config 29                               

 Startparameter for this run:
   NWRITE =      2    write-flag & timer
   PREC   = accura    normal or accurate (medium, high low for compatibility)
   ISTART =      1    job   : 0-new  1-cont  2-samecut
   ICHARG =      0    charge: 1-file 2-atom 10-const
   ISPIN  =      2    spin polarized calculation?
   LNONCOLLINEAR =      F non collinear calculations
   LSORBIT =      F    spin-orbit coupling
   INIWAV =      1    electr: 0-lowe 1-rand  2-diag
   LASPH  =      T    aspherical Exc in radial PAW
   METAGGA=      F    non-selfconsistent MetaGGA calc.

 Electronic Relaxation 1
   ENCUT  =  500.0 eV  36.75 Ry    6.06 a.u.  28.13 28.13 28.13*2*pi/ulx,y,z
   ENINI  =  500.0     initial cutoff
   ENAUG  =  628.9 eV  augmentation charge cutoff
   NELM   =     60;   NELMIN=  2; NELMDL=  0     # of ELM steps 
   EDIFF  = 0.1E-05   stopping-criterion for ELM
   LREAL  =      T    real-space projection
   NLSPLINE    = F    spline interpolate recip. space projectors
   LCOMPAT=      F    compatible to vasp.4.4
   GGA_COMPAT  = T    GGA compatible to vasp.4.4-vasp.4.6
   LMAXPAW     = -100 max onsite density
   LMAXMIX     =    4 max onsite mixed and CHGCAR
   VOSKOWN=      0    Vosko Wilk Nusair interpolation
   ROPT   =   -0.00010  -0.00010  -0.00010  -0.00010
 Ionic relaxation
   EDIFFG = -.5E-01   stopping-criterion for IOM
   NSW    =    100    number of steps for IOM
   NBLOCK =      1;   KBLOCK =    100    inner block; outer block 
   IBRION =      1    ionic relax: 0-MD 1-quasi-New 2-CG
   NFREE  =      0    steps in history (QN), initial steepest desc. (CG)
   ISIF   =      2    stress and relaxation
   IWAVPR =     11    prediction:  0-non 1-charg 2-wave 3-comb
   ISYM   =      0    0-nonsym 1-usesym 2-fastsym
   LCORR  =      T    Harris-Foulkes like correction to forces

   POTIM  = 0.5000    time-step for ionic-motion
   TEIN   =    0.0    initial temperature
   TEBEG  =    0.0;   TEEND  =   0.0 temperature during run
   SMASS  =  -3.00    Nose mass-parameter (am)
   estimated Nose-frequenzy (Omega)   =  0.10E-29 period in steps =****** mass=  -0.544E-26a.u.
   SCALEE = 1.0000    scale energy and forces
   NPACO  =    256;   APACO  = 16.0  distance and # of slots for P.C.
   PSTRESS=    0.0 pullay stress

  Mass of Ions in am
   POMASS =   7.01 47.88 16.00 19.00
  Ionic Valenz
   ZVAL   =   3.00 10.00  6.00  7.00
  Atomic Wigner-Seitz radii
   RWIGS  =  -1.00 -1.00 -1.00 -1.00
  virtual crystal weights 
   VCA    =   1.00  1.00  1.00  1.00
   NELECT =    1923.0000    total number of electrons
   NUPDOWN=       1.0000    fix difference up-down

 DOS related values:
   EMIN   =  10.00;   EMAX   =-10.00  energy-range for DOS
   EFERMI =   0.00
   ISMEAR =     0;   SIGMA  =   0.01  broadening in eV -4-tet -1-fermi 0-gaus

 Electronic relaxation 2 (details)
   IALGO  =     38    algorithm
   LDIAG  =      T    sub-space diagonalisation (order eigenvalues)
   LSUBROT=      F    optimize rotation matrix (better conditioning)
   TURBO    =      0    0=normal 1=particle mesh
   IRESTART =      0    0=no restart 2=restart with 2 vectors
   NREBOOT  =      0    no. of reboots
   NMIN     =      0    reboot dimension
   EREF     =   0.00    reference energy to select bands
   IMIX   =      4    mixing-type and parameters
     AMIX     =   0.40;   BMIX     =  1.00
     AMIX_MAG =   1.60;   BMIX_MAG =  1.00
     AMIN     =   0.10
     WC   =   100.;   INIMIX=   1;  MIXPRE=   1;  MAXMIX= -45

 Intra band minimization:
   WEIMIN = 0.0010     energy-eigenvalue tresh-hold
   EBREAK =  0.21E-09  absolut break condition
   DEPER  =   0.30     relativ break condition  

   TIME   =   0.40     timestep for ELM

  volume/ion in A,a.u.               =      14.28        96.39
  Fermi-wavevector in a.u.,A,eV,Ry     =   1.319690  2.493853 23.695660  1.741582
  Thomas-Fermi vector in A             =   2.449570
 
 Write flags
   LWAVE        =      T    write WAVECAR
   LDOWNSAMPLE  =      F    k-point downsampling of WAVECAR
   LCHARG       =      T    write CHGCAR
   LVTOT        =      F    write LOCPOT, total local potential
   LVHAR        =      F    write LOCPOT, Hartree potential only
   LELF         =      F    write electronic localiz. function (ELF)
   LORBIT       =     11    0 simple, 1 ext, 2 COOP (PROOUT), +10 PAW based schemes


 Dipole corrections
   LMONO  =      F    monopole corrections only (constant potential shift)
   LDIPOL =      F    correct potential (dipole corrections)
   IDIPOL =      0    1-x, 2-y, 3-z, 4-all directions 
   EPSILON=  1.0000000 bulk dielectric constant

 LDA+U is selected, type is set to LDAUTYPE =  2
   angular momentum for each species LDAUL =    -1    2   -1   -1
   U (eV)           for each species LDAUU =   0.0  4.2  0.0  0.0
   J (eV)           for each species LDAUJ =   0.0  0.0  0.0  0.0
 Exchange correlation treatment:
   GGA     =    PS    GGA type
   LEXCH   =    14    internal setting for exchange type
   VOSKOWN=      0    Vosko Wilk Nusair interpolation
   LHFCALC =     F    Hartree Fock is set to
   LHFONE  =     F    Hartree Fock one center treatment
   AEXX    =    0.0000 exact exchange contribution

 Linear response parameters
   LEPSILON=     F    determine dielectric tensor
   LRPA    =     F    only Hartree local field effects (RPA)
   LNABLA  =     F    use nabla operator in PAW spheres
   LVEL    =     F    velocity operator in full k-point grid
   LINTERFAST=   F  fast interpolation
   KINTER  =     0    interpolate to denser k-point grid
   CSHIFT  =0.1000    complex shift for real part using Kramers Kronig
   OMEGAMAX=  -1.0    maximum frequency
   DEG_THRESHOLD= 0.2000000E-02 threshold for treating states as degnerate
   RTIME   =   -0.100 relaxation time in fs
  (WPLASMAI=    0.000 imaginary part of plasma frequency in eV, 0.658/RTIME)
   DFIELD  = 0.0000000 0.0000000 0.0000000 field for delta impulse in time
 
 Orbital magnetization related:
   ORBITALMAG=     F  switch on orbital magnetization
   LCHIMAG   =     F  perturbation theory with respect to B field
   DQ        =  0.001000  dq finite difference perturbation B field
   LLRAUG    =     F  two centre corrections for induced B field



--------------------------------------------------------------------------------------------------------


 quasi-Newton-method for relaxation of ions
 charge density and potential will be updated during run
 spin polarized calculation
 Variant of blocked Davidson
 Davidson routine will perform the subspace rotation
 perform sub-space diagonalisation
    after iterative eigenvector-optimisation
 modified Broyden-mixing scheme, WC =      100.0
 initial mixing is a Kerker type mixing with AMIX =  0.4000 and BMIX =      1.0000
 Hartree-type preconditioning will be used
 using additional bands          202
 real space projection scheme for non local part
 use partial core corrections
 calculate Harris-corrections to forces 
   (improved forces if not selfconsistent)
 use gradient corrections 
 use of overlap-Matrix (Vanderbilt PP)
 Gauss-broadening in eV      SIGMA  =   0.01


--------------------------------------------------------------------------------------------------------


  energy-cutoff  :      500.00
  volume of cell :     3671.03
      direct lattice vectors                 reciprocal lattice vectors
    15.426331000  0.000000000  0.000000000     0.064824228  0.000000000  0.000000000
     0.000000000 15.426331000  0.000000000     0.000000000  0.064824228  0.000000000
     0.000000000  0.000000000 15.426331000     0.000000000  0.000000000  0.064824228

  length of vectors
    15.426331000 15.426331000 15.426331000     0.064824228  0.064824228  0.064824228


 
 old parameters found on file WAVECAR:
  energy-cutoff  :      500.00
  volume of cell :     3671.03
      direct lattice vectors                 reciprocal lattice vectors
    15.426331000  0.000000000  0.000000000     0.064824228  0.000000000  0.000000000
     0.000000000 15.426331000  0.000000000     0.000000000  0.064824228  0.000000000
     0.000000000  0.000000000 15.426331000     0.000000000  0.000000000  0.064824228

  length of vectors

 
 k-points in units of 2pi/SCALE and weight: Title                                   
   0.01620606  0.01620606  0.01620606       0.250
  -0.01620606  0.01620606  0.01620606       0.250
   0.01620606 -0.01620606  0.01620606       0.250
  -0.01620606 -0.01620606  0.01620606       0.250
 
 k-points in reciprocal lattice and weights: Title                                   
   0.25000000  0.25000000  0.25000000       0.250
  -0.25000000  0.25000000  0.25000000       0.250
   0.25000000 -0.25000000  0.25000000       0.250
  -0.25000000 -0.25000000  0.25000000       0.250
 
 position of ions in fractional coordinates (direct lattice) 
   0.37726972  0.81700581  0.12858682
   0.99578640  0.99577008  0.99415815
   0.99885974  0.99166722  0.49357984
   0.00594785  0.49634070  0.99745094
   0.99440972  0.50364480  0.50730460
   0.49477260  0.99408533  0.00009304
   0.50145473  0.00812325  0.49769880
   0.50416648  0.49450189  0.99714821
   0.49213117  0.49788166  0.49571818
   0.00618678  0.00347235  0.25553808
   0.00250106  0.00781002  0.75657327
   0.99365084  0.49412369  0.25121010
   0.99289165  0.49996240  0.74155330
   0.50560409  0.00785701  0.24989984
   0.49338219  0.00558431  0.75285034
   0.49285268  0.49569281  0.25865483
   0.50112416  0.50359606  0.75970768
   0.99587867  0.25838865  0.00178040
   0.99836839  0.24824101  0.49106839
   0.99777957  0.75861677  0.00588369
   0.99656268  0.75680585  0.50600164
   0.49560676  0.25822489  0.00247693
   0.50907445  0.24490632  0.49784225
   0.50953856  0.75573448  0.99817699
   0.50741032  0.75249296  0.50762674
   0.99942680  0.25886242  0.25491403
   0.00721155  0.24312742  0.74755144
   0.00367419  0.74862009  0.24285753
   0.99287421  0.75046943  0.74305192
   0.50785068  0.24116041  0.25249505
   0.50754574  0.24339919  0.75167668
   0.50640893  0.75150233  0.25464484
   0.50206507  0.74114380  0.74251316
   0.25648474  0.99818807  0.00539316
   0.25156136  0.99288992  0.50576965
   0.24397685  0.50884197  0.99846314
   0.25506449  0.49383780  0.50614152
   0.75685410  0.00104617  0.99346305
   0.74917844  0.00749379  0.49441837
   0.74158195  0.50089257  0.00488581
   0.75556365  0.49815098  0.50554747
   0.24413161  0.00225262  0.24341792
   0.25892533  0.99748354  0.74418124
   0.25528586  0.49232902  0.25217298
   0.24686967  0.50465897  0.73998638
   0.74396345  0.00066938  0.25521817
   0.74775569  0.00740063  0.75554726
   0.75538286  0.49888261  0.24242335
   0.75739336  0.49822012  0.74236260
   0.25738787  0.25312866  0.00627649
   0.25390955  0.25706721  0.50463333
   0.24999845  0.74120450  0.99141335
   0.25225706  0.75455175  0.49378045
   0.75713598  0.25240762  0.00807599
   0.74220213  0.24282159  0.49751457
   0.74317773  0.74929227  0.99345423
   0.74169017  0.75261839  0.49229234
   0.25061135  0.25907191  0.24394521
   0.24450991  0.25239261  0.74370227
   0.24033574  0.74680561  0.25874564
   0.24777712  0.74021172  0.75420916
   0.74142301  0.25206665  0.24266125
   0.74475041  0.24269498  0.75091449
   0.74401040  0.75070666  0.25534144
   0.75722280  0.75027296  0.75565873
   0.01104451  0.50380724  0.62458745
   0.00026177  0.00504976  0.37592109
   0.00536393  0.00190319  0.87284590
   0.49670740  0.48158904  0.37674487
   0.49255416  0.48846785  0.87567249
   0.99768388  0.74488982  0.12538518
   0.00354748  0.74502238  0.62438544
   0.50456457  0.74045333  0.62462868
   0.99005197  0.24810366  0.37625150
   0.26068425  0.99168293  0.12530081
   0.26129264  0.99763856  0.62463383
   0.23779215  0.48713534  0.62563675
   0.74839187  0.48805195  0.12534541
   0.74470583  0.48980031  0.62439975
   0.74598272  0.00286235  0.37586185
   0.74153323  0.00308182  0.87336761
   0.24189187  0.25818446  0.12551774
   0.24977823  0.25574244  0.62472183
   0.73849697  0.26363090  0.12635520
   0.25556378  0.73822102  0.37561674
   0.25339584  0.74262718  0.87439422
   0.75405485  0.74819008  0.37518266
   0.74830348  0.74851296  0.87529807
   0.12493720  0.50882353  0.99273393
   0.62548641  0.51114881  0.99691694
   0.12492631  0.00360483  0.24637349
   0.62433923  0.99935442  0.24579445
   0.62454349  0.26235407  0.49000516
   0.62498882  0.73910421  0.00408379
   0.62384130  0.76751405  0.49438714
   0.12532458  0.25384992  0.75266943
   0.12377785  0.75164401  0.25169872
   0.62539211  0.24611068  0.26516380
   0.62618208  0.25476736  0.75166199
   0.62823206  0.75899458  0.24869706
   0.37580036  0.99565674  0.98947456
   0.37532404  0.50878946  0.50637869
   0.87307185  0.99894340  0.99528737
   0.87546280  0.50812417  0.50239819
   0.37653591  0.99849017  0.76197401
   0.37335244  0.49460005  0.24719087
   0.87571509  0.49700002  0.25007671
   0.87550283  0.51099270  0.74337286
   0.37615099  0.25142665  0.00796204
   0.87455479  0.25257970  0.00941209
   0.87482266  0.74170275  0.74875332
   0.51551784  0.12196280  0.48426792
   0.99911650  0.12636815  0.74450361
   0.49611420  0.12478409  0.27082987
   0.50380018  0.12402620  0.76064018
   0.50310785  0.62475505  0.76012904
   0.00417871  0.37618347  0.00536461
   0.00600732  0.87528060  0.00235690
   0.98734636  0.87500374  0.49939271
   0.50650432  0.37398936  0.01564521
   0.50443539  0.87563944  0.01633983
   0.00841639  0.37435106  0.24616766
   0.26018207  0.62612730  0.01243755
   0.73490765  0.12531870  0.50704282
   0.24496525  0.62422243  0.74056261
   0.74974213  0.12525437  0.74056435
   0.25808826  0.37296865  0.48803438
   0.25918338  0.87496010  0.49366348
   0.24086392  0.37487027  0.26354014
   0.99537480  0.00338193  0.12630702
   0.99876873  0.99803239  0.62361607
   0.00266001  0.51110546  0.12504275
   0.48859989  0.02211205  0.12544537
   0.49129880  0.01167868  0.62238770
   0.50316328  0.51452645  0.12772326
   0.51008890  0.50749386  0.62495189
   0.00091876  0.49433713  0.37617162
   0.99276890  0.49633096  0.87289657
   0.50772880  0.97755134  0.37596851
   0.51861752  0.98591187  0.87512514
   0.01243441  0.24508145  0.12713095
   0.00410949  0.25787974  0.62125239
   0.51200934  0.22897380  0.12700164
   0.50318281  0.23416567  0.62278028
   0.48705346  0.73888648  0.12268411
   0.99198308  0.25189325  0.87432034
   0.99381391  0.75213679  0.37549918
   0.00205749  0.75228463  0.87411772
   0.48755204  0.26953659  0.37581701
   0.49630285  0.26464665  0.87502339
   0.48491540  0.76658846  0.38188877
   0.49642642  0.76434545  0.87403103
   0.24157353  0.48638902  0.12472756
   0.75280202  0.99990922  0.12589401
   0.75170498  0.99287859  0.62289228
   0.24594509  0.00692472  0.37521278
   0.23912479  0.00109962  0.87434489
   0.25022903  0.51843803  0.37506666
   0.26168179  0.50870842  0.87411372
   0.74818390  0.51008272  0.37508815
   0.75501906  0.50965431  0.87424875
   0.25819723  0.76857755  0.12552832
   0.24506275  0.75812870  0.62512744
   0.74747826  0.26450463  0.62280214
   0.75710857  0.75190592  0.12412186
   0.74549378  0.75222175  0.62504469
   0.25767873  0.23759542  0.37390330
   0.25602488  0.24469276  0.87535574
   0.76583326  0.23893321  0.37419842
   0.75677923  0.24055579  0.87623850
   0.12638578  0.00556650  0.00745713
   0.12499030  0.99401162  0.50441691
   0.12379983  0.49383925  0.48994469
   0.62441555  0.00525856  0.01112669
   0.62352736  0.97937630  0.50710199
   0.62552067  0.48690728  0.49636114
   0.12756786  0.99847327  0.74107184
   0.12427559  0.50949662  0.25140107
   0.12381171  0.49117002  0.76501046
   0.62361858  0.99430329  0.73587463
   0.62512193  0.49767241  0.25226935
   0.62679895  0.49026629  0.75827124
   0.12532399  0.24798024  0.99074414
   0.12389554  0.25345016  0.49294264
   0.12479418  0.73985217  0.00244129
   0.12395876  0.75824827  0.49414890
   0.62627562  0.24641850  0.99094099
   0.12450874  0.23666884  0.26113454
   0.12368577  0.75637167  0.75329937
   0.62591419  0.75704395  0.75321847
   0.37769399  0.01353841  0.48702177
   0.37345013  0.49280776  0.01016709
   0.87432466  0.01668891  0.50286148
   0.87488186  0.49487230  0.00174586
   0.37566410  0.99830687  0.26132611
   0.37477338  0.50071115  0.73862043
   0.87385224  0.00274831  0.25083296
   0.87452573  0.99620071  0.74851887
   0.37931627  0.23493207  0.50167719
   0.37410506  0.76795265  0.00711556
   0.37563275  0.73709217  0.50877775
   0.87432120  0.24107341  0.50961689
   0.87253405  0.76040947  0.99622219
   0.87242879  0.73565064  0.50633818
   0.37779600  0.25689655  0.24205575
   0.37695052  0.24777863  0.74786825
   0.37369608  0.75602388  0.24087211
   0.37456752  0.75243291  0.74597746
   0.87417016  0.25670832  0.23958392
   0.87482049  0.25242070  0.74309403
   0.87522442  0.74609908  0.24988209
   0.00099896  0.12747741  0.00038688
   0.00716398  0.12570969  0.50830297
   0.98953577  0.62602591  0.99262804
   0.00924628  0.62681197  0.49069322
   0.50123856  0.12459298  0.98550892
   0.48526331  0.62888152  0.98949844
   0.51266344  0.62552923  0.48690196
   0.99175225  0.12824417  0.24672584
   0.99872871  0.62368372  0.25942211
   0.01339874  0.62481054  0.75741362
   0.50014000  0.62117617  0.26943439
   0.99419752  0.37400861  0.49963597
   0.48783626  0.37001855  0.51728316
   0.48297281  0.87912069  0.51368510
   0.99345979  0.37508714  0.74919966
   0.99461857  0.87647326  0.24968994
   0.99787003  0.87564211  0.74680531
   0.50465377  0.37069487  0.23281449
   0.49540669  0.37295627  0.73596384
   0.48847163  0.88142699  0.22575343
   0.50011043  0.87584837  0.74045044
   0.24985443  0.12501716  0.00250037
   0.24288511  0.12390182  0.50234464
   0.23928002  0.62622034  0.51216649
   0.74738154  0.12675435  0.00808897
   0.76484288  0.62576226  0.00710505
   0.73590263  0.62525089  0.50591770
   0.25870297  0.12660385  0.24384197
   0.25000872  0.12460082  0.75065237
   0.25231212  0.62484044  0.23247968
   0.75634867  0.12662023  0.24280788
   0.74694827  0.62464588  0.24222625
   0.73650077  0.62478680  0.74376054
   0.24644543  0.37721099  0.98897685
   0.23999529  0.87360092  0.99413192
   0.74441867  0.37546933  0.98320842
   0.76232212  0.37232838  0.48627576
   0.74036064  0.87538594  0.00334463
   0.76737109  0.87692188  0.49983278
   0.25700641  0.37614579  0.76388116
   0.25321226  0.87537032  0.25987882
   0.24891566  0.87318777  0.75338839
   0.74841755  0.37448040  0.26940035
   0.75839097  0.37418658  0.76214552
   0.76075897  0.87660345  0.24739632
   0.75298421  0.87541442  0.74831283
 
 position of ions in cartesian coordinates  (Angst):
   5.81988762 12.60340200  1.98362283
  15.36133062 15.36107884 15.33621266
  15.40874096 15.29778671  7.61412604
   0.09175357  7.65671590 15.38700840
  15.34009346  7.76939139  7.82584863
   7.63252593 15.33508934  0.00143531
   7.73560659  0.12531200  7.67766645
   7.77743898  7.62834986 15.38233833
   7.59177828  7.68048736  7.64711271
   0.09543932  0.05356560  3.94201503
   0.03858210  0.12047989 11.67114970
  15.32838678  7.62251552  3.87525015
  15.31667520  7.71258550 11.43944660
   7.79961606  0.12120479  3.85503772
   7.61107700  0.08614543 11.61371852
   7.60290864  7.64672135  3.99009501
   7.73050712  7.76863955 11.71950218
  15.36275397  3.98598882  0.02746504
  15.40116128  3.82944792  7.57538357
  15.39207790 11.70267347  0.09076378
  15.37330578 11.67473753  7.80574886
   7.64539385  3.98346261  0.03820987
   7.85315098  3.77800603  7.67987933
   7.86031048 11.65821019 15.39820869
   7.82747956 11.60820548  7.83081815
  15.41748868  3.99329743  3.93238826
   0.11124782  3.75056412 11.53197596
   0.05667926 11.54846126  3.74640071
  15.31640627 11.57698989 11.46256489
   7.83427270  3.72022036  3.89507214
   7.82956861  3.75475648 11.59561332
   7.81203173 11.59292364  3.92823557
   7.74502189 11.43312954 11.45425377
   3.95661856 15.39837950  0.08319660
   3.88066886 15.31664861  7.80217007
   3.76366770  7.84956459 15.40262289
   3.93470922  7.61810542  7.80790655
  11.67548191  0.01613850 15.32548978
  11.55707456  0.11560161  7.62706143
  11.43988857  7.72693460  0.07537015
  11.65557492  7.68464187  7.79874265
   3.76605496  0.03474964  3.75504535
   3.99426779 15.38751130 11.47998619
   3.93812423  7.59483049  3.89010381
   3.80829329  7.78503637 11.41527487
  11.47662647  0.01032608  3.93707996
  11.53512673  0.11416455 11.65532213
  11.65278609  7.69592830  3.73970282
  11.68380064  7.68570853 11.45193119
   3.97055042  3.90484653  0.09682315
   3.91689273  3.96560390  7.78464085
   3.85655881 11.43406596 15.29387056
   3.89140086 11.63996512  7.61722068
  11.67983028  3.89372351  0.12458296
  11.44945576  3.74584622  7.67482444
  11.46450573 11.55883050 15.32535373
  11.44155801 11.61014047  7.59426451
   3.86601369  3.99652905  3.76317954
   3.77189075  3.89349192 11.47259733
   3.70749873 11.52047059  3.99149582
   3.82229186 11.41875093 11.63468020
  11.43743680  3.88846361  3.74337281
  11.48876629  3.74389310 11.58385547
  11.47735068 11.58064940  3.93898155
  11.68116955 11.57395910 11.65704168
   0.17037623  7.77189725  9.63509275
   0.00403815  0.07789928  5.79908316
   0.08274577  0.02935930 13.46480973
   7.66237274  7.42915198  5.81179113
   7.59830354  7.53526676 13.50841368
  15.39060176 11.49091696  1.93423324
   0.05472461 11.49296178  9.63197643
   7.78358007 11.42247819  9.63572883
  15.27286946  3.82732917  5.80418022
   4.02140150 15.29802908  1.93293178
   4.03078668 15.38990257  9.63580818
   3.66826037  7.51471101  9.65127955
  11.54494072  7.52885095  1.93361984
  11.48807857  7.55582163  9.63219730
  11.50777635  0.04415553  5.79816933
  11.43913711  0.04754120 13.47285777
   3.73150412  3.98283897  1.93627815
   3.85316161  3.94516748  9.63716574
  11.39229873  4.06685753  1.94919712
   3.94241152 11.38804185  5.79438824
   3.90896810 11.45601264 13.48869468
  11.63229969 11.54182786  5.78769194
  11.54357721 11.54680869 13.50263771
   1.92732257  7.84928020 15.31424220
   9.64896036  7.88515068 15.37877063
   1.92715453  0.05560924  3.80063904
   9.63126369 15.41637201  3.79170655
   9.63441453  4.04716078  7.55898183
   9.64128437 11.40166617  0.06299783
   9.62358233 11.83992583  7.62657960
   1.93329842  3.91597295 11.61092783
   1.90943802 11.59510932  3.88278782
   9.64750572  3.79658477  4.09050453
   9.65969211  3.93012564 11.59538659
   9.69131576 11.70850161  3.83648312
   5.79722080 15.35933041 15.26396207
   5.78987281  7.84875464  7.81156530
  13.46829529 15.41003161 15.35363247
  13.50517891  7.83849168  7.75016084
   5.80856751 15.40303991 11.75446323
   5.75945825  7.62986410  3.81324820
  13.50907086  7.66688678  3.85776611
  13.50579640  7.88274253 11.46751580
   5.80262966  3.87859078  0.12282514
  13.49117173  3.89637802  0.14519409
  13.49530389 11.44175210 11.55051658
   7.95254881  1.88143855  7.47047718
  15.41270177  1.94939685 11.48495919
   7.65322190  1.92496064  4.17791127
   7.77178839  1.91326927 11.73388713
   7.76110820  9.63767815 11.72600219
   0.06446216  5.80313066  0.08275620
   0.09267096 13.50236830  0.03635833
  15.23113183 13.49809734  7.70379725
   7.81350329  5.76928364  0.24134815
   7.78158727 13.50790381  0.25206361
   0.12983401  5.77486341  3.79746377
   4.01365479  9.65884694  0.19186576
  11.33692870  1.93320777  7.82181042
   3.77891508  9.62946182 11.42416388
  11.56577027  1.93221531 11.42419079
   3.98135493  5.75353784  7.52857987
   3.99824861 13.49742417  7.61541623
   3.71564650  5.78287280  4.06545749
  15.35498106  0.05217077  1.94845385
  15.40733697 15.39597796  9.62010795
   0.04103422  7.88448198  1.92895089
   7.53730369  0.34110788  1.93516183
   7.57893796  0.18015916  9.60115871
   7.76196327  7.93725534  1.97030121
   7.86880022  7.82876821  9.64071469
   0.01417314  7.62580818  5.80294785
  15.31478166  7.65656563 13.46559141
   7.83239257 15.08003050  5.79981467
   8.00036554 15.20900282 13.49997003
   0.19181734  3.78070752  1.96116409
   0.06339434  3.97813816  9.58364503
   7.89842562  3.53222559  1.95916930
   7.76226456  3.61231706  9.60721475
   7.51344794 11.39830747  1.89256576
  15.30265928  3.88578866 13.48755491
  15.33090227 11.60271111  5.79257464
   0.03173954 11.60499171 13.48442931
   7.52113911  4.15796060  5.79747761
   7.65613198  4.08252678 13.49840043
   7.48046546 11.82564730  5.89114260
   7.65803820 11.79104586 13.48309197
   3.72659317  7.50319799  1.92408857
  11.61297309 15.42493053  1.94208266
  11.59604987 15.31647376  9.60894251
   3.79403040  0.10682308  5.78815650
   3.68881822  0.01696310 13.48793374
   3.86011585  7.99759668  5.78590243
   4.03678995  7.84750439 13.48436758
  11.54173241  7.86870492  5.78623392
  11.64717396  7.86209614 13.48645053
   3.98303587 11.85633176  1.93644134
   3.78041905 11.69514419  9.64342283
  11.53084702  4.08033599  9.60755196
  11.67940746 11.59914954  1.91474497
  11.50023382 11.60402174  9.64214625
   3.97503740  3.66522554  5.76795600
   3.94952454  3.77471156 13.50352744
  11.81399740  3.68586277  5.77250863
  11.67432685  3.71089332 13.51714518
   1.94966882  0.08587070  0.11503614
   1.92814176 15.33395224  7.78130215
   1.90977721  7.61812773  7.55804897
   9.63244098  0.08112027  0.17164398
   9.61873943 15.10818292  7.82272307
   9.64948898  7.51119283  7.65703126
   1.96790398 15.40277914 11.43201951
   1.91711646  7.85966352  3.87819612
   1.90996039  7.57695128 11.80130457
   9.62014667 15.33845160 11.35184565
   9.64333779  7.67725935  3.89159055
   9.66920807  7.56301012 11.69734308
   1.93328933  3.82542529 15.28354708
   1.91125358  3.90980602  7.60429632
   1.92511629 11.41320444  0.03766015
   1.91222891 11.69698883  7.62290449
   9.66113501  3.80133327 15.28658373
   1.92071307  3.65093179  4.02834777
   1.90801764 11.66803967 11.62064543
   9.65555943 11.67841059 11.61939748
   5.82643249  0.20884792  7.51295897
   5.76096533  7.60221566  0.15684097
  13.48762160  0.25744871  7.75730762
  13.49621722  7.63406389  0.02693228
   5.79511876 15.40021219  4.03130311
   5.78137828  7.72413586 11.39420331
  13.48033392  0.04239631  3.86943225
  13.49072346 15.36772184 11.54689983
   5.85145841  3.62413993  7.73903835
   5.77106855 11.84669176  0.10976696
   5.79463519 11.37062782  7.84857398
  13.48756820  3.71887825  7.86151888
  13.45999902 11.73032822 15.36805330
  13.45837531 11.34839024  7.81094039
   5.82800609  3.96297116  3.73403210
   5.81496347  3.82231509 11.53686321
   5.76475942 11.66267461  3.71577292
   5.77820255 11.60727913 11.50769520
  13.48523816  3.96006759  3.69590078
  13.49527046  3.89392527 11.46321442
  13.50150163 11.50957132  3.85476386
   0.01541035  1.96650877  0.00596818
   0.11051400  1.93923929  7.84124980
  15.26490628  9.65728287 15.31260868
   0.14263614  9.66940900  7.56959600
   7.73227193  1.92201258 15.20278684
   7.48583245  9.70133456 15.26433041
   7.90851589  9.64962094  7.51111083
  15.29909846  1.97833698  3.80607441
  15.40671965  9.62115149  4.00193139
   0.20669345  9.63853422 11.68411325
   7.71532518  9.58246917  4.15638413
  15.33682009  5.76958063  7.70754980
   7.52552366  5.70802861  7.97978121
   7.45049846 13.56160680  7.92427645
  15.32543963  5.78621831 11.55740199
  15.34331521 13.52076661  3.85179971
  15.39347334 13.50794504 11.52046597
   7.78495605  5.71846182  3.59147338
   7.64230758  5.75334694 11.35322179
   7.53532512 13.59718451  3.48254717
   7.71486906 13.51112683 11.42243356
   3.85433714  1.92855611  0.03857148
   3.74682616  1.91135045  7.74933463
   3.69121278  9.66028227  7.90084978
  11.52935506  1.95535455  0.12478318
  11.79871940  9.65321582  0.10960480
  11.35227748  9.64532722  7.80445387
   3.99083771  1.95303283  3.76158695
   3.85671721  1.92213350 11.57981187
   3.89225032  9.63899544  3.58630848
  11.66768497  1.95328554  3.74563473
  11.52267125  9.63599414  3.73666226
  11.36150466  9.63816794 11.47349620
   3.80174878  5.81898157 15.25628424
   3.70224682 13.47645703 15.33580805
  11.48364875  5.79211414 15.16729859
  11.75983327  5.74366080  7.50145080
  11.42104826 13.50399320  0.05159533
  11.83772048 13.52768715  7.71058598
   3.96466590  5.80254951 11.78388368
   3.90613619 13.50375227  4.00897666
   3.83985538 13.47008357 11.62201873
  11.54533686  5.77685864  4.15585900
  11.69919015  5.77232604 11.75710907
  11.73571967 13.52277495  3.81641751
  11.61578359 13.50443253 11.54372143
 


--------------------------------------------------------------------------------------------------------


 k-point  1 :   0.2500 0.2500 0.2500  plane waves:   93161
 k-point  2 :  -0.2500 0.2500 0.2500  plane waves:   93161
 k-point  3 :   0.2500-0.2500 0.2500  plane waves:   93161
 k-point  4 :  -0.2500-0.2500 0.2500  plane waves:   93161

 maximum and minimum number of plane-waves per node :     11686    11606

 maximum number of plane-waves:     93161
 maximum index in each direction: 
   IXMAX=   28   IYMAX=   28   IZMAX=   27
   IXMIN=  -28   IYMIN=  -28   IZMIN=  -28


 real space projection operators:
  total allocation   :     105601.59 KBytes
  max/ min on nodes  :      13246.29      13161.45


 parallel 3D FFT for wavefunctions:
    minimum data exchange during FFTs selected (reduces bandwidth)
 parallel 3D FFT for charge:
    minimum data exchange during FFTs selected (reduces bandwidth)


 total amount of memory used by VASP MPI-rank0   291467. kBytes
=======================================================================

   base      :      30000. kBytes
   nonlr-proj:      49432. kBytes
   fftplans  :      27976. kBytes
   grid      :      34041. kBytes
   one-center:       1026. kBytes
   wavefun   :     148992. kBytes
 
     INWAV:  cpu time   51.8507: real time   53.2233
 Broyden mixing: mesh for mixing (old mesh)
   NGX = 57   NGY = 57   NGZ = 57
  (NGX  =240   NGY  =240   NGZ  =240)
  gives a total of 185193 points

 charge density for first step will be calculated from the start-wavefunctions


--------------------------------------------------------------------------------------------------------


 Maximum index for non-local projection operator          968
 Maximum index for augmentation-charges         3295 (set IRDMAX)


--------------------------------------------------------------------------------------------------------


 initial charge from wavefunction
 First call to EWALD:  gamma=   0.115
 Maximum number of real-space cells 3x 3x 3
 Maximum number of reciprocal cells 3x 3x 3

    FEWALD:  cpu time    0.0274: real time    0.0274


--------------------------------------- Iteration      1(   1)  ---------------------------------------


    POTLOK:  cpu time    0.2862: real time    0.2967
    SETDIJ:  cpu time    1.4467: real time    1.4472
     EDDAV:  cpu time  131.1595: real time  132.2719
       DOS:  cpu time    0.0030: real time    0.0030
    CHARGE:  cpu time    5.2634: real time    5.2665
    MIXING:  cpu time    0.0142: real time    0.0147
    --------------------------------------------
      LOOP:  cpu time  138.1731: real time  139.3001

 eigenvalue-minimisations  : 22668
 total energy-change (2. order) :-0.1841891E+04  (-0.3666830E+03)
 number of electron    1923.0000029 magnetization       1.0000000
 augmentation part      502.9049288 magnetization       0.8414030

 Broyden mixing:
  rms(total) = 0.72199E+01    rms(broyden)= 0.72171E+01
  rms(prec ) = 0.11071E+02
  weight for this iteration     100.00

 Free energy of the ion-electron system (eV)
  ---------------------------------------------------
  alpha Z        PSCENC =      6118.73324990
  Ewald energy   TEWEN  =   -103675.68606901
  -Hartree energ DENC   =    -64942.92784006
  -exchange      EXHF   =         0.00000000
  -V(xc)+E(xc)   XCENC  =      8956.45532161
  PAW double counting   =    197257.92949010  -198251.52667602
  entropy T*S    EENTRO =        -0.00561736
  eigenvalues    EBANDS =    -25882.11528902
  atomic energy  EATOM  =    178577.25249613
  Solvation  Ediel_sol  =         0.00000000
  ---------------------------------------------------
  free energy    TOTEN  =     -1841.89093373 eV

  energy without entropy =    -1841.88531637  energy(sigma->0) =    -1841.88812505


--------------------------------------------------------------------------------------------------------




--------------------------------------- Iteration      1(   2)  ---------------------------------------


    POTLOK:  cpu time    0.2727: real time    0.2729
    SETDIJ:  cpu time    1.4104: real time    1.4110
     EDDAV:  cpu time  145.7965: real time  146.6207
       DOS:  cpu time    0.0028: real time    0.0028
    CHARGE:  cpu time    5.1709: real time    5.2877
    MIXING:  cpu time    0.0183: real time    0.0184
    --------------------------------------------
      LOOP:  cpu time  152.6716: real time  153.6135

 eigenvalue-minimisations  : 26472
 total energy-change (2. order) : 0.4174853E+02  (-0.2302057E+03)
 number of electron    1923.0000029 magnetization       1.0000000
 augmentation part      500.5781422 magnetization       0.4029015

 Broyden mixing:
  rms(total) = 0.66067E+01    rms(broyden)= 0.66024E+01
  rms(prec ) = 0.89114E+01
  weight for this iteration     100.00

 eigenvalues of (default mixing * dielectric matrix)
  average eigenvalue GAMMA=   0.5125
  0.5125

 Free energy of the ion-electron system (eV)
  ---------------------------------------------------
  alpha Z        PSCENC =      6118.73324990
  Ewald energy   TEWEN  =   -103675.68606901
  -Hartree energ DENC   =    -64980.88636113
  -exchange      EXHF   =         0.00000000
  -V(xc)+E(xc)   XCENC  =      8955.42442198
  PAW double counting   =    198716.07906078  -199688.28507899
  entropy T*S    EENTRO =        -0.00161556
  eigenvalues    EBANDS =    -25822.77251221
  atomic energy  EATOM  =    178577.25249613
  Solvation  Ediel_sol  =         0.00000000
  ---------------------------------------------------
  free energy    TOTEN  =     -1800.14240809 eV

  energy without entropy =    -1800.14079254  energy(sigma->0) =    -1800.14160031


--------------------------------------------------------------------------------------------------------




--------------------------------------- Iteration      1(   3)  ---------------------------------------


    POTLOK:  cpu time    0.3886: real time    0.4039
    SETDIJ:  cpu time    1.4075: real time    1.4550
     EDDAV:  cpu time  147.1769: real time  148.2666
       DOS:  cpu time    0.0023: real time    0.0023
    CHARGE:  cpu time    5.2459: real time    5.2496
    MIXING:  cpu time    0.0170: real time    0.0170
    --------------------------------------------
      LOOP:  cpu time  154.2383: real time  155.3945

 eigenvalue-minimisations  : 26616
 total energy-change (2. order) :-0.1643376E+02  (-0.9749356E+02)
 number of electron    1923.0000028 magnetization       1.0000000
 augmentation part      493.2863689 magnetization       0.6117819

 Broyden mixing:
  rms(total) = 0.46864E+01    rms(broyden)= 0.46847E+01
  rms(prec ) = 0.54198E+01
  weight for this iteration     100.00

 eigenvalues of (default mixing * dielectric matrix)
  average eigenvalue GAMMA=   0.5016
  0.5016  0.5016

 Free energy of the ion-electron system (eV)
  ---------------------------------------------------
  alpha Z        PSCENC =      6118.73324990
  Ewald energy   TEWEN  =   -103675.68606901
  -Hartree energ DENC   =    -65039.57145017
  -exchange      EXHF   =         0.00000000
  -V(xc)+E(xc)   XCENC  =      8958.91488326
  PAW double counting   =    198759.64080334  -199731.99653654
  entropy T*S    EENTRO =        -0.00188499
  eigenvalues    EBANDS =    -25783.86165909
  atomic energy  EATOM  =    178577.25249613
  Solvation  Ediel_sol  =         0.00000000
  ---------------------------------------------------
  free energy    TOTEN  =     -1816.57616717 eV

  energy without entropy =    -1816.57428218  energy(sigma->0) =    -1816.57522467


--------------------------------------------------------------------------------------------------------




--------------------------------------- Iteration      1(   4)  ---------------------------------------


    POTLOK:  cpu time    0.2671: real time    0.2673
    SETDIJ:  cpu time    1.3970: real time    1.3978
     EDDAV:  cpu time  144.4368: real time  145.7645
       DOS:  cpu time    0.0023: real time    0.0023
    CHARGE:  cpu time    5.2418: real time    5.2459
    MIXING:  cpu time    0.0166: real time    0.0169
    --------------------------------------------
      LOOP:  cpu time  151.3615: real time  152.6948

 eigenvalue-minimisations  : 26124
 total energy-change (2. order) : 0.3091461E+02  (-0.2060537E+02)
 number of electron    1923.0000029 magnetization       1.0000000
 augmentation part      494.5409969 magnetization       0.6069842

 Broyden mixing:
  rms(total) = 0.31810E+01    rms(broyden)= 0.31805E+01
  rms(prec ) = 0.37133E+01
  weight for this iteration     100.00

 eigenvalues of (default mixing * dielectric matrix)
  average eigenvalue GAMMA=   0.6356
  0.6791  0.6791  0.5486

 Free energy of the ion-electron system (eV)
  ---------------------------------------------------
  alpha Z        PSCENC =      6118.73324990
  Ewald energy   TEWEN  =   -103675.68606901
  -Hartree energ DENC   =    -65017.67567212
  -exchange      EXHF   =         0.00000000
  -V(xc)+E(xc)   XCENC  =      8963.89193613
  PAW double counting   =    198764.41240118  -199750.46061262
  entropy T*S    EENTRO =        -0.00012657
  eigenvalues    EBANDS =    -25766.12915693
  atomic energy  EATOM  =    178577.25249613
  Solvation  Ediel_sol  =         0.00000000
  ---------------------------------------------------
  free energy    TOTEN  =     -1785.66155391 eV

  energy without entropy =    -1785.66142734  energy(sigma->0) =    -1785.66149063


--------------------------------------------------------------------------------------------------------




--------------------------------------- Iteration      1(   5)  ---------------------------------------


    POTLOK:  cpu time    0.3028: real time    0.3051
    SETDIJ:  cpu time    1.4060: real time    1.4071
     EDDAV:  cpu time  147.2164: real time  148.5416
       DOS:  cpu time    0.0018: real time    0.0018
    CHARGE:  cpu time    5.2203: real time    5.2242
    MIXING:  cpu time    0.0081: real time    0.0081
    --------------------------------------------
      LOOP:  cpu time  154.1554: real time  155.4879

 eigenvalue-minimisations  : 26496
 total energy-change (2. order) : 0.2144411E+02  (-0.8702824E+01)
 number of electron    1923.0000029 magnetization       1.0000000
 augmentation part      494.9934706 magnetization       0.6420888

 Broyden mixing:
  rms(total) = 0.18027E+01    rms(broyden)= 0.18021E+01
  rms(prec ) = 0.20584E+01
  weight for this iteration     100.00

 eigenvalues of (default mixing * dielectric matrix)
  average eigenvalue GAMMA=   0.6647
  0.8046  0.8046  0.5248  0.5248

 Free energy of the ion-electron system (eV)
  ---------------------------------------------------
  alpha Z        PSCENC =      6118.73324990
  Ewald energy   TEWEN  =   -103675.68606901
  -Hartree energ DENC   =    -65017.36577243
  -exchange      EXHF   =         0.00000000
  -V(xc)+E(xc)   XCENC  =      8967.26027997
  PAW double counting   =    198208.89763348  -199205.35318321
  entropy T*S    EENTRO =        -0.00000000
  eigenvalues    EBANDS =    -25737.95607832
  atomic energy  EATOM  =    178577.25249613
  Solvation  Ediel_sol  =         0.00000000
  ---------------------------------------------------
  free energy    TOTEN  =     -1764.21744349 eV

  energy without entropy =    -1764.21744349  energy(sigma->0) =    -1764.21744349


--------------------------------------------------------------------------------------------------------




--------------------------------------- Iteration      1(   6)  ---------------------------------------


    POTLOK:  cpu time    0.3389: real time    0.3414
    SETDIJ:  cpu time    1.4097: real time    1.4108
     EDDAV:  cpu time  149.4984: real time  150.4922
       DOS:  cpu time    0.0019: real time    0.0019
    CHARGE:  cpu time    5.2376: real time    5.2411
    MIXING:  cpu time    0.0093: real time    0.0093
    --------------------------------------------
      LOOP:  cpu time  156.4959: real time  157.4969

 eigenvalue-minimisations  : 27048
 total energy-change (2. order) : 0.4122601E+01  (-0.2375679E+01)
 number of electron    1923.0000029 magnetization       1.0000000
 augmentation part      496.1153292 magnetization       0.5960235

 Broyden mixing:
  rms(total) = 0.12233E+01    rms(broyden)= 0.12230E+01
  rms(prec ) = 0.13328E+01
  weight for this iteration     100.00

 eigenvalues of (default mixing * dielectric matrix)
  average eigenvalue GAMMA=   0.7282
  0.9242  0.9242  0.6326  0.6326  0.5273

 Free energy of the ion-electron system (eV)
  ---------------------------------------------------
  alpha Z        PSCENC =      6118.73324990
  Ewald energy   TEWEN  =   -103675.68606901
  -Hartree energ DENC   =    -64987.79041584
  -exchange      EXHF   =         0.00000000
  -V(xc)+E(xc)   XCENC  =      8967.66575507
  PAW double counting   =    197931.50846736  -198931.85553591
  entropy T*S    EENTRO =        -0.00000000
  eigenvalues    EBANDS =    -25759.92279020
  atomic energy  EATOM  =    178577.25249613
  Solvation  Ediel_sol  =         0.00000000
  ---------------------------------------------------
  free energy    TOTEN  =     -1760.09484250 eV

  energy without entropy =    -1760.09484250  energy(sigma->0) =    -1760.09484250


--------------------------------------------------------------------------------------------------------




--------------------------------------- Iteration      1(   7)  ---------------------------------------


    POTLOK:  cpu time    0.2605: real time    0.2633
    SETDIJ:  cpu time    1.3779: real time    1.3783
     EDDAV:  cpu time  151.0822: real time  152.0485
       DOS:  cpu time    0.0018: real time    0.0018
    CHARGE:  cpu time    5.2335: real time    5.2369
    MIXING:  cpu time    0.0083: real time    0.0083
    --------------------------------------------
      LOOP:  cpu time  157.9643: real time  158.9372

 eigenvalue-minimisations  : 27516
 total energy-change (2. order) : 0.1442129E+01  (-0.7045437E+00)
 number of electron    1923.0000029 magnetization       1.0000000
 augmentation part      496.5631368 magnetization       0.6013056

 Broyden mixing:
  rms(total) = 0.83591E+00    rms(broyden)= 0.83555E+00
  rms(prec ) = 0.88573E+00
  weight for this iteration     100.00

 eigenvalues of (default mixing * dielectric matrix)
  average eigenvalue GAMMA=   0.8582
  1.2818  1.2818  0.7094  0.7094  0.5835  0.5835

 Free energy of the ion-electron system (eV)
  ---------------------------------------------------
  alpha Z        PSCENC =      6118.73324990
  Ewald energy   TEWEN  =   -103675.68606901
  -Hartree energ DENC   =    -64970.41457356
  -exchange      EXHF   =         0.00000000
  -V(xc)+E(xc)   XCENC  =      8967.16976569
  PAW double counting   =    197649.82864672  -198652.47444663
  entropy T*S    EENTRO =        -0.00000000
  eigenvalues    EBANDS =    -25773.06178305
  atomic energy  EATOM  =    178577.25249613
  Solvation  Ediel_sol  =         0.00000000
  ---------------------------------------------------
  free energy    TOTEN  =     -1758.65271379 eV

  energy without entropy =    -1758.65271379  energy(sigma->0) =    -1758.65271379


--------------------------------------------------------------------------------------------------------




--------------------------------------- Iteration      1(   8)  ---------------------------------------


    POTLOK:  cpu time    0.2603: real time    0.2631
    SETDIJ:  cpu time    1.3777: real time    1.3782
     EDDAV:  cpu time  148.3484: real time  149.6671
       DOS:  cpu time    0.0018: real time    0.0018
    CHARGE:  cpu time    5.2337: real time    5.2372
    MIXING:  cpu time    0.0082: real time    0.0082
    --------------------------------------------
      LOOP:  cpu time  155.2302: real time  156.5556

 eigenvalue-minimisations  : 26640
 total energy-change (2. order) :-0.2102896E-01  (-0.5656420E+00)
[...]
   81        1.574   3.459   0.000   5.033
   82        1.574   3.458   0.000   5.033
   83        1.574   3.457   0.000   5.031
   84        1.576   3.467   0.000   5.043
   85        1.576   3.464   0.000   5.040
   86        1.575   3.469   0.000   5.044
   87        1.575   3.464   0.000   5.039
   88        1.575   3.464   0.000   5.038
   89        1.575   3.459   0.000   5.033
   90        1.575   3.455   0.000   5.030
   91        1.575   3.461   0.000   5.035
   92        1.574   3.458   0.000   5.032
   93        1.578   3.466   0.000   5.044
   94        1.577   3.472   0.000   5.049
   95        1.576   3.470   0.000   5.045
   96        1.575   3.462   0.000   5.037
   97        1.575   3.469   0.000   5.044
   98        1.576   3.471   0.000   5.047
   99        1.575   3.462   0.000   5.037
  100        1.574   3.476   0.000   5.051
  101        1.574   3.455   0.000   5.029
  102        1.575   3.457   0.000   5.031
  103        1.575   3.457   0.000   5.032
  104        1.574   3.458   0.000   5.031
  105        1.577   3.469   0.000   5.046
  106        1.575   3.462   0.000   5.037
  107        1.575   3.461   0.000   5.036
  108        1.576   3.470   0.000   5.046
  109        1.574   3.460   0.000   5.035
  110        1.575   3.458   0.000   5.032
  111        1.576   3.470   0.000   5.046
  112        1.577   3.454   0.000   5.031
  113        1.576   3.472   0.000   5.049
  114        1.576   3.466   0.000   5.042
  115        1.574   3.460   0.000   5.035
  116        1.574   3.460   0.000   5.034
  117        1.575   3.460   0.000   5.035
  118        1.576   3.461   0.000   5.036
  119        1.576   3.473   0.000   5.049
  120        1.575   3.455   0.000   5.030
  121        1.572   3.458   0.000   5.030
  122        1.577   3.467   0.000   5.044
  123        1.577   3.469   0.000   5.046
  124        1.576   3.465   0.000   5.041
  125        1.576   3.473   0.000   5.049
  126        1.576   3.469   0.000   5.045
  127        1.575   3.454   0.000   5.029
  128        1.574   3.457   0.000   5.031
  129        1.577   3.467   0.000   5.044
  130        1.737   4.369   0.000   6.106
  131        1.737   4.370   0.000   6.107
  132        1.737   4.378   0.000   6.115
  133        1.738   4.378   0.000   6.116
  134        1.738   4.378   0.000   6.116
  135        1.736   4.363   0.000   6.099
  136        1.736   4.362   0.000   6.098
  137        1.738   4.379   0.000   6.118
  138        1.738   4.379   0.000   6.118
  139        1.739   4.376   0.000   6.115
  140        1.739   4.379   0.000   6.118
  141        1.738   4.378   0.000   6.116
  142        1.738   4.379   0.000   6.116
  143        1.738   4.379   0.000   6.116
  144        1.738   4.380   0.000   6.118
  145        1.737   4.388   0.000   6.124
  146        1.737   4.379   0.000   6.116
  147        1.737   4.368   0.000   6.105
  148        1.736   4.369   0.000   6.105
  149        1.739   4.377   0.000   6.116
  150        1.738   4.382   0.000   6.120
  151        1.737   4.380   0.000   6.117
  152        1.738   4.374   0.000   6.112
  153        1.737   4.377   0.000   6.115
  154        1.737   4.371   0.000   6.108
  155        1.737   4.370   0.000   6.108
  156        1.737   4.368   0.000   6.105
  157        1.737   4.365   0.000   6.102
  158        1.738   4.371   0.000   6.109
  159        1.738   4.371   0.000   6.108
  160        1.736   4.366   0.000   6.102
  161        1.736   4.367   0.000   6.103
  162        1.735   4.377   0.000   6.112
  163        1.737   4.371   0.000   6.108
  164        1.737   4.375   0.000   6.112
  165        1.737   4.370   0.000   6.106
  166        1.736   4.368   0.000   6.104
  167        1.737   4.367   0.000   6.103
  168        1.736   4.367   0.000   6.104
  169        1.738   4.372   0.000   6.110
  170        1.737   4.375   0.000   6.113
  171        1.737   4.369   0.000   6.105
  172        1.738   4.385   0.000   6.123
  173        1.737   4.368   0.000   6.105
  174        1.737   4.367   0.000   6.104
  175        1.739   4.377   0.000   6.116
  176        1.736   4.364   0.000   6.101
  177        1.737   4.377   0.000   6.115
  178        1.737   4.368   0.000   6.105
  179        1.738   4.373   0.000   6.110
  180        1.738   4.377   0.000   6.115
  181        1.736   4.369   0.000   6.105
  182        1.737   4.375   0.000   6.113
  183        1.737   4.366   0.000   6.103
  184        1.737   4.378   0.000   6.115
  185        1.738   4.383   0.000   6.121
  186        1.737   4.378   0.000   6.116
  187        1.737   4.368   0.000   6.105
  188        1.738   4.376   0.000   6.114
  189        1.738   4.380   0.000   6.119
  190        1.738   4.380   0.000   6.118
  191        1.739   4.381   0.000   6.120
  192        1.737   4.368   0.000   6.105
  193        1.738   4.384   0.000   6.123
  194        1.736   4.366   0.000   6.103
  195        1.737   4.369   0.000   6.106
  196        1.737   4.379   0.000   6.116
  197        1.737   4.370   0.000   6.107
  198        1.737   4.380   0.000   6.117
  199        1.738   4.377   0.000   6.115
  200        1.737   4.388   0.000   6.125
  201        1.738   4.375   0.000   6.113
  202        1.738   4.375   0.000   6.113
  203        1.738   4.383   0.000   6.121
  204        1.738   4.374   0.000   6.112
  205        1.737   4.375   0.000   6.112
  206        1.737   4.368   0.000   6.104
  207        1.735   4.391   0.000   6.126
  208        1.737   4.381   0.000   6.118
  209        1.737   4.375   0.000   6.112
  210        1.737   4.369   0.000   6.106
  211        1.738   4.376   0.000   6.114
  212        1.737   4.368   0.000   6.104
  213        1.739   4.373   0.000   6.111
  214        1.736   4.366   0.000   6.102
  215        1.738   4.377   0.000   6.116
  216        1.736   4.363   0.000   6.099
  217        1.736   4.361   0.000   6.097
  218        1.736   4.372   0.000   6.108
  219        1.738   4.379   0.000   6.117
  220        1.738   4.380   0.000   6.118
  221        1.738   4.379   0.000   6.117
  222        1.736   4.379   0.000   6.115
  223        1.737   4.380   0.000   6.117
  224        1.738   4.372   0.000   6.110
  225        1.737   4.372   0.000   6.109
  226        1.738   4.378   0.000   6.116
  227        1.737   4.379   0.000   6.116
  228        1.738   4.377   0.000   6.115
  229        1.738   4.373   0.000   6.110
  230        1.736   4.365   0.000   6.102
  231        1.736   4.374   0.000   6.110
  232        1.736   4.366   0.000   6.102
  233        1.737   4.379   0.000   6.117
  234        1.736   4.366   0.000   6.103
  235        1.737   4.365   0.000   6.101
  236        1.738   4.386   0.000   6.124
  237        1.739   4.383   0.000   6.122
  238        1.737   4.376   0.000   6.113
  239        1.738   4.376   0.000   6.114
  240        1.737   4.380   0.000   6.117
  241        1.738   4.372   0.000   6.110
  242        1.738   4.385   0.000   6.123
  243        1.738   4.386   0.000   6.124
  244        1.738   4.378   0.000   6.115
  245        1.738   4.376   0.000   6.114
  246        1.738   4.376   0.000   6.114
  247        1.738   4.382   0.000   6.121
  248        1.737   4.373   0.000   6.111
  249        1.738   4.384   0.000   6.122
  250        1.738   4.373   0.000   6.111
  251        1.738   4.377   0.000   6.115
  252        1.737   4.379   0.000   6.116
  253        1.738   4.377   0.000   6.115
  254        1.739   4.384   0.000   6.123
  255        1.738   4.375   0.000   6.113
  256        1.739   4.385   0.000   6.123
  257        1.738   4.377   0.000   6.115
--------------------------------------------------
tot        345.3591194.559 112.0041651.922
 


 magnetization (x)
 
# of ion       s       p       d       tot
------------------------------------------
    1       -0.000  -0.000   0.000  -0.000
    2       -0.000  -0.000  -0.000  -0.000
    3        0.000  -0.000  -0.000  -0.000
    4        0.000   0.000   0.000   0.000
    5        0.000  -0.000  -0.000  -0.000
    6        0.000   0.000   0.001   0.001
    7        0.000   0.000   0.000   0.000
    8        0.000   0.000   0.000   0.000
    9        0.000   0.000   0.002   0.002
   10       -0.000  -0.000   0.000   0.000
   11       -0.000  -0.000   0.000   0.000
   12        0.000  -0.000  -0.000  -0.000
   13       -0.000  -0.000  -0.000  -0.000
   14        0.000   0.000   0.005   0.005
   15        0.000   0.000   0.000   0.000
   16       -0.000  -0.000   0.005   0.004
   17        0.000   0.000   0.000   0.000
   18       -0.000  -0.000  -0.000  -0.000
   19       -0.000  -0.000  -0.000  -0.000
   20        0.000   0.000  -0.000   0.000
   21       -0.000  -0.000  -0.000  -0.000
   22        0.000  -0.000   0.000   0.000
   23        0.000   0.000   0.000   0.000
   24       -0.000  -0.000   0.002   0.002
   25        0.000  -0.000   0.006   0.006
   26        0.000   0.000  -0.000   0.000
   27       -0.000   0.000   0.000   0.000
   28       -0.000  -0.000  -0.000  -0.000
   29        0.000  -0.000  -0.000  -0.000
   30        0.000  -0.000   0.001   0.001
   31        0.000   0.000   0.000   0.000
   32        0.005   0.006   0.931   0.942
   33       -0.000  -0.000   0.000   0.000
   34       -0.000  -0.000  -0.000  -0.000
   35       -0.000  -0.000  -0.000  -0.000
   36       -0.000  -0.000   0.000   0.000
   37       -0.000  -0.000  -0.000  -0.000
   38       -0.000  -0.000  -0.000  -0.000
   39       -0.000  -0.000  -0.000  -0.000
   40       -0.000  -0.000  -0.000  -0.000
   41       -0.000  -0.000  -0.000  -0.000
   42       -0.000  -0.000   0.000   0.000
   43       -0.000  -0.000  -0.000  -0.000
   44       -0.000  -0.000   0.000   0.000
   45        0.000  -0.000  -0.000  -0.000
   46       -0.000  -0.000  -0.000  -0.000
   47        0.000  -0.000   0.000   0.000
   48        0.000   0.000  -0.000   0.000
   49        0.000  -0.000  -0.000  -0.000
   50       -0.000  -0.000  -0.000  -0.000
   51        0.000   0.000   0.000   0.000
   52        0.000  -0.000   0.000   0.000
   53       -0.000  -0.000  -0.000  -0.000
   54       -0.000  -0.000  -0.000  -0.000
   55       -0.000  -0.000  -0.000  -0.000
   56       -0.000  -0.000  -0.000  -0.000
   57       -0.000  -0.000  -0.000  -0.000
   58        0.000   0.000   0.000   0.000
   59        0.000   0.000   0.000   0.000
   60       -0.000  -0.000   0.000  -0.000
   61       -0.000  -0.000   0.000   0.000
   62       -0.000  -0.000   0.000   0.000
   63       -0.000  -0.000  -0.000  -0.000
   64       -0.000  -0.001  -0.004  -0.005
   65        0.000   0.000  -0.000  -0.000
   66        0.000  -0.000   0.000  -0.000
   67       -0.000   0.000   0.000   0.000
   68        0.000   0.000   0.000   0.000
   69       -0.000  -0.000   0.000  -0.000
   70        0.000  -0.000   0.000  -0.000
   71       -0.000  -0.000   0.000  -0.000
   72       -0.000  -0.000   0.000  -0.000
   73       -0.000  -0.000   0.000  -0.000
   74       -0.000   0.000   0.000   0.000
   75        0.000  -0.000   0.000  -0.000
   76       -0.000   0.000   0.000   0.000
   77        0.000  -0.000   0.000  -0.000
   78       -0.000  -0.000   0.000  -0.000
   79        0.000  -0.000   0.000  -0.000
   80       -0.000  -0.000   0.000  -0.000
   81       -0.000  -0.000   0.000  -0.000
   82       -0.000  -0.000   0.000  -0.000
   83       -0.000  -0.000   0.000  -0.000
   84       -0.000  -0.000   0.000  -0.000
   85       -0.000  -0.000   0.000  -0.000
   86       -0.000  -0.000   0.000  -0.000
   87        0.000  -0.000   0.000  -0.000
   88       -0.000  -0.000   0.000  -0.000
   89        0.000  -0.000   0.000  -0.000
   90       -0.000  -0.000   0.000  -0.000
   91       -0.000  -0.000   0.000  -0.000
   92       -0.000  -0.000   0.000  -0.000
   93       -0.000  -0.000   0.000  -0.000
   94       -0.000  -0.000   0.000  -0.000
   95       -0.000  -0.000   0.000  -0.000
   96        0.000   0.000   0.000   0.000
   97       -0.000  -0.000   0.000  -0.000
   98       -0.000  -0.000   0.000  -0.000
   99       -0.000   0.000   0.000   0.000
  100       -0.001  -0.020   0.000  -0.020
  101       -0.000  -0.000   0.000  -0.000
  102       -0.000  -0.000   0.000  -0.000
  103       -0.000  -0.000   0.000  -0.000
  104        0.000  -0.000   0.000  -0.000
  105       -0.000  -0.000   0.000  -0.000
  106       -0.000  -0.000   0.000  -0.000
  107       -0.000  -0.000   0.000  -0.000
  108        0.000  -0.000   0.000   0.000
  109       -0.000  -0.000   0.000  -0.000
  110        0.000   0.000   0.000   0.000
  111       -0.000  -0.000   0.000  -0.000
  112       -0.000  -0.000   0.000  -0.000
  113        0.000   0.000   0.000   0.000
  114        0.000  -0.000   0.000  -0.000
  115       -0.000  -0.000   0.000  -0.000
  116       -0.000  -0.000   0.000  -0.000
  117        0.000  -0.000   0.000  -0.000
  118       -0.000  -0.000   0.000  -0.000
  119        0.000  -0.000   0.000  -0.000
  120        0.000  -0.000   0.000  -0.000
  121        0.000  -0.000   0.000  -0.000
  122       -0.000  -0.000   0.000  -0.000
  123        0.000  -0.000   0.000  -0.000
  124        0.000   0.000   0.000   0.000
  125        0.000  -0.000   0.000  -0.000
  126        0.000   0.000   0.000   0.000
  127       -0.000  -0.000   0.000  -0.000
  128        0.000  -0.000   0.000  -0.000
  129       -0.000  -0.000   0.000  -0.000
  130       -0.000  -0.000   0.000  -0.000
  131        0.000   0.000   0.000   0.000
  132       -0.000  -0.000   0.000  -0.000
  133        0.000  -0.000   0.000  -0.000
  134        0.000   0.000   0.000   0.000
  135        0.000   0.000   0.000   0.000
  136       -0.000  -0.000   0.000  -0.000
  137       -0.000   0.000   0.000   0.000
  138        0.000   0.000   0.000   0.000
  139       -0.000  -0.000   0.000  -0.000
  140       -0.000   0.000   0.000   0.000
  141       -0.000  -0.000   0.000  -0.000
  142        0.000   0.000   0.000   0.000
  143       -0.000  -0.000   0.000  -0.000
  144       -0.000  -0.000   0.000  -0.000
  145       -0.000   0.002   0.000   0.002
  146        0.000   0.000   0.000   0.000
  147       -0.000  -0.000   0.000  -0.000
  148       -0.000  -0.000   0.000  -0.000
  149       -0.000  -0.000   0.000  -0.000
  150        0.000  -0.000   0.000  -0.000
  151       -0.000   0.003   0.000   0.002
  152       -0.000  -0.000   0.000  -0.000
  153       -0.000  -0.000   0.000  -0.000
  154        0.000  -0.000   0.000  -0.000
  155        0.000   0.000   0.000   0.000
  156       -0.000  -0.000   0.000  -0.000
  157        0.000  -0.000   0.000  -0.000
  158        0.000  -0.000   0.000  -0.000
  159       -0.000   0.000   0.000   0.000
  160        0.000   0.000   0.000   0.000
  161       -0.000   0.000   0.000   0.000
  162       -0.000  -0.000   0.000  -0.000
  163       -0.000  -0.000   0.000  -0.000
  164        0.000   0.000   0.000   0.000
  165       -0.000  -0.000   0.000  -0.000
  166        0.000  -0.000   0.000  -0.000
  167       -0.000  -0.000   0.000  -0.000
  168        0.000   0.000   0.000   0.000
  169        0.000  -0.000   0.000  -0.000
  170        0.000   0.000   0.000   0.000
  171        0.000   0.000   0.000   0.000
  172       -0.000  -0.000   0.000  -0.000
  173       -0.000  -0.000   0.000  -0.000
  174       -0.000  -0.000   0.000  -0.000
  175       -0.000  -0.000   0.000  -0.000
  176       -0.000  -0.000   0.000  -0.000
  177        0.000   0.000   0.000   0.000
  178       -0.000  -0.000   0.000  -0.000
  179        0.000   0.000   0.000   0.000
  180       -0.000  -0.000   0.000  -0.000
  181       -0.000  -0.000   0.000  -0.000
  182       -0.000  -0.000   0.000  -0.000
  183        0.000   0.000   0.000   0.000
  184       -0.000  -0.000   0.000  -0.000
  185       -0.000  -0.000   0.000  -0.000
  186       -0.000  -0.000   0.000  -0.000
  187       -0.000  -0.000   0.000  -0.000
  188       -0.000  -0.000   0.000  -0.000
  189       -0.000   0.000   0.000   0.000
  190       -0.000  -0.000   0.000  -0.000
  191       -0.000  -0.000   0.000  -0.000
  192       -0.000  -0.000   0.000  -0.000
  193        0.000   0.000   0.000   0.000
  194       -0.000  -0.000   0.000  -0.000
  195       -0.000  -0.000   0.000  -0.000
  196       -0.000  -0.000   0.000  -0.000
  197       -0.000  -0.000   0.000  -0.000
  198        0.000   0.000   0.000   0.000
  199       -0.000  -0.000   0.000  -0.000
  200       -0.000  -0.000   0.000  -0.000
  201       -0.000  -0.000   0.000  -0.000
  202        0.000   0.000   0.000   0.000
  203       -0.000  -0.000   0.000  -0.000
  204       -0.000  -0.000   0.000  -0.000
  205       -0.000  -0.000   0.000  -0.000
  206       -0.000  -0.000   0.000  -0.000
  207       -0.000  -0.004   0.000  -0.004
  208       -0.000  -0.000   0.000  -0.000
  209       -0.000  -0.000   0.000  -0.000
  210        0.000   0.000   0.000   0.000
  211       -0.000  -0.000   0.000  -0.000
  212        0.000   0.000   0.000   0.000
  213        0.000   0.000   0.000   0.000
  214       -0.000  -0.000   0.000  -0.000
  215       -0.000   0.000   0.000   0.000
  216        0.000   0.000   0.000   0.000
  217        0.000   0.000   0.000   0.000
  218        0.000  -0.000   0.000  -0.000
  219       -0.000  -0.000   0.000  -0.000
  220        0.000  -0.000   0.000  -0.000
  221        0.000   0.000   0.000   0.000
  222       -0.000   0.003   0.000   0.003
  223       -0.000   0.000   0.000   0.000
  224        0.000   0.000   0.000   0.000
  225        0.000   0.000   0.000   0.000
  226       -0.000   0.000   0.000   0.000
  227       -0.000  -0.000   0.000  -0.000
  228       -0.000   0.000   0.000  -0.000
  229       -0.000  -0.000   0.000  -0.000
  230       -0.000  -0.000   0.000  -0.000
  231       -0.000   0.001   0.000   0.001
  232        0.000  -0.000   0.000  -0.000
  233        0.000   0.000   0.000   0.000
  234       -0.000  -0.000   0.000  -0.000
  235       -0.000  -0.000   0.000  -0.000
  236       -0.000   0.000   0.000   0.000
  237        0.000   0.000   0.000   0.000
  238        0.000   0.000   0.000   0.000
  239       -0.000  -0.000   0.000  -0.000
  240        0.000   0.000   0.000   0.000
  241       -0.000  -0.000   0.000  -0.000
  242        0.000  -0.000   0.000  -0.000
  243        0.000  -0.000   0.000  -0.000
  244       -0.000   0.000   0.000   0.000
  245       -0.000  -0.000   0.000  -0.000
  246       -0.000  -0.000   0.000  -0.000
  247        0.000   0.000   0.000   0.000
  248        0.000   0.000   0.000   0.000
  249        0.000   0.000   0.000   0.000
  250        0.000   0.000   0.000   0.000
  251        0.000   0.000   0.000   0.000
  252        0.000  -0.000   0.000  -0.000
  253       -0.000  -0.000   0.000  -0.000
  254       -0.000  -0.000   0.000  -0.000
  255        0.000   0.000   0.000   0.000
  256       -0.000  -0.000   0.000  -0.000
  257       -0.000  -0.000   0.000  -0.000
--------------------------------------------------
tot          0.003  -0.013   0.949   0.938
 

 total amount of memory used by VASP MPI-rank0   291467. kBytes
=======================================================================

   base      :      30000. kBytes
   nonlr-proj:      49432. kBytes
   fftplans  :      27976. kBytes
   grid      :      34041. kBytes
   one-center:       1026. kBytes
   wavefun   :     148992. kBytes
 
  
  
 General timing and accounting informations for this job:
 ========================================================
  
                  Total CPU time used (sec):     3930.598
                            User time (sec):     3545.715
                          System time (sec):      384.883
                         Elapsed time (sec):     3968.110
  
                   Maximum memory used (kb):      632568.
                   Average memory used (kb):           0.
  
                          Minor page faults:       243555
                          Major page faults:            0
                 Voluntary context switches:        27009
