 vasp.6.3.0 20Jan22 (build Jan 25 2022 13:20:17) complex                        
  
 executed on             LinuxIFC date 2024.06.12  13:24:48
 running on   80 total cores
 distrk:  each k-point on   80 cores,    1 groups
 distr:  one band on NCORE=   8 cores,   10 groups


--------------------------------------------------------------------------------------------------------


 INCAR:
   SYSTEM = LTO
   ISTART = 1
   ENCUT = 700.0
   IALGO = 38
   EDIFF = 1E-6
   PREC = Accurate
   ISPIN = 2
   LMAXMIX = 4
   ADDGRID = .TRUE.
   LASPH = .TRUE.
   LREAL = Auto
   ROPT = 1E-4 1E-4 1E-4
   GGA = PS
   LDAU = .TRUE.
   LDAUTYPE = 2
   LDAUL = 2   -1    -1
   LDAUU = 4.2  0.0  0.0
   LDAUJ = 0.0  0.0  0.0
   NSW = 100
   EDIFFG = -0.01
   IBRION = 1
   ISIF = 3
   ISMEAR = 0
   SIGMA = 0.01
   ISYM = 0
   LORBIT = 11
   NEDOS = 3001
   NWRITE = 2
   NCORE = 8

 POTCAR:   PAW_PBE Ti_pv 07Sep2000                
 POTCAR:   PAW_PBE O 08Apr2002                    
 POTCAR:    PAW_PBE F 08Apr2002                   
 -----------------------------------------------------------------------------
|                                                                             |
|           W    W    AA    RRRRR   N    N  II  N    N   GGGG   !!!           |
|           W    W   A  A   R    R  NN   N  II  NN   N  G    G  !!!           |
|           W    W  A    A  R    R  N N  N  II  N N  N  G       !!!           |
|           W WW W  AAAAAA  RRRRR   N  N N  II  N  N N  G  GGG   !            |
|           WW  WW  A    A  R   R   N   NN  II  N   NN  G    G                |
|           W    W  A    A  R    R  N    N  II  N    N   GGGG   !!!           |
|                                                                             |
|     You use a magnetic or noncollinear calculation, but did not specify     |
|     the initial magnetic moment with the MAGMOM tag. Note that a            |
|     default of 1 will be used for all atoms. This ferromagnetic setup       |
|     may break the symmetry of the crystal, in particular it may rule        |
|     out finding an antiferromagnetic solution. Thence, we recommend         |
|     setting the initial magnetic moment manually or verifying carefully     |
|     that this magnetic setup is desired.                                    |
|                                                                             |
 -----------------------------------------------------------------------------

 POTCAR:   PAW_PBE Ti_pv 07Sep2000                
   VRHFIN =Ti: d3 s1                                                                                
   LEXCH  = PE                                                                                      
   EATOM  =  1042.3781 eV,   76.6126 Ry                                                             
                                                                                                    
   TITEL  = PAW_PBE Ti_pv 07Sep2000                                                                 
   LULTRA =        F    use ultrasoft PP ?                                                          
   IUNSCR =        1    unscreen: 0-lin 1-nonlin 2-no                                               
   RPACOR =    2.200    partial core radius                                                         
   POMASS =   47.880; ZVAL   =   10.000    mass and valenz                                          
   RCORE  =    2.500    outmost cutoff radius                                                       
   RWIGS  =    2.500; RWIGS  =    1.323    wigner-seitz radius (au A)                               
   ENMAX  =  222.338; ENMIN  =  166.753 eV                                                          
   RCLOC  =    1.701    cutoff for local pot                                                        
   LCOR   =        T    correct aug charges                                                         
   LPAW   =        T    paw PP                                                                      
   EAUG   =  482.848                                                                                
   DEXC   =    -.008                                                                                
   RMAX   =    3.092    core radius for proj-oper                                                   
   RAUG   =    1.300    factor for augmentation sphere                                              
   RDEP   =    2.538    radius for radial grids                                                     
   QCUT   =   -4.042; QGAM   =    8.085    optimization parameters                                  
                                                                                                    
   Description                                                                                      
     l     E      TYP  RCUT    TYP  RCUT                                                            
     1   .000     23  2.300                                                                         
     1  -.100     23  2.300                                                                         
     2   .000     23  2.500                                                                         
     2   .000     23  2.500                                                                         
     0   .000     23  2.500                                                                         
     0  1.500     23  2.500                                                                         
     3   .000      7   .000                                                                         
  local pseudopotential read in
  partial core-charges read in
  atomic valenz-charges read in
  non local Contribution for L=           1  read in
    real space projection operators read in
  non local Contribution for L=           1  read in
    real space projection operators read in
  non local Contribution for L=           2  read in
    real space projection operators read in
  non local Contribution for L=           2  read in
    real space projection operators read in
  non local Contribution for L=           0  read in
    real space projection operators read in
  non local Contribution for L=           0  read in
    real space projection operators read in
    PAW grid and wavefunctions read in
 
   number of l-projection  operators is LMAX  =           6
   number of lm-projection operators is LMMAX =          18
 
 POTCAR:   PAW_PBE O 08Apr2002                    
   VRHFIN =O: s2p4                                                                                  
   LEXCH  = PE                                                                                      
   EATOM  =   432.3788 eV,   31.7789 Ry                                                             
                                                                                                    
   TITEL  = PAW_PBE O 08Apr2002                                                                     
   LULTRA =        F    use ultrasoft PP ?                                                          
   IUNSCR =        0    unscreen: 0-lin 1-nonlin 2-no                                               
   RPACOR =     .000    partial core radius                                                         
   POMASS =   16.000; ZVAL   =    6.000    mass and valenz                                          
   RCORE  =    1.520    outmost cutoff radius                                                       
   RWIGS  =    1.550; RWIGS  =     .820    wigner-seitz radius (au A)                               
   ENMAX  =  400.000; ENMIN  =  300.000 eV                                                          
   ICORE  =        2    local potential                                                             
   LCOR   =        T    correct aug charges                                                         
   LPAW   =        T    paw PP                                                                      
   EAUG   =  605.392                                                                                
   DEXC   =     .000                                                                                
   RMAX   =    2.264    core radius for proj-oper                                                   
   RAUG   =    1.300    factor for augmentation sphere                                              
   RDEP   =    1.550    radius for radial grids                                                     
   QCUT   =   -5.520; QGAM   =   11.041    optimization parameters                                  
                                                                                                    
   Description                                                                                      
     l     E      TYP  RCUT    TYP  RCUT                                                            
     0   .000     23  1.200                                                                         
     0  -.700     23  1.200                                                                         
     1   .000     23  1.520                                                                         
     1   .600     23  1.520                                                                         
     2   .000      7  1.500                                                                         
  local pseudopotential read in
  atomic valenz-charges read in
  non local Contribution for L=           0  read in
    real space projection operators read in
  non local Contribution for L=           0  read in
    real space projection operators read in
  non local Contribution for L=           1  read in
    real space projection operators read in
  non local Contribution for L=           1  read in
    real space projection operators read in
    PAW grid and wavefunctions read in
 
   number of l-projection  operators is LMAX  =           4
   number of lm-projection operators is LMMAX =           8
 
 POTCAR:    PAW_PBE F 08Apr2002                   
   VRHFIN =F: s2p5                                                                                  
   LEXCH  = PE                                                                                      
   EATOM  =   659.6475 eV,   48.4827 Ry                                                             
                                                                                                    
   TITEL  = PAW_PBE F 08Apr2002                                                                     
   LULTRA =        F    use ultrasoft PP ?                                                          
   IUNSCR =        1    unscreen: 0-lin 1-nonlin 2-no                                               
   RPACOR =    1.200    partial core radius                                                         
   POMASS =   18.998; ZVAL   =    7.000    mass and valenz                                          
   RCORE  =    1.520    outmost cutoff radius                                                       
   RWIGS  =    1.500; RWIGS  =    0.794    wigner-seitz radius (au A)                               
   ENMAX  =  400.000; ENMIN  =  300.000 eV                                                          
   ICORE  =        2    local potential                                                             
   LCOR   =        T    correct aug charges                                                         
   LPAW   =        T    paw PP                                                                      
   EAUG   =  613.614                                                                                
   RMAX   =    1.555    core radius for proj-oper                                                   
   RAUG   =    1.300    factor for augmentation sphere                                              
   RDEP   =    1.539    radius for radial grids                                                     
   RDEPT  =    1.299    core radius for aug-charge                                                  
                                                                                                    
   Atomic configuration                                                                             
    4 entries                                                                                       
     n  l   j            E        occ.                                                              
     1  0  0.50      -663.3661   2.0000                                                             
     2  0  0.50       -29.8995   2.0000                                                             
     2  1  0.50       -11.1114   5.0000                                                             
     3  2  1.50       -10.8847   0.0000                                                             
   Description                                                                                      
     l       E           TYP  RCUT    TYP  RCUT                                                     
     0    -29.8995018     23  1.200                                                                 
     0     -9.5240782     23  1.200                                                                 
     1    -11.1113914     23  1.520                                                                 
     1      1.3605826     23  1.520                                                                 
     2    -10.8846608      7  1.500                                                                 
  local pseudopotential read in
  partial core-charges read in
  partial kinetic energy density read in
  atomic valenz-charges read in
  non local Contribution for L=           0  read in
    real space projection operators read in
  non local Contribution for L=           0  read in
    real space projection operators read in
  non local Contribution for L=           1  read in
    real space projection operators read in
  non local Contribution for L=           1  read in
    real space projection operators read in
    PAW grid and wavefunctions read in
 
   number of l-projection  operators is LMAX  =           4
   number of lm-projection operators is LMMAX =           8
 
 Optimization of the real space projectors (new method)

 maximal supplied QI-value         = 15.12
 optimisation between [QCUT,QGAM] = [ 13.45, 27.06] = [ 50.69,205.06] Ry 
 Optimized for a Real-space Cutoff    1.49 Angstroem

   l    n(q)    QCUT    max X(q) W(low)/X(q) W(high)/X(q)  e(spline) 
   1     12    13.455     4.841    0.13E-05    0.83E-06    0.56E-07
   1     12    13.455     5.701    0.32E-04    0.25E-04    0.17E-06
   2     11    13.455     4.569    0.64E-05    0.34E-05    0.50E-07
   2     11    13.455    32.276    0.49E-04    0.38E-04    0.46E-06
   0     12    13.455    30.046    0.17E-04    0.41E-05    0.51E-07
   0     12    13.455    45.433    0.12E-04    0.27E-04    0.38E-06
 Optimization of the real space projectors (new method)

 maximal supplied QI-value         = 24.76
 optimisation between [QCUT,QGAM] = [ 13.37, 26.98] = [ 50.04,203.89] Ry 
 Optimized for a Real-space Cutoff    1.17 Angstroem

   l    n(q)    QCUT    max X(q) W(low)/X(q) W(high)/X(q)  e(spline) 
   0      9    13.368     4.192    0.20E-04    0.58E-05    0.56E-07
   0      9    13.368     8.473    0.60E-04    0.52E-04    0.21E-06
   1      9    13.368     2.474    0.22E-04    0.17E-04    0.28E-07
   1      9    13.368     3.912    0.94E-04    0.97E-04    0.20E-06
 Optimization of the real space projectors (new method)

 maximal supplied QI-value         = 24.76
 optimisation between [QCUT,QGAM] = [ 13.37, 26.98] = [ 50.04,203.89] Ry 
 Optimized for a Real-space Cutoff    1.17 Angstroem

   l    n(q)    QCUT    max X(q) W(low)/X(q) W(high)/X(q)  e(spline) 
   0      9    13.368    14.049    0.39E-04    0.34E-04    0.16E-06
   0      9    13.368     8.945    0.54E-04    0.47E-04    0.20E-06
   1      9    13.368     7.086    0.99E-04    0.10E-03    0.23E-06
   1      9    13.368     6.747    0.86E-04    0.89E-04    0.21E-06
 -----------------------------------------------------------------------------
|                                                                             |
|               ----> ADVICE to this user running VASP <----                  |
|                                                                             |
|     You enforced a specific xc type in the INCAR file but a different       |
|     type was found in the POTCAR file.                                      |
|     I HOPE YOU KNOW WHAT YOU ARE DOING!                                     |
|                                                                             |
 -----------------------------------------------------------------------------

 PAW_PBE Ti_pv 07Sep2000                :
 energy of atom  1       EATOM=-1042.3781
 kinetic energy error for atom=    0.0006 (will be added to EATOM!!)
 PAW_PBE O 08Apr2002                    :
 energy of atom  2       EATOM= -432.3788
 kinetic energy error for atom=    0.0091 (will be added to EATOM!!)
  PAW_PBE F 08Apr2002                   :
 energy of atom  3       EATOM= -659.6475
 kinetic energy error for atom=    0.0140 (will be added to EATOM!!)
 
 
 POSCAR: Ti27 O27 F54
  positions in direct lattice
  velocities in cartesian coordinates
 exchange correlation table for  LEXCH =       14
   RHO(1)=    0.500       N(1)  =     2000
   RHO(2)=  100.500       N(2)  =     4000
 


--------------------------------------------------------------------------------------------------------


 ion  position               nearest neighbor table
   1  0.000  0.013  0.999-  28 1.76  84 1.92  73 1.92  92 1.94  91 1.95  59 2.09
   2  0.000  0.988  0.342-  30 1.79  46 1.84  74 1.95  85 1.96  91 2.04  55 2.08
   3  1.000  0.007  0.656-  46 1.81  29 1.87  86 1.92  75 1.92  60 2.04  92 2.07
   4  0.013  0.328  0.005-  37 1.77  28 1.89  47 1.90  56 2.02  94 2.03  87 2.08
   5  0.001  0.333  0.319-  47 1.75  55 1.93  76 1.93  57 1.94  88 1.94  93 2.09
   6  0.999  0.321  0.665-  29 1.78  89 1.91  77 1.92  93 1.93  94 1.93  58 2.07
   7  0.986  0.668  0.999-  44 1.74  59 1.93  96 1.94  56 1.94  95 1.95  78 2.08
   8  0.989  0.675  0.338-  45 1.80  30 1.86  48 1.90  95 2.03  57 2.05  79 2.09
   9  0.000  0.665  0.654-  48 1.76  80 1.92  90 1.93  58 1.93  60 1.94  96 2.08
  10  0.344  0.009  0.990-  49 1.82  38 1.83  31 1.84  73 2.09  64 2.10  97 2.11
  11  0.342  0.999  0.334-  39 1.83  98 1.90  97 1.90  65 1.92  61 1.93  74 2.03
  12  0.343  0.009  0.678-  49 1.82  40 1.84  32 1.85  66 2.08  75 2.09  98 2.12
  13  0.326  0.322  0.990-  31 1.81  50 1.83  37 1.88  81 2.07  99 2.09  62 2.11
  14  0.346  0.340  0.334-  41 1.80  33 1.88  99 1.92 100 1.92  61 2.04  76 2.08
  15  0.341  0.323  0.677-  32 1.82  50 1.83  42 1.89  77 2.07 100 2.09  63 2.09
  16  0.331  0.666  0.988-  51 1.78  64 1.92  62 1.92  78 1.93  82 1.93 101 2.09
  17  0.333  0.654  0.333-  33 1.77 101 1.92  79 1.92  83 1.93 102 1.93  65 2.08
  18  0.344  0.666  0.673-  43 1.79  51 1.87  63 1.93  66 1.93 102 2.04  80 2.08
  19  0.655  0.992  0.990-  38 1.82  52 1.83  35 1.85  67 2.08  84 2.10 103 2.11
  20  0.658  0.002  0.334-  39 1.83 103 1.90 104 1.90  68 1.91  72 1.92  85 2.03
  21  0.655  0.994  0.678-  52 1.82  40 1.82  36 1.89  69 2.05  86 2.09 104 2.12
  22  0.668  0.334  0.988-  53 1.78  70 1.92  67 1.93  87 1.93  81 1.94 105 2.08
  23  0.658  0.346  0.333-  34 1.78  41 1.86 105 1.94 106 1.95  88 2.05  68 2.09
  24  0.654  0.334  0.672-  42 1.77  53 1.89  71 1.94  69 1.95 106 2.02  89 2.11
  25  0.671  0.679  0.009-  35 1.79  54 1.84  44 1.92  82 2.03 108 2.06  70 2.10
  26  0.675  0.659  0.323-  54 1.81  45 1.85  34 1.87 107 2.06  72 2.07  83 2.08
  27  0.658  0.679  0.668-  36 1.78  43 1.86 107 1.95 108 1.95  90 2.06  71 2.09
  28  0.001  0.166  0.992-   1 1.76   4 1.89
  29  0.004  0.168  0.670-   6 1.78   3 1.87
  30  0.003  0.834  0.326-   2 1.79   8 1.86
  31  0.329  0.167  0.001-  13 1.81  10 1.84
  32  0.324  0.167  0.667-  15 1.82  12 1.85
  33  0.339  0.501  0.333-  17 1.77  14 1.88
  34  0.659  0.499  0.336-  23 1.78  26 1.87
  35  0.667  0.833  0.994-  25 1.79  19 1.85
  36  0.670  0.832  0.672-  27 1.78  21 1.89
  37  0.166  0.340  0.998-   4 1.77  13 1.88
  38  0.500  0.001  0.011-  19 1.82  10 1.83
  39  0.500  0.003  0.335-  11 1.83  20 1.83
  40  0.500  0.002  0.656-  21 1.82  12 1.84
  41  0.500  0.323  0.337-  14 1.80  23 1.86
  42  0.502  0.334  0.656-  24 1.77  15 1.89
  43  0.498  0.664  0.664-  18 1.79  27 1.86
  44  0.836  0.666  0.001-   7 1.74  25 1.92
  45  0.834  0.665  0.329-   8 1.80  26 1.85
  46  1.000  0.998  0.500-   3 1.81   2 1.84
  47  0.998  0.333  0.168-   5 1.75   4 1.90
  48  0.001  0.668  0.502-   9 1.76   8 1.90
  49  0.334  0.990  0.834-  12 1.82  10 1.82
  50  0.341  0.344  0.834-  15 1.83  13 1.83
  51  0.329  0.664  0.834-  16 1.78  18 1.87
  52  0.665  0.013  0.834-  21 1.82  19 1.83
  53  0.663  0.330  0.834-  22 1.78  24 1.89
  54  0.658  0.670  0.168-  26 1.81  25 1.84
  55  0.999  0.167  0.336-   5 1.93   2 2.08
  56  0.999  0.501  0.995-   7 1.94   4 2.02
  57  0.006  0.499  0.336-   5 1.94   8 2.05
  58  1.000  0.499  0.668-   9 1.93   6 2.07
  59  0.002  0.834  0.006-   7 1.93   1 2.09
  60  0.995  0.832  0.672-   9 1.94   3 2.04
  61  0.326  0.165  0.333-  11 1.93  14 2.04
  62  0.337  0.502  0.013-  16 1.92  13 2.11
  63  0.326  0.501  0.655-  18 1.93  15 2.09
  64  0.330  0.830  0.008-  16 1.92  10 2.10
  65  0.329  0.833  0.334-  11 1.92  17 2.08
  66  0.328  0.831  0.659-  18 1.93  12 2.08
  67  0.675  0.169  0.012-  22 1.93  19 2.08
  68  0.675  0.166  0.332-  20 1.91  23 2.09
  69  0.677  0.168  0.657-  24 1.95  21 2.05
  70  0.664  0.499  0.003-  22 1.92  25 2.10
  71  0.673  0.500  0.661-  24 1.94  27 2.09
  72  0.667  0.837  0.339-  20 1.92  26 2.07
  73  0.164  0.992  0.004-   1 1.92  10 2.09
  74  0.168  0.004  0.330-   2 1.95  11 2.03
  75  0.164  0.990  0.667-   3 1.92  12 2.09
  76  0.167  0.331  0.334-   5 1.93  14 2.08
  77  0.163  0.343  0.668-   6 1.92  15 2.07
  78  0.166  0.664  0.005-  16 1.93   7 2.08
  79  0.168  0.665  0.328-  17 1.92   8 2.09
  80  0.165  0.667  0.668-   9 1.92  18 2.08
  81  0.503  0.333  0.012-  22 1.94  13 2.07
  82  0.497  0.665  0.996-  16 1.93  25 2.03
  83  0.497  0.679  0.344-  17 1.93  26 2.08
  84  0.836  0.997  0.004-   1 1.92  19 2.10
  85  0.833  0.001  0.330-   2 1.96  20 2.03
  86  0.835  0.001  0.668-   3 1.92  21 2.09
  87  0.834  0.339  0.998-  22 1.93   4 2.08
  88  0.835  0.335  0.337-   5 1.94  23 2.05
  89  0.835  0.336  0.664-   6 1.91  24 2.11
  90  0.835  0.661  0.673-   9 1.93  27 2.06
  91  1.000  0.008  0.167-   1 1.95   2 2.04
  92  1.000  0.991  0.833-   1 1.94   3 2.07
  93  0.001  0.335  0.499-   6 1.93   5 2.09
  94  0.994  0.341  0.831-   6 1.93   4 2.03
  95  0.008  0.658  0.165-   7 1.95   8 2.03
  96  0.006  0.669  0.833-   7 1.94   9 2.08
  97  0.326  0.996  0.171-  11 1.90  10 2.11
  98  0.323  0.997  0.496-  11 1.90  12 2.12
  99  0.331  0.333  0.169-  14 1.92  13 2.09
 100  0.323  0.333  0.498-  14 1.92  15 2.09
 101  0.338  0.671  0.168-  17 1.92  16 2.09
 102  0.324  0.670  0.498-  17 1.93  18 2.04
 103  0.673  0.999  0.171-  20 1.90  19 2.11
 104  0.677  0.003  0.497-  20 1.90  21 2.12
 105  0.674  0.333  0.167-  23 1.94  22 2.08
 106  0.678  0.329  0.499-  23 1.95  24 2.02
 107  0.671  0.669  0.500-  27 1.95  26 2.06
 108  0.665  0.653  0.834-  27 1.95  25 2.06
 

IMPORTANT INFORMATION: All symmetrisations will be switched off!
NOSYMM: (Re-)initialisation of all symmetry stuff for point group C_1.


----------------------------------------------------------------------------------------

                                     Primitive cell                                     

  volume of cell :    1557.8764

  direct lattice vectors                    reciprocal lattice vectors
    11.595692281 -0.004260381  0.004466404     0.086238946  0.000031666 -0.000033248
    -0.004256054 11.591464063  0.000630005     0.000031698  0.086270391 -0.000004704
     0.004468299  0.000630350 11.590392512    -0.000033234 -0.000004701  0.086278368

  length of vectors
    11.595693924 11.591464861 11.590393390     0.086238958  0.086270397  0.086278375

  position of ions in fractional coordinates (direct lattice)
     0.000224360  0.013448705  0.999039684
     0.000314262  0.987677191  0.341647748
     0.999887318  0.006631938  0.655637527
     0.013310787  0.327842010  0.004744192
     0.001090642  0.332619286  0.319329236
     0.999466276  0.321093469  0.665370505
     0.986296154  0.667729118  0.998939732
     0.988503270  0.674932230  0.338360294
     0.000330367  0.665428500  0.653524231
     0.343672297  0.009160696  0.989821409
     0.342178637  0.998963488  0.333782509
     0.342817399  0.009130630  0.677970933
     0.326323900  0.322466333  0.989567721
     0.345945996  0.339840586  0.334257390
     0.340644874  0.322578439  0.677329852
     0.331257837  0.665590457  0.987622161
     0.333462893  0.654271702  0.332692722
     0.344353724  0.665805814  0.673299016
     0.655064322  0.992415276  0.989771823
     0.657738817  0.001858858  0.334277679
     0.654986871  0.994091433  0.678374375
     0.668014810  0.333697454  0.987812588
     0.658217734  0.345952141  0.332918594
     0.653686737  0.333865190  0.671785083
     0.671477988  0.679197971  0.009403079
     0.674769357  0.659025472  0.322882047
     0.658310547  0.678955103  0.667575257
     0.000734440  0.165528121  0.991762053
     0.003944308  0.167651352  0.669927136
     0.002797587  0.834003974  0.326182299
     0.328793219  0.166636931  0.000689445
     0.324116745  0.167067166  0.667115466
     0.339247002  0.501472779  0.333424530
     0.658548790  0.499245946  0.335804398
     0.667168162  0.832969208  0.993544965
     0.670392806  0.831839284  0.671776705
     0.165699983  0.339908632  0.998245195
     0.500005745  0.001473125  0.011454020
     0.499502684  0.003171254  0.335414109
     0.499833039  0.001694925  0.655592449
     0.499961964  0.322570303  0.336621907
     0.501804917  0.333992138  0.656288950
     0.498378018  0.664029876  0.664277886
     0.835853977  0.665817168  0.000585177
     0.834229109  0.664779860  0.329273715
     0.999827964  0.997768348  0.499936151
     0.997755455  0.333436521  0.167982225
     0.000969474  0.667943850  0.501811140
     0.334474354  0.990175873  0.833876722
     0.340774901  0.343521042  0.833619565
     0.329306532  0.664125365  0.834310020
     0.665051172  0.013135300  0.833710542
     0.663336589  0.329931813  0.834440937
     0.658497615  0.669618324  0.167646572
     0.999209259  0.166736003  0.335924375
     0.999033698  0.501235417  0.994772205
     0.006108304  0.498696022  0.336238373
     0.999523798  0.499295629  0.667762838
     0.002281996  0.833591427  0.005819590
     0.995052112  0.831860955  0.672449741
     0.326039028  0.164857895  0.333233476
     0.337211070  0.502341592  0.012696903
     0.326117623  0.501236067  0.654864891
     0.330014414  0.829534893  0.008221586
     0.328576647  0.833461512  0.333652799
     0.328033654  0.830966427  0.658573370
     0.674757509  0.169075521  0.011585872
     0.674637819  0.166166969  0.331585035
     0.676510403  0.168196081  0.657480311
     0.663772095  0.498617728  0.002628875
     0.673411530  0.499724288  0.660969895
     0.667116780  0.836819692  0.338927553
     0.164488224  0.992004524  0.004178050
     0.167645735  0.003947612  0.330055255
     0.164114634  0.989982341  0.667483878
     0.167128392  0.330955234  0.333600796
     0.163455439  0.342668806  0.667933440
     0.165893033  0.663806560  0.004722901
     0.168164838  0.664708058  0.328329840
     0.165387049  0.667077793  0.668031632
     0.502828636  0.332730160  0.012423098
     0.497409239  0.664949069  0.995949838
     0.497425665  0.679425355  0.343531342
     0.835676580  0.997457383  0.004289008
     0.832543538  0.000924349  0.330179997
     0.835096006  0.000955227  0.667594084
     0.834012142  0.339329880  0.998112031
     0.834879122  0.334682684  0.337135091
     0.835244580  0.336016572  0.664411624
     0.834854869  0.661391378  0.672917963
     0.999998026  0.007912430  0.167198287
     0.999735066  0.991194681  0.833377036
     0.001360343  0.334599372  0.499276490
     0.994279588  0.340551356  0.831027938
     0.007515241  0.657809788  0.165313970
     0.005804266  0.668577931  0.833022086
     0.326422171  0.995831987  0.170769954
     0.322602121  0.996893404  0.496397315
     0.331489076  0.332891097  0.169384819
     0.323426420  0.332675025  0.498305615
     0.338315386  0.670660142  0.167816264
     0.323989772  0.670377690  0.498400561
     0.673417710  0.998719241  0.170875925
     0.676960901  0.002858538  0.497329213
     0.674354368  0.333414329  0.166885170
     0.677517683  0.329417282  0.499061600
     0.670831914  0.669028031  0.500212340
     0.664969762  0.653382606  0.834026191

  ion indices of the primitive-cell ions
   primitive index   ion index
                 1           1
                 2           2
                 3           3
                 4           4
                 5           5
                 6           6
                 7           7
                 8           8
                 9           9
                10          10
                11          11
                12          12
                13          13
                14          14
                15          15
                16          16
                17          17
                18          18
                19          19
                20          20
                21          21
                22          22
                23          23
                24          24
                25          25
                26          26
                27          27
                28          28
                29          29
                30          30
                31          31
                32          32
                33          33
                34          34
                35          35
                36          36
                37          37
                38          38
                39          39
                40          40
                41          41
                42          42
                43          43
                44          44
                45          45
                46          46
                47          47
                48          48
                49          49
                50          50
                51          51
                52          52
                53          53
                54          54
                55          55
                56          56
                57          57
                58          58
                59          59
                60          60
                61          61
                62          62
                63          63
                64          64
                65          65
                66          66
                67          67
                68          68
                69          69
                70          70
                71          71
                72          72
                73          73
                74          74
                75          75
                76          76
                77          77
                78          78
                79          79
                80          80
                81          81
                82          82
                83          83
                84          84
                85          85
                86          86
                87          87
                88          88
                89          89
                90          90
                91          91
                92          92
                93          93
                94          94
                95          95
                96          96
                97          97
                98          98
                99          99
               100         100
               101         101
               102         102
               103         103
               104         104
               105         105
               106         106
               107         107
               108         108

----------------------------------------------------------------------------------------

 
 
 KPOINTS: Title                                   

Automatic generation of k-mesh.
 Grid dimensions read from file:
 generate k-points for:    3    3    3

 Generating k-lattice:

  Cartesian coordinates                     Fractional coordinates (reciprocal lattice)
     0.028746315  0.000010555 -0.000011083     0.333333333  0.000000000  0.000000000
     0.000010566  0.028756797 -0.000001568     0.000000000  0.333333333 -0.000000000
    -0.000011078 -0.000001567  0.028759456    -0.000000000 -0.000000000  0.333333333

  Length of vectors
     0.028746319  0.028756799  0.028759458

  Shift w.r.t. Gamma in fractional coordinates (k-lattice)
     0.000000000  0.000000000  0.000000000

 
 Subroutine IBZKPT returns following result:
 ===========================================
 
 Found     14 irreducible k-points:
 
 Following reciprocal coordinates:
            Coordinates               Weight
  0.000000  0.000000  0.000000      1.000000
  0.333333  0.000000 -0.000000      2.000000
 -0.000000  0.333333 -0.000000      2.000000
  0.333333  0.333333 -0.000000      2.000000
 -0.333333  0.333333 -0.000000      2.000000
 -0.000000 -0.000000  0.333333      2.000000
  0.333333 -0.000000  0.333333      2.000000
 -0.333333  0.000000  0.333333      2.000000
 -0.000000  0.333333  0.333333      2.000000
  0.333333  0.333333  0.333333      2.000000
 -0.333333  0.333333  0.333333      2.000000
 -0.000000 -0.333333  0.333333      2.000000
  0.333333 -0.333333  0.333333      2.000000
 -0.333333 -0.333333  0.333333      2.000000
 
 Following cartesian coordinates:
            Coordinates               Weight
  0.000000  0.000000  0.000000      1.000000
  0.028746  0.000011 -0.000011      2.000000
  0.000011  0.028757 -0.000002      2.000000
  0.028757  0.028767 -0.000013      2.000000
 -0.028736  0.028746  0.000010      2.000000
 -0.000011 -0.000002  0.028759      2.000000
  0.028735  0.000009  0.028748      2.000000
 -0.028757 -0.000012  0.028771      2.000000
 -0.000001  0.028755  0.028758      2.000000
  0.028746  0.028766  0.028747      2.000000
 -0.028747  0.028745  0.028769      2.000000
 -0.000022 -0.028758  0.028761      2.000000
  0.028725 -0.028748  0.028750      2.000000
 -0.028768 -0.028769  0.028772      2.000000
 


--------------------------------------------------------------------------------------------------------




 Dimension of arrays:
   k-points           NKPTS =     14   k-points in BZ     NKDIM =     14   number of bands    NBANDS=    540
   number of dos      NEDOS =   3001   number of ions     NIONS =    108
   non local maximal  LDIM  =      6   non local SUM 2l+1 LMDIM =     18
   total plane-waves  NPLWV = ******
   max r-space proj   IRMAX =   8906   max aug-charges    IRDMAX= 199546
   dimension x,y,z NGX =   100 NGY =  100 NGZ =  100
   dimension x,y,z NGXF=   200 NGYF=  200 NGZF=  200
   support grid    NGXF=   400 NGYF=  400 NGZF=  400
   ions per type =              27  27  54
   NGX,Y,Z   is equivalent  to a cutoff of  14.34, 14.34, 14.34 a.u.
   NGXF,Y,Z  is equivalent  to a cutoff of  28.67, 28.68, 28.69 a.u.

 SYSTEM =  LTO                                     
 POSCAR =  Ti27 O27 F54                            

 Startparameter for this run:
   NWRITE =      2    write-flag & timer
   PREC   = accura    normal or accurate (medium, high low for compatibility)
   ISTART =      0    job   : 0-new  1-cont  2-samecut
   ICHARG =      2    charge: 1-file 2-atom 10-const
   ISPIN  =      2    spin polarized calculation?
   LNONCOLLINEAR =      F non collinear calculations
   LSORBIT =      F    spin-orbit coupling
   INIWAV =      1    electr: 0-lowe 1-rand  2-diag
   LASPH  =      T    aspherical Exc in radial PAW
 Electronic Relaxation 1
   ENCUT  =  700.0 eV  51.45 Ry    7.17 a.u.  25.02 25.01 25.00*2*pi/ulx,y,z
   ENINI  =  700.0     initial cutoff
   ENAUG  =  613.6 eV  augmentation charge cutoff
   NELM   =     60;   NELMIN=  2; NELMDL=  0     # of ELM steps 
   EDIFF  = 0.1E-05   stopping-criterion for ELM
   LREAL  =      T    real-space projection
   NLSPLINE    = F    spline interpolate recip. space projectors
   LCOMPAT=      F    compatible to vasp.4.4
   GGA_COMPAT  = T    GGA compatible to vasp.4.4-vasp.4.6
   LMAXPAW     = -100 max onsite density
   LMAXMIX     =    4 max onsite mixed and CHGCAR
   VOSKOWN=      0    Vosko Wilk Nusair interpolation
   ROPT   =   -0.00010  -0.00010  -0.00010
 Ionic relaxation
   EDIFFG = -.1E-01   stopping-criterion for IOM
   NSW    =    100    number of steps for IOM
   NBLOCK =      1;   KBLOCK =    100    inner block; outer block 
   IBRION =      1    ionic relax: 0-MD 1-quasi-New 2-CG
   NFREE  =      0    steps in history (QN), initial steepest desc. (CG)
   ISIF   =      3    stress and relaxation
   IWAVPR =     11    prediction:  0-non 1-charg 2-wave 3-comb
   ISYM   =      0    0-nonsym 1-usesym 2-fastsym
   LCORR  =      T    Harris-Foulkes like correction to forces

   POTIM  = 0.5000    time-step for ionic-motion
   TEIN   =    0.0    initial temperature
   TEBEG  =    0.0;   TEEND  =   0.0 temperature during run
   SMASS  =  -3.00    Nose mass-parameter (am)
   estimated Nose-frequenzy (Omega)   =  0.10E-29 period in steps = 0.13E+47 mass=  -0.307E-26a.u.
   SCALEE = 1.0000    scale energy and forces
   NPACO  =    256;   APACO  = 10.0  distance and # of slots for P.C.
   PSTRESS=    0.0 pullay stress

  Mass of Ions in am
   POMASS =  47.88 16.00 19.00
  Ionic Valenz
   ZVAL   =  10.00  6.00  7.00
  Atomic Wigner-Seitz radii
   RWIGS  =  -1.00 -1.00 -1.00
  virtual crystal weights 
   VCA    =   1.00  1.00  1.00
   NELECT =     810.0000    total number of electrons
   NUPDOWN=      -1.0000    fix difference up-down

 DOS related values:
   EMIN   =  10.00;   EMAX   =-10.00  energy-range for DOS
   EFERMI =   0.00
   ISMEAR =     0;   SIGMA  =   0.01  broadening in eV -4-tet -1-fermi 0-gaus

 Electronic relaxation 2 (details)
   IALGO  =     38    algorithm
   LDIAG  =      T    sub-space diagonalisation (order eigenvalues)
   LSUBROT=      F    optimize rotation matrix (better conditioning)
   TURBO    =      0    0=normal 1=particle mesh
   IRESTART =      0    0=no restart 2=restart with 2 vectors
   NREBOOT  =      0    no. of reboots
   NMIN     =      0    reboot dimension
   EREF     =   0.00    reference energy to select bands
   IMIX   =      4    mixing-type and parameters
     AMIX     =   0.40;   BMIX     =  1.00
     AMIX_MAG =   1.60;   BMIX_MAG =  1.00
     AMIN     =   0.10
     WC   =   100.;   INIMIX=   1;  MIXPRE=   1;  MAXMIX= -45

 Intra band minimization:
   WEIMIN = 0.0010     energy-eigenvalue tresh-hold
   EBREAK =  0.46E-09  absolut break condition
   DEPER  =   0.30     relativ break condition  

   TIME   =   0.40     timestep for ELM

  volume/ion in A,a.u.               =      14.42        97.34
  Fermi-wavevector in a.u.,A,eV,Ry     =   1.316413  2.487660 23.578125  1.732943
  Thomas-Fermi vector in A             =   2.446527
 
 Write flags
   LWAVE        =      T    write WAVECAR
   LDOWNSAMPLE  =      F    k-point downsampling of WAVECAR
   LCHARG       =      T    write CHGCAR
   LVTOT        =      F    write LOCPOT, total local potential
   LVHAR        =      F    write LOCPOT, Hartree potential only
   LELF         =      F    write electronic localiz. function (ELF)
   LORBIT       =     11    0 simple, 1 ext, 2 COOP (PROOUT), +10 PAW based schemes


 Dipole corrections
   LMONO  =      F    monopole corrections only (constant potential shift)
   LDIPOL =      F    correct potential (dipole corrections)
   IDIPOL =      0    1-x, 2-y, 3-z, 4-all directions 
   EPSILON=  1.0000000 bulk dielectric constant

 LDA+U is selected, type is set to LDAUTYPE =  2
   angular momentum for each species LDAUL =     2   -1   -1
   U (eV)           for each species LDAUU =   4.2  0.0  0.0
   J (eV)           for each species LDAUJ =   0.0  0.0  0.0
 Exchange correlation treatment:
   GGA     =    PS    GGA type
   LEXCH   =    14    internal setting for exchange type
   LIBXC   =     F    Libxc                    
   VOSKOWN =     0    Vosko Wilk Nusair interpolation
   LHFCALC =     F    Hartree Fock is set to
   LHFONE  =     F    Hartree Fock one center treatment
   AEXX    =    0.0000 exact exchange contribution

 Linear response parameters
   LEPSILON=     F    determine dielectric tensor
   LRPA    =     F    only Hartree local field effects (RPA)
   LNABLA  =     F    use nabla operator in PAW spheres
   LVEL    =     F    velocity operator in full k-point grid
   CSHIFT  =0.1000    complex shift for real part using Kramers Kronig
   OMEGAMAX=  -1.0    maximum frequency
   DEG_THRESHOLD= 0.2000000E-02 threshold for treating states as degnerate
   RTIME   =   -0.100 relaxation time in fs
  (WPLASMAI=    0.000 imaginary part of plasma frequency in eV, 0.658/RTIME)
   DFIELD  = 0.0000000 0.0000000 0.0000000 field for delta impulse in time
 
  Optional k-point grid parameters
   LKPOINTS_OPT  =     F    use optional k-point grid
   KPOINTS_OPT_MODE=     1    mode for optional k-point grid
 
 Orbital magnetization related:
   ORBITALMAG=     F  switch on orbital magnetization
   LCHIMAG   =     F  perturbation theory with respect to B field
   DQ        =  0.001000  dq finite difference perturbation B field
   LLRAUG    =     F  two centre corrections for induced B field



--------------------------------------------------------------------------------------------------------


 quasi-Newton-method for relaxation of ions
 charge density and potential will be updated during run
 spin polarized calculation
 Variant of blocked Davidson
 Davidson routine will perform the subspace rotation
 perform sub-space diagonalisation
    after iterative eigenvector-optimisation
 modified Broyden-mixing scheme, WC =      100.0
 initial mixing is a Kerker type mixing with AMIX =  0.4000 and BMIX =      1.0000
 Hartree-type preconditioning will be used
 using additional bands          135
 real space projection scheme for non local part
 use partial core corrections
 calculate Harris-corrections to forces 
   (improved forces if not selfconsistent)
 use gradient corrections 
 use of overlap-Matrix (Vanderbilt PP)
 Gauss-broadening in eV      SIGMA  =   0.01


--------------------------------------------------------------------------------------------------------


  energy-cutoff  :      700.00
  volume of cell :     1557.88
      direct lattice vectors                 reciprocal lattice vectors
    11.595692281 -0.004260381  0.004466404     0.086238946  0.000031666 -0.000033248
    -0.004256054 11.591464063  0.000630005     0.000031698  0.086270391 -0.000004704
     0.004468299  0.000630350 11.590392512    -0.000033234 -0.000004701  0.086278368

  length of vectors
    11.595693924 11.591464861 11.590393390     0.086238958  0.086270397  0.086278375


 
 k-points in units of 2pi/SCALE and weight: Title                                   
   0.00000000  0.00000000  0.00000000       0.037
   0.02874632  0.00001056 -0.00001108       0.074
   0.00001057  0.02875680 -0.00000157       0.074
   0.02875688  0.02876735 -0.00001265       0.074
  -0.02873575  0.02874624  0.00000951       0.074
  -0.00001108 -0.00000157  0.02875946       0.074
   0.02873524  0.00000899  0.02874837       0.074
  -0.02875739 -0.00001212  0.02877054       0.074
  -0.00000051  0.02875523  0.02875789       0.074
   0.02874580  0.02876579  0.02874681       0.074
  -0.02874683  0.02874467  0.02876897       0.074
  -0.00002164 -0.02875836  0.02876102       0.074
   0.02872467 -0.02874781  0.02874994       0.074
  -0.02876796 -0.02876892  0.02877211       0.074
 
 k-points in reciprocal lattice and weights: Title                                   
   0.00000000  0.00000000  0.00000000       0.037
   0.33333333  0.00000000 -0.00000000       0.074
  -0.00000000  0.33333333 -0.00000000       0.074
   0.33333333  0.33333333 -0.00000000       0.074
  -0.33333333  0.33333333 -0.00000000       0.074
  -0.00000000 -0.00000000  0.33333333       0.074
   0.33333333 -0.00000000  0.33333333       0.074
  -0.33333333  0.00000000  0.33333333       0.074
  -0.00000000  0.33333333  0.33333333       0.074
   0.33333333  0.33333333  0.33333333       0.074
  -0.33333333  0.33333333  0.33333333       0.074
  -0.00000000 -0.33333333  0.33333333       0.074
   0.33333333 -0.33333333  0.33333333       0.074
  -0.33333333 -0.33333333  0.33333333       0.074
 
 position of ions in fractional coordinates (direct lattice) 
   0.00022436  0.01344871  0.99903968
   0.00031426  0.98767719  0.34164775
   0.99988732  0.00663194  0.65563753
   0.01331079  0.32784201  0.00474419
   0.00109064  0.33261929  0.31932924
   0.99946628  0.32109347  0.66537050
   0.98629615  0.66772912  0.99893973
   0.98850327  0.67493223  0.33836029
   0.00033037  0.66542850  0.65352423
   0.34367230  0.00916070  0.98982141
   0.34217864  0.99896349  0.33378251
   0.34281740  0.00913063  0.67797093
   0.32632390  0.32246633  0.98956772
   0.34594600  0.33984059  0.33425739
   0.34064487  0.32257844  0.67732985
   0.33125784  0.66559046  0.98762216
   0.33346289  0.65427170  0.33269272
   0.34435372  0.66580581  0.67329902
   0.65506432  0.99241528  0.98977182
   0.65773882  0.00185886  0.33427768
   0.65498687  0.99409143  0.67837437
   0.66801481  0.33369745  0.98781259
   0.65821773  0.34595214  0.33291859
   0.65368674  0.33386519  0.67178508
   0.67147799  0.67919797  0.00940308
   0.67476936  0.65902547  0.32288205
   0.65831055  0.67895510  0.66757526
   0.00073444  0.16552812  0.99176205
   0.00394431  0.16765135  0.66992714
   0.00279759  0.83400397  0.32618230
   0.32879322  0.16663693  0.00068944
   0.32411675  0.16706717  0.66711547
   0.33924700  0.50147278  0.33342453
   0.65854879  0.49924595  0.33580440
   0.66716816  0.83296921  0.99354496
   0.67039281  0.83183928  0.67177671
   0.16569998  0.33990863  0.99824520
   0.50000575  0.00147313  0.01145402
   0.49950268  0.00317125  0.33541411
   0.49983304  0.00169493  0.65559245
   0.49996196  0.32257030  0.33662191
   0.50180492  0.33399214  0.65628895
   0.49837802  0.66402988  0.66427789
   0.83585398  0.66581717  0.00058518
   0.83422911  0.66477986  0.32927372
   0.99982796  0.99776835  0.49993615
   0.99775545  0.33343652  0.16798222
   0.00096947  0.66794385  0.50181114
   0.33447435  0.99017587  0.83387672
   0.34077490  0.34352104  0.83361957
   0.32930653  0.66412537  0.83431002
   0.66505117  0.01313530  0.83371054
   0.66333659  0.32993181  0.83444094
   0.65849762  0.66961832  0.16764657
   0.99920926  0.16673600  0.33592438
   0.99903370  0.50123542  0.99477220
   0.00610830  0.49869602  0.33623837
   0.99952380  0.49929563  0.66776284
   0.00228200  0.83359143  0.00581959
   0.99505211  0.83186096  0.67244974
   0.32603903  0.16485790  0.33323348
   0.33721107  0.50234159  0.01269690
   0.32611762  0.50123607  0.65486489
   0.33001441  0.82953489  0.00822159
   0.32857665  0.83346151  0.33365280
   0.32803365  0.83096643  0.65857337
   0.67475751  0.16907552  0.01158587
   0.67463782  0.16616697  0.33158504
   0.67651040  0.16819608  0.65748031
   0.66377209  0.49861773  0.00262887
   0.67341153  0.49972429  0.66096990
   0.66711678  0.83681969  0.33892755
   0.16448822  0.99200452  0.00417805
   0.16764573  0.00394761  0.33005526
   0.16411463  0.98998234  0.66748388
   0.16712839  0.33095523  0.33360080
   0.16345544  0.34266881  0.66793344
   0.16589303  0.66380656  0.00472290
   0.16816484  0.66470806  0.32832984
   0.16538705  0.66707779  0.66803163
   0.50282864  0.33273016  0.01242310
   0.49740924  0.66494907  0.99594984
   0.49742567  0.67942536  0.34353134
   0.83567658  0.99745738  0.00428901
   0.83254354  0.00092435  0.33018000
   0.83509601  0.00095523  0.66759408
   0.83401214  0.33932988  0.99811203
   0.83487912  0.33468268  0.33713509
   0.83524458  0.33601657  0.66441162
   0.83485487  0.66139138  0.67291796
   0.99999803  0.00791243  0.16719829
   0.99973507  0.99119468  0.83337704
   0.00136034  0.33459937  0.49927649
   0.99427959  0.34055136  0.83102794
   0.00751524  0.65780979  0.16531397
   0.00580427  0.66857793  0.83302209
   0.32642217  0.99583199  0.17076995
   0.32260212  0.99689340  0.49639732
   0.33148908  0.33289110  0.16938482
   0.32342642  0.33267502  0.49830562
   0.33831539  0.67066014  0.16781626
   0.32398977  0.67037769  0.49840056
   0.67341771  0.99871924  0.17087592
   0.67696090  0.00285854  0.49732921
   0.67435437  0.33341433  0.16688517
   0.67751768  0.32941728  0.49906160
   0.67083191  0.66902803  0.50021234
   0.66496976  0.65338261  0.83402619
 
 position of ions in cartesian coordinates  (Angst):
   0.00700838  0.15651897 11.57927155
   0.00096707 11.44883869  3.96045514
  11.59728701  0.07302725  7.60356636
   0.15297367  3.80011515  0.05525304
   0.01265797  3.85574114  3.70136560
  11.59110986  3.71810472  7.71657163
  11.43840837  7.73638576 11.58292945
  11.46101908  7.81945457  3.92656888
   0.00391888  7.71370108  7.57502305
   3.98950203  0.10534563 11.47395940
   3.96503797 11.57820196  3.87082796
   3.97819558  0.10480419  7.85948614
   3.78700078  3.73709042 11.47113895
   4.01153050  3.93798678  3.87593359
   3.95166673  3.73813207  7.85224352
   3.84274414  7.71437912 11.44882736
   3.86543505  7.58275596  3.85794081
   3.99319461  7.71662150  7.80575736
   7.59612313 11.50137909 11.47539493
   7.62842266  0.01895538  3.87734841
   7.59382647 11.52061224  7.86617699
   7.74908779  3.86581871 11.45232948
   7.63250549  4.00749741  3.86181500
   7.58153104  3.86762486  7.78938277
   7.78340343  7.87004404  0.11241237
   7.82305571  7.63639883  3.74575864
   7.63365978  7.86769983  7.74082728
   0.01224333  1.91933530 11.49501903
   0.04801689  1.94373010  7.76484169
   0.03034787  9.66752078  3.78111880
   3.81187886  1.93016565  0.00956444
   3.76062786  1.93559271  7.73368300
   3.93315938  5.81156855  3.86635232
   7.63570478  5.78439745  3.89536066
   7.73717100  9.65311653 11.51908073
   7.77313004  9.63980250  7.78967400
   1.92441980  3.93996199 11.57100786
   5.79795767  0.01495268  0.13499074
   5.79356465  0.03484283  3.88981415
   5.79883228  0.01793044  7.60080733
   5.79753634  3.73714424  3.90401628
   5.82028641  3.86973368  7.60909822
   5.77918019  7.69537389  7.70188573
   9.68947438  7.71423509  0.01093516
   9.67210599  7.70242528  3.82055642
  11.59168471 11.56165144  5.79955046
  11.56899670  3.86087252  1.95164636
   0.01064116  7.74275932  5.81661322
   3.87797345 11.47668870  9.66707623
   3.95378371  3.98098546  9.66371643
   3.81943861  7.69730824  9.67186983
   7.71539810  0.14994951  9.66601109
   7.69417128  3.82209268  9.67466857
   7.63363488  7.75915696  1.94645255
  11.58731446  1.92866912  3.89806328
  11.58679900  5.80642311 11.53457818
   0.07020995  5.78080294  3.89747618
  11.59102913  5.78372991  7.74441224
   0.02293952  9.66253901  0.06798670
  11.53778235  9.63867094  7.79892483
   3.78143559  1.90976537  3.86386686
   3.90811454  5.82144586  0.14898469
   3.78235245  5.80908326  7.59191349
   3.82325178  9.61412310  0.09728800
   3.80801729  9.65984962  3.86915955
   3.80318338  9.63113505  7.63511250
   7.82361261  1.95696541  0.13740506
   7.82366696  1.92345325  3.84631860
   7.84682843  1.94717108  7.62358241
   7.69478656  5.77688321  0.03374850
   7.80949944  5.79008378  7.66422308
   7.73363377  9.69733686  3.93181018
   1.90315147 11.49808664  0.04978487
   1.94542634  0.04525242  3.82622122
   1.90179190 11.47506629  7.73775684
   1.93805147  3.83575395  3.86751913
   1.89690509  3.97175780  7.74255668
   1.92084047  7.69378610  0.05589943
   1.94862576  7.70443008  3.80664158
   1.91792318  7.73212475  7.74390777
   5.82928552  3.85469528  0.14644404
   5.76942462  7.70624189 11.54609010
   5.76663828  7.87363191  3.98431284
   9.68602240 11.55843381  0.05407216
   9.65539008  0.00737574  3.83063482
   9.68649526  0.00793546  7.74140795
   9.67396382  3.93040606 11.57244903
   9.68108339  3.87611792  3.91146780
   9.68677781  3.89178437  7.70473374
   9.68091204  7.66336176  7.80352880
  11.59638281  0.08756167  1.94236516
  11.59212539 11.48566359  9.66425664
   0.01658096  3.87880552  5.78702737
  11.53162402  3.94377664  9.63659539
   0.08508342  7.62505070  1.91650179
   0.06818118  7.75029743  9.65550008
   3.78161579 11.54186765  1.98137611
   3.73877014 11.55439256  5.75550865
   3.84318538  3.85738969  1.96492683
   3.75116394  3.85512678  5.77721181
   3.92089660  7.77259736  1.94698994
   3.75625954  7.76959275  5.77852754
   7.80525746 11.57385689  1.98415599
   7.85204034  0.03056402  5.76726616
   7.81893240  3.86199240  1.93748662
   7.85711450  3.81585668  5.78755343
   7.77814813  7.75247168  5.80107506
   7.71173058  7.57135370  9.67007257
 


--------------------------------------------------------------------------------------------------------


 k-point   1 :   0.0000 0.0000 0.0000  plane waves:   65279
 k-point   2 :   0.3333 0.0000-0.0000  plane waves:   65472
 k-point   3 :  -0.0000 0.3333-0.0000  plane waves:   65466
 k-point   4 :   0.3333 0.3333-0.0000  plane waves:   65511
 k-point   5 :  -0.3333 0.3333-0.0000  plane waves:   65499
 k-point   6 :  -0.0000-0.0000 0.3333  plane waves:   65467
 k-point   7 :   0.3333-0.0000 0.3333  plane waves:   65501
 k-point   8 :  -0.3333 0.0000 0.3333  plane waves:   65513
 k-point   9 :  -0.0000 0.3333 0.3333  plane waves:   65501
 k-point  10 :   0.3333 0.3333 0.3333  plane waves:   65546
 k-point  11 :  -0.3333 0.3333 0.3333  plane waves:   65549
 k-point  12 :  -0.0000-0.3333 0.3333  plane waves:   65515
 k-point  13 :   0.3333-0.3333 0.3333  plane waves:   65550
 k-point  14 :  -0.3333-0.3333 0.3333  plane waves:   65551

 maximum and minimum number of plane-waves per node :      8234     8131

 maximum number of plane-waves:     65551
 maximum index in each direction: 
   IXMAX=   25   IYMAX=   25   IZMAX=   25
   IXMIN=  -25   IYMIN=  -25   IZMIN=  -25


 real space projection operators:
  total allocation   :      54047.09 KBytes
  max/ min on nodes  :       7364.17       6114.97


 parallel 3D FFT for wavefunctions:
    minimum data exchange during FFTs selected (reduces bandwidth)
 parallel 3D FFT for charge:
    minimum data exchange during FFTs selected (reduces bandwidth)


 total amount of memory used by VASP MPI-rank0   297978. kBytes
=======================================================================

   base      :      30000. kBytes
   nonlr-proj:      25337. kBytes
   fftplans  :      18873. kBytes
   grid      :      21088. kBytes
   one-center:        435. kBytes
   wavefun   :     202245. kBytes
 
     INWAV:  cpu time      0.0000: real time      0.0000
 Broyden mixing: mesh for mixing (old mesh)
   NGX = 51   NGY = 51   NGZ = 51
  (NGX  =200   NGY  =200   NGZ  =200)
  gives a total of 132651 points

 initial charge density was supplied:
 charge density of overlapping atoms calculated
 number of electron     810.0000000 magnetization     108.0000000
 keeping initial charge density in first step


--------------------------------------------------------------------------------------------------------


 Maximum index for non-local projection operator         1373
 Maximum index for augmentation-charges         4049 (set IRDMAX)


--------------------------------------------------------------------------------------------------------


 First call to EWALD:  gamma=   0.153
 Maximum number of real-space cells 3x 3x 3
 Maximum number of reciprocal cells 3x 3x 3

    FEWALD:  cpu time      0.0038: real time      0.0042


--------------------------------------- Iteration      1(   1)  ---------------------------------------


    POTLOK:  cpu time      0.1607: real time      0.1811
    SETDIJ:  cpu time      0.8990: real time      0.9038
     EDDAV:  cpu time     87.7157: real time     87.9951
       DOS:  cpu time      0.0088: real time      0.0088
    --------------------------------------------
      LOOP:  cpu time     88.7842: real time     89.0888

 eigenvalue-minimisations  : 30240
 total energy-change (2. order) : 0.1319622E+05  (-0.4642868E+05)
 number of electron     810.0000000 magnetization     108.0000000
 augmentation part      810.0000000 magnetization     108.0000000

 Free energy of the ion-electron system (eV)
  ---------------------------------------------------
  alpha Z        PSCENC =      2560.28707536
  Ewald energy   TEWEN  =    -43264.22066561
  -Hartree energ DENC   =    -27742.85210073
  -exchange      EXHF   =         0.00000000
  -V(xc)+E(xc)   XCENC  =      3762.35271938
  PAW double counting   =     55010.87535266   -55252.78449702
  entropy T*S    EENTRO =        -0.00172406
  eigenvalues    EBANDS =      2852.11791141
  atomic energy  EATOM  =     75270.44210491
  Solvation  Ediel_sol  =         0.00000000
  ---------------------------------------------------
  free energy    TOTEN  =     13196.21617628 eV

  energy without entropy =    13196.21790033  energy(sigma->0) =    13196.21703831


--------------------------------------------------------------------------------------------------------




--------------------------------------- Iteration      1(   2)  ---------------------------------------


     EDDAV:  cpu time     87.8927: real time     88.1794
       DOS:  cpu time      0.0065: real time      0.0065
    --------------------------------------------
      LOOP:  cpu time     87.8992: real time     88.1859

 eigenvalue-minimisations  : 30270
 total energy-change (2. order) :-0.1154612E+05  (-0.1080865E+05)
 number of electron     810.0000000 magnetization     108.0000000
 augmentation part      810.0000000 magnetization     108.0000000

 Free energy of the ion-electron system (eV)
  ---------------------------------------------------
  alpha Z        PSCENC =      2560.28707536
  Ewald energy   TEWEN  =    -43264.22066561
  -Hartree energ DENC   =    -27742.85210073
  -exchange      EXHF   =         0.00000000
  -V(xc)+E(xc)   XCENC  =      3762.35271938
  PAW double counting   =     55010.87535266   -55252.78449702
  entropy T*S    EENTRO =        -0.00167809
  eigenvalues    EBANDS =     -8694.00088672
  atomic energy  EATOM  =     75270.44210491
  Solvation  Ediel_sol  =         0.00000000
  ---------------------------------------------------
  free energy    TOTEN  =      1650.09742412 eV

  energy without entropy =     1650.09910221  energy(sigma->0) =     1650.09826316


--------------------------------------------------------------------------------------------------------




--------------------------------------- Iteration      1(   3)  ---------------------------------------


     EDDAV:  cpu time     93.4773: real time     93.7013
       DOS:  cpu time      0.0100: real time      0.0100
    --------------------------------------------
      LOOP:  cpu time     93.4873: real time     93.7113

 eigenvalue-minimisations  : 32420
 total energy-change (2. order) :-0.2419135E+04  (-0.2271756E+04)
 number of electron     810.0000000 magnetization     108.0000000
 augmentation part      810.0000000 magnetization     108.0000000

 Free energy of the ion-electron system (eV)
  ---------------------------------------------------
  alpha Z        PSCENC =      2560.28707536
  Ewald energy   TEWEN  =    -43264.22066561
  -Hartree energ DENC   =    -27742.85210073
  -exchange      EXHF   =         0.00000000
  -V(xc)+E(xc)   XCENC  =      3762.35271938
  PAW double counting   =     55010.87535266   -55252.78449702
  entropy T*S    EENTRO =        -0.00000000
  eigenvalues    EBANDS =    -11113.13773263
  atomic energy  EATOM  =     75270.44210491
  Solvation  Ediel_sol  =         0.00000000
  ---------------------------------------------------
  free energy    TOTEN  =      -769.03774370 eV

  energy without entropy =     -769.03774370  energy(sigma->0) =     -769.03774370


--------------------------------------------------------------------------------------------------------




--------------------------------------- Iteration      1(   4)  ---------------------------------------


     EDDAV:  cpu time    104.4044: real time    104.7343
       DOS:  cpu time      0.0033: real time      0.0033
    --------------------------------------------
      LOOP:  cpu time    104.4077: real time    104.7376

 eigenvalue-minimisations  : 37390
 total energy-change (2. order) :-0.1541194E+03  (-0.1524241E+03)
 number of electron     810.0000000 magnetization     108.0000000
 augmentation part      810.0000000 magnetization     108.0000000

 Free energy of the ion-electron system (eV)
  ---------------------------------------------------
  alpha Z        PSCENC =      2560.28707536
  Ewald energy   TEWEN  =    -43264.22066561
  -Hartree energ DENC   =    -27742.85210073
  -exchange      EXHF   =         0.00000000
  -V(xc)+E(xc)   XCENC  =      3762.35271938
  PAW double counting   =     55010.87535266   -55252.78449702
  entropy T*S    EENTRO =        -0.00000000
  eigenvalues    EBANDS =    -11267.25709181
  atomic energy  EATOM  =     75270.44210491
  Solvation  Ediel_sol  =         0.00000000
  ---------------------------------------------------
  free energy    TOTEN  =      -923.15710289 eV

  energy without entropy =     -923.15710289  energy(sigma->0) =     -923.15710289


--------------------------------------------------------------------------------------------------------




--------------------------------------- Iteration      1(   5)  ---------------------------------------


     EDDAV:  cpu time    106.6990: real time    106.9580
       DOS:  cpu time      0.0071: real time      0.0071
    CHARGE:  cpu time      4.0225: real time      4.0337
    MIXING:  cpu time      0.0041: real time      0.0046
    --------------------------------------------
      LOOP:  cpu time    110.7328: real time    111.0034

 eigenvalue-minimisations  : 38270
 total energy-change (2. order) :-0.4946233E+01  (-0.4924635E+01)
 number of electron     810.0000011 magnetization      68.7799587
 augmentation part      205.6130446 magnetization      70.5247759

 Broyden mixing:
  rms(total) = 0.10944E+02    rms(broyden)= 0.10944E+02
  rms(prec ) = 0.13038E+02
  weight for this iteration     100.00

 Free energy of the ion-electron system (eV)
  ---------------------------------------------------
  alpha Z        PSCENC =      2560.28707536
  Ewald energy   TEWEN  =    -43264.22066561
  -Hartree energ DENC   =    -27742.85210073
  -exchange      EXHF   =         0.00000000
  -V(xc)+E(xc)   XCENC  =      3762.35271938
  PAW double counting   =     55010.87535266   -55252.78449702
  entropy T*S    EENTRO =        -0.00000000
  eigenvalues    EBANDS =    -11272.20332512
  atomic energy  EATOM  =     75270.44210491
  Solvation  Ediel_sol  =         0.00000000
  ---------------------------------------------------
  free energy    TOTEN  =      -928.10333619 eV

  energy without entropy =     -928.10333619  energy(sigma->0) =     -928.10333619


--------------------------------------------------------------------------------------------------------




--------------------------------------- Iteration      1(   6)  ---------------------------------------


    POTLOK:  cpu time      0.1944: real time      0.2857
    SETDIJ:  cpu time      0.8931: real time      0.8952
     EDDAV:  cpu time    110.9836: real time    111.2487
       DOS:  cpu time      0.0032: real time      0.0032
    CHARGE:  cpu time      3.9795: real time      3.9889
    MIXING:  cpu time      0.0041: real time      0.0044
    --------------------------------------------
      LOOP:  cpu time    116.0579: real time    116.4262

 eigenvalue-minimisations  : 40270
 total energy-change (2. order) : 0.4221152E+03  (-0.1147414E+03)
 number of electron     810.0000011 magnetization      47.1042907
 augmentation part      211.7628651 magnetization      41.6849827

 Broyden mixing:
  rms(total) = 0.32835E+01    rms(broyden)= 0.32830E+01
  rms(prec ) = 0.35852E+01
  weight for this iteration     100.00

 eigenvalues of (default mixing * dielectric matrix)
  average eigenvalue GAMMA=   0.8694
  0.8694

 Free energy of the ion-electron system (eV)
  ---------------------------------------------------
  alpha Z        PSCENC =      2560.28707536
  Ewald energy   TEWEN  =    -43264.22066561
  -Hartree energ DENC   =    -28149.13015163
  -exchange      EXHF   =         0.00000000
  -V(xc)+E(xc)   XCENC  =      3909.24843064
  PAW double counting   =     57656.38293047   -58029.33323851
  entropy T*S    EENTRO =        -0.00000000
  eigenvalues    EBANDS =    -10459.66461754
  atomic energy  EATOM  =     75270.44210491
  Solvation  Ediel_sol  =         0.00000000
  ---------------------------------------------------
  free energy    TOTEN  =      -505.98813192 eV

  energy without entropy =     -505.98813192  energy(sigma->0) =     -505.98813192


--------------------------------------------------------------------------------------------------------




--------------------------------------- Iteration      1(   7)  ---------------------------------------


    POTLOK:  cpu time      0.2269: real time      0.3337
    SETDIJ:  cpu time      0.8932: real time      0.8953
     EDDAV:  cpu time    106.0351: real time    106.2901
       DOS:  cpu time      0.0072: real time      0.0072
    CHARGE:  cpu time      4.0286: real time      4.0382
    MIXING:  cpu time      0.0044: real time      0.0045
    --------------------------------------------
      LOOP:  cpu time    111.1953: real time    111.5690

 eigenvalue-minimisations  : 38390
 total energy-change (2. order) :-0.9516919E+02  (-0.1939752E+02)
 number of electron     810.0000011 magnetization      26.4253307
 augmentation part      207.5206380 magnetization      22.4917160

 Broyden mixing:
  rms(total) = 0.19110E+01    rms(broyden)= 0.19110E+01
  rms(prec ) = 0.21264E+01
  weight for this iteration     100.00

 eigenvalues of (default mixing * dielectric matrix)
  average eigenvalue GAMMA=   0.9774
  1.1004  0.8545

 Free energy of the ion-electron system (eV)
  ---------------------------------------------------
  alpha Z        PSCENC =      2560.28707536
  Ewald energy   TEWEN  =    -43264.22066561
  -Hartree energ DENC   =    -28176.83779139
  -exchange      EXHF   =         0.00000000
  -V(xc)+E(xc)   XCENC  =      3859.82954102
  PAW double counting   =     59243.05773336   -59628.14257616
  entropy T*S    EENTRO =        -0.00000000
  eigenvalues    EBANDS =    -10465.57274092
  atomic energy  EATOM  =     75270.44210491
  Solvation  Ediel_sol  =         0.00000000
  ---------------------------------------------------
  free energy    TOTEN  =      -601.15731943 eV

  energy without entropy =     -601.15731943  energy(sigma->0) =     -601.15731943


--------------------------------------------------------------------------------------------------------




--------------------------------------- Iteration      1(   8)  ---------------------------------------


    POTLOK:  cpu time      0.1885: real time      0.3007
    SETDIJ:  cpu time      0.9129: real time      0.9150
     EDDAV:  cpu time     98.1217: real time     98.3549
       DOS:  cpu time      0.0028: real time      0.0028
    CHARGE:  cpu time      4.0134: real time      4.0230
    MIXING:  cpu time      0.0040: real time      0.0040
    --------------------------------------------
      LOOP:  cpu time    103.2432: real time    103.6004

 eigenvalue-minimisations  : 34720
 total energy-change (2. order) :-0.5565396E+02  (-0.4300953E+01)
 number of electron     810.0000011 magnetization      10.0766654
 augmentation part      209.6220023 magnetization       7.3065518

 Broyden mixing:
  rms(total) = 0.12371E+01    rms(broyden)= 0.12371E+01
  rms(prec ) = 0.13292E+01
  weight for this iteration     100.00

 eigenvalues of (default mixing * dielectric matrix)
  average eigenvalue GAMMA=   1.1739
  1.4166  1.4166  0.6886

 Free energy of the ion-electron system (eV)
  ---------------------------------------------------
  alpha Z        PSCENC =      2560.28707536
  Ewald energy   TEWEN  =    -43264.22066561
  -Hartree energ DENC   =    -28019.89464772
  -exchange      EXHF   =         0.00000000
  -V(xc)+E(xc)   XCENC  =      3823.36496639
  PAW double counting   =     60277.36281122   -60680.95553391
  entropy T*S    EENTRO =        -0.00000000
  eigenvalues    EBANDS =    -10623.19738949
  atomic energy  EATOM  =     75270.44210491
  Solvation  Ediel_sol  =         0.00000000
  ---------------------------------------------------
  free energy    TOTEN  =      -656.81127885 eV

  energy without entropy =     -656.81127885  energy(sigma->0) =     -656.81127885


--------------------------------------------------------------------------------------------------------




--------------------------------------- Iteration      1(   9)  ---------------------------------------


    POTLOK:  cpu time      0.1619: real time      0.2139
    SETDIJ:  cpu time      0.8962: real time      0.8984
     EDDAV:  cpu time    100.8025: real time    101.0411
       DOS:  cpu time      0.0030: real time      0.0030
    CHARGE:  cpu time      4.0259: real time      4.0354
    MIXING:  cpu time      0.0040: real time      0.0040
    --------------------------------------------
      LOOP:  cpu time    105.8935: real time    106.1957

 eigenvalue-minimisations  : 35560
 total energy-change (2. order) :-0.5322303E+02  (-0.7793200E+01)
 number of electron     810.0000011 magnetization       4.7488292
 augmentation part      208.6416831 magnetization       3.7926646

 Broyden mixing:
  rms(total) = 0.51569E+00    rms(broyden)= 0.51560E+00
  rms(prec ) = 0.63197E+00
  weight for this iteration     100.00

 eigenvalues of (default mixing * dielectric matrix)
  average eigenvalue GAMMA=   1.1614
  1.8439  1.4560  0.7570  0.5886

 Free energy of the ion-electron system (eV)
  ---------------------------------------------------
  alpha Z        PSCENC =      2560.28707536
  Ewald energy   TEWEN  =    -43264.22066561
  -Hartree energ DENC   =    -27878.04305299
  -exchange      EXHF   =         0.00000000
  -V(xc)+E(xc)   XCENC  =      3788.44036654
  PAW double counting   =     60917.17760516   -61325.87641195
  entropy T*S    EENTRO =        -0.00000000
  eigenvalues    EBANDS =    -10778.24133104
  atomic energy  EATOM  =     75270.44210491
  Solvation  Ediel_sol  =         0.00000000
  ---------------------------------------------------
  free energy    TOTEN  =      -710.03430962 eV

  energy without entropy =     -710.03430962  energy(sigma->0) =     -710.03430962


--------------------------------------------------------------------------------------------------------




--------------------------------------- Iteration      1(  10)  ---------------------------------------


    POTLOK:  cpu time      0.2093: real time      0.2774
    SETDIJ:  cpu time      0.8934: real time      0.8955
     EDDAV:  cpu time    103.7835: real time    104.0287
       DOS:  cpu time      0.0059: real time      0.0059
    CHARGE:  cpu time      4.0082: real time      4.0177
    MIXING:  cpu time      0.0055: real time      0.0055
    --------------------------------------------
      LOOP:  cpu time    108.9058: real time    109.2308

 eigenvalue-minimisations  : 37260
 total energy-change (2. order) :-0.8657406E+01  (-0.1351752E+01)
 number of electron     810.0000011 magnetization       1.9104186
 augmentation part      209.1018355 magnetization       1.5650679

 Broyden mixing:
  rms(total) = 0.19874E+00    rms(broyden)= 0.19870E+00
  rms(prec ) = 0.22610E+00
  weight for this iteration     100.00

 eigenvalues of (default mixing * dielectric matrix)
  average eigenvalue GAMMA=   1.2183
  2.1664  1.5993  0.9645  0.7708  0.5904

 Free energy of the ion-electron system (eV)
  ---------------------------------------------------
  alpha Z        PSCENC =      2560.28707536
  Ewald energy   TEWEN  =    -43264.22066561
  -Hartree energ DENC   =    -27838.33676581
  -exchange      EXHF   =         0.00000000
  -V(xc)+E(xc)   XCENC  =      3783.58775434
  PAW double counting   =     61036.52541587   -61450.32657236
  entropy T*S    EENTRO =        -0.00000000
  eigenvalues    EBANDS =    -10816.65006246
  atomic energy  EATOM  =     75270.44210491
  Solvation  Ediel_sol  =         0.00000000
  ---------------------------------------------------
  free energy    TOTEN  =      -718.69171577 eV

  energy without entropy =     -718.69171577  energy(sigma->0) =     -718.69171577


--------------------------------------------------------------------------------------------------------




--------------------------------------- Iteration      1(  11)  ---------------------------------------


    POTLOK:  cpu time      0.1894: real time      0.2758
    SETDIJ:  cpu time      0.9241: real time      0.9264
     EDDAV:  cpu time    100.8708: real time    101.1091
       DOS:  cpu time      0.0026: real time      0.0026
    CHARGE:  cpu time      4.0314: real time      4.0410
    MIXING:  cpu time      0.0045: real time      0.0048
    --------------------------------------------
      LOOP:  cpu time    106.0228: real time    106.3596

 eigenvalue-minimisations  : 36090
 total energy-change (2. order) :-0.2245307E+01  (-0.3818607E+00)
 number of electron     810.0000011 magnetization       0.5766726
 augmentation part      209.1079071 magnetization       0.4602392

 Broyden mixing:
  rms(total) = 0.98409E-01    rms(broyden)= 0.98388E-01
  rms(prec ) = 0.11961E+00
  weight for this iteration     100.00

 eigenvalues of (default mixing * dielectric matrix)
  average eigenvalue GAMMA=   1.2390
  2.5492  1.3877  1.3877  0.7919  0.7139  0.6037

 Free energy of the ion-electron system (eV)
  ---------------------------------------------------
  alpha Z        PSCENC =      2560.28707536
  Ewald energy   TEWEN  =    -43264.22066561
  -Hartree energ DENC   =    -27801.41847867
  -exchange      EXHF   =         0.00000000
  -V(xc)+E(xc)   XCENC  =      3781.28030738
  PAW double counting   =     60984.39124168   -61400.10834294
  entropy T*S    EENTRO =        -0.00000000
  eigenvalues    EBANDS =    -10851.59026473
  atomic energy  EATOM  =     75270.44210491
  Solvation  Ediel_sol  =         0.00000000
  ---------------------------------------------------
  free energy    TOTEN  =      -720.93702263 eV

  energy without entropy =     -720.93702263  energy(sigma->0) =     -720.93702263


--------------------------------------------------------------------------------------------------------




--------------------------------------- Iteration      1(  12)  ---------------------------------------


    POTLOK:  cpu time      0.1957: real time      0.2015
    SETDIJ:  cpu time      0.8977: real time      0.8999
     EDDAV:  cpu time     96.4253: real time     96.6546
       DOS:  cpu time      0.0027: real time      0.0027
    CHARGE:  cpu time      4.1325: real time      4.1423
    MIXING:  cpu time      0.0045: real time      0.0045
    --------------------------------------------
      LOOP:  cpu time    101.6585: real time    101.9055

 eigenvalue-minimisations  : 33570
 total energy-change (2. order) :-0.1670112E-01  (-0.2568046E-01)
 number of electron     810.0000011 magnetization       0.2812910
 augmentation part      209.1476522 magnetization       0.2454153

 Broyden mixing:
  rms(total) = 0.45972E-01    rms(broyden)= 0.45967E-01
  rms(prec ) = 0.57415E-01
  weight for this iteration     100.00

 eigenvalues of (default mixing * dielectric matrix)
  average eigenvalue GAMMA=   1.2191
  2.5351  1.5120  1.5120  0.8345  0.8345  0.5741  0.7316

 Free energy of the ion-electron system (eV)
  ---------------------------------------------------
  alpha Z        PSCENC =      2560.28707536
  Ewald energy   TEWEN  =    -43264.22066561
  -Hartree energ DENC   =    -27774.01094065
  -exchange      EXHF   =         0.00000000
  -V(xc)+E(xc)   XCENC  =      3780.23144364
  PAW double counting   =     60907.49633388   -61323.61475343
  entropy T*S    EENTRO =        -0.00000000
  eigenvalues    EBANDS =    -10877.56432183
  atomic energy  EATOM  =     75270.44210491
  Solvation  Ediel_sol  =         0.00000000
  ---------------------------------------------------
  free energy    TOTEN  =      -720.95372374 eV

  energy without entropy =     -720.95372374  energy(sigma->0) =     -720.95372374


--------------------------------------------------------------------------------------------------------




--------------------------------------- Iteration      1(  13)  ---------------------------------------


    POTLOK:  cpu time      0.3242: real time      0.3668
    SETDIJ:  cpu time      0.8966: real time      0.8987
     EDDAV:  cpu time     96.4826: real time     96.7122
       DOS:  cpu time      0.0027: real time      0.0027
    CHARGE:  cpu time      4.0585: real time      4.0680
    MIXING:  cpu time      0.0056: real time      0.0056
    --------------------------------------------
      LOOP:  cpu time    101.7700: real time    102.0540

 eigenvalue-minimisations  : 34170
 total energy-change (2. order) :-0.2339731E-02  (-0.5189181E-02)
 number of electron     810.0000011 magnetization       0.0153812
 augmentation part      209.1389346 magnetization      -0.0028041

 Broyden mixing:
  rms(total) = 0.22791E-01    rms(broyden)= 0.22790E-01
  rms(prec ) = 0.28548E-01
  weight for this iteration     100.00

 eigenvalues of (default mixing * dielectric matrix)
  average eigenvalue GAMMA=   1.2683
  2.6495  2.3661  1.1730  0.9981  0.8628  0.8628  0.5829  0.6509

 Free energy of the ion-electron system (eV)
  ---------------------------------------------------
  alpha Z        PSCENC =      2560.28707536
  Ewald energy   TEWEN  =    -43264.22066561
  -Hartree energ DENC   =    -27763.59784484
  -exchange      EXHF   =         0.00000000
  -V(xc)+E(xc)   XCENC  =      3779.82932289
  PAW double counting   =     60875.75728289   -61291.43104138
  entropy T*S    EENTRO =        -0.00000000
  eigenvalues    EBANDS =    -10888.02229769
  atomic energy  EATOM  =     75270.44210491
  Solvation  Ediel_sol  =         0.00000000
  ---------------------------------------------------
  free energy    TOTEN  =      -720.95606347 eV

  energy without entropy =     -720.95606347  energy(sigma->0) =     -720.95606347


--------------------------------------------------------------------------------------------------------




--------------------------------------- Iteration      1(  14)  ---------------------------------------


    POTLOK:  cpu time      0.1852: real time      0.2585
    SETDIJ:  cpu time      0.9144: real time      0.9165
     EDDAV:  cpu time     96.3074: real time     96.5355
       DOS:  cpu time      0.0111: real time      0.0112
    CHARGE:  cpu time      4.1300: real time      4.1397
    MIXING:  cpu time      0.0047: real time      0.0047
    --------------------------------------------
      LOOP:  cpu time    101.5528: real time    101.8661

 eigenvalue-minimisations  : 33510
 total energy-change (2. order) : 0.6047591E-02  (-0.1356322E-02)
 number of electron     810.0000011 magnetization       0.0038759
 augmentation part      209.1478829 magnetization      -0.0010546

 Broyden mixing:
  rms(total) = 0.78382E-02    rms(broyden)= 0.78368E-02
  rms(prec ) = 0.10105E-01
  weight for this iteration     100.00

[...]
      3.99337      7.71699      7.80622        -0.000857     -0.001397     -0.001217
      7.59651     11.50227     11.47612         0.000333     -0.000846      0.001066
      7.62890      0.01917      3.87769         0.000645      0.000281      0.000962
      7.59414     11.52144      7.86679        -0.000385      0.000880     -0.001207
      7.74973      3.86609     11.45302         0.000176      0.002311      0.001069
      7.63301      4.00791      3.86208        -0.000292      0.003464      0.000163
      7.58208      3.86785      7.78983        -0.001602      0.000025     -0.000964
      7.78377      7.87074      0.11252        -0.001408     -0.001524      0.000527
      7.82344      7.63700      3.74603        -0.001306      0.003177     -0.001180
      7.63408      7.86825      7.74146        -0.000588     -0.000164      0.001476
      0.01260      1.91952     11.49522         0.002399     -0.001338     -0.003639
      0.04819      1.94372      7.76521         0.001017     -0.000133     -0.000815
      0.03026      9.66805      3.78090        -0.000613      0.000220     -0.004036
      3.81199      1.93026      0.00900        -0.001031     -0.003664     -0.005057
      3.76064      1.93568      7.73488        -0.002105     -0.001945      0.006246
      3.93391      5.81183      3.86657         0.004028      0.001678     -0.000103
      7.63556      5.78502      3.89556        -0.005585     -0.000990     -0.000489
      7.73755      9.65371     11.51925        -0.001521      0.007317     -0.005157
      7.77339      9.64041      7.79070        -0.002301      0.001588      0.004661
      1.92477      3.94047     11.57148         0.000243      0.002204     -0.001860
      5.79832      0.01508      0.13576         0.000112      0.001332      0.006389
      5.79393      0.03508      3.89020        -0.000347      0.001949      0.001294
      5.79918      0.01818      7.60066        -0.000607      0.002232     -0.005252
      5.79795      3.73691      3.90448         0.003450     -0.003654      0.001565
      5.82065      3.86975      7.60920         0.002465     -0.001985     -0.003072
      5.77949      7.69573      7.70235        -0.000399     -0.000949     -0.000340
      9.68975      7.71482      0.01121         0.007763      0.001130      0.001520
      9.67263      7.70259      3.82042         0.000164     -0.002257     -0.003570
     11.59240     11.56193      5.80000        -0.000118     -0.003511     -0.000539
     11.56985      3.86088      1.95165         0.000889     -0.001592     -0.000591
      0.01048      7.74337      5.81674        -0.001441      0.001048      0.001278
      3.87889     11.47675      9.66772         0.005708     -0.005768      0.001704
      3.95461      3.98173      9.66434         0.004608      0.004377     -0.000347
      3.81958      7.69757      9.67239        -0.001271     -0.001861      0.000976
      7.71507      0.15066      9.66660        -0.007140      0.005889      0.001545
      7.69434      3.82228      9.67526        -0.002819     -0.000238     -0.000473
      7.63360      7.76015      1.94667        -0.004593      0.004851      0.002150
     11.58808      1.92879      3.89846        -0.000042     -0.000109      0.001241
     11.58738      5.80672     11.53491        -0.001725      0.000575     -0.003262
      0.07057      5.78110      3.89765         0.002977     -0.000752     -0.000628
     11.59176      5.78408      7.74479        -0.000286     -0.000333     -0.001214
      0.02272      9.66304      0.06829        -0.001329     -0.000604      0.002635
     11.53824      9.63908      7.79958        -0.002246     -0.001575      0.000918
      3.78153      1.90980      3.86416        -0.001273     -0.000661      0.000390
      3.90847      5.82180      0.14956         0.001274      0.000380      0.004378
      3.78253      5.80941      7.59179        -0.000641     -0.000795     -0.004731
      3.82340      9.61451      0.09760        -0.000365     -0.000783      0.002064
      3.80798      9.66058      3.86954        -0.002224      0.000087      0.001077
      3.80341      9.63155      7.63529        -0.000003     -0.000629     -0.002287
      7.82455      1.95720      0.13780         0.003606      0.000464      0.002969
      7.82448      1.92362      3.84649         0.002597      0.002163     -0.000773
      7.84778      1.94739      7.62377         0.003484      0.000754     -0.002387
      7.69525      5.77725      0.03402        -0.000277     -0.000698      0.001977
      7.81007      5.79033      7.66439         0.000203     -0.000621     -0.002555
      7.73421      9.69813      3.93249         0.000908      0.002013      0.003288
      1.90324     11.49850      0.04986         0.000888     -0.002315      0.000048
      1.94540      0.04538      3.82637        -0.001150      0.000925     -0.000608
      1.90183     11.47537      7.73850         0.000405     -0.003252      0.002490
      1.93824      3.83588      3.86762         0.000499     -0.000702     -0.001212
      1.89705      3.97213      7.74322         0.000045      0.000890      0.001982
      1.92099      7.69405      0.05591        -0.001225     -0.001761      0.000101
      1.94881      7.70481      3.80668         0.000451     -0.000881     -0.001824
      1.91790      7.73247      7.74438        -0.001153     -0.001041     -0.000089
      5.82976      3.85467      0.14701         0.001586     -0.002151      0.004438
      5.76981      7.70679     11.54642        -0.001750      0.000607     -0.003227
      5.76691      7.87476      3.98517        -0.001076      0.005513      0.005012
      9.68665     11.55917      0.05413        -0.000492      0.000537     -0.000559
      9.65615      0.00744      3.83082         0.000823      0.000715     -0.000591
      9.68719      0.00772      7.74214        -0.001054     -0.001682      0.002406
      9.67467      3.93090     11.57293         0.000537      0.002076     -0.002114
      9.68185      3.87676      3.91171         0.000668      0.003973     -0.000317
      9.68755      3.89211      7.70516        -0.000185      0.000836     -0.000492
      9.68149      7.66377      7.80420        -0.000637     -0.000238      0.001368
     11.59714      0.08796      1.94250        -0.000025      0.003713     -0.000241
     11.59289     11.48603      9.66497         0.000174     -0.002648      0.000595
      0.01671      3.87906      5.78737         0.001124      0.000057     -0.000712
     11.53223      3.94403      9.63706        -0.001178      0.000123     -0.001470
      0.08521      7.62500      1.91653         0.001200     -0.004658     -0.002181
      0.06828      7.75076      9.65613         0.000491     -0.000153      0.000182
      3.78152     11.54242      1.98167        -0.002357     -0.000762     -0.000128
      3.73845     11.55511      5.75586        -0.004566      0.000505      0.000941
      3.84344      3.85734      1.96515         0.000112     -0.002635      0.000088
      3.75116      3.85497      5.77753        -0.002089     -0.003611      0.000515
      3.92152      7.77318      1.94731         0.003391      0.001112      0.000422
      3.75603      7.77005      5.77886        -0.003900     -0.000215     -0.000246
      7.80602     11.57443      1.98452         0.002240     -0.001244      0.000131
      7.85308      0.03082      5.76763         0.003961      0.002143      0.001131
      7.81990      3.86242      1.93781         0.003828      0.001898      0.000892
      7.85798      3.81626      5.78782         0.002888      0.001706     -0.000561
      7.77896      7.75316      5.80161         0.002735      0.002109      0.001463
      7.71221      7.57129      9.67070        -0.000309     -0.004314     -0.000608
 -----------------------------------------------------------------------------------
    total drift:                               -0.003367      0.001082      0.001173


--------------------------------------------------------------------------------------------------------



  FREE ENERGIE OF THE ION-ELECTRON SYSTEM (eV)
  ---------------------------------------------------
  free  energy   TOTEN  =      -720.95084596 eV

  energy  without entropy=     -720.95084596  energy(sigma->0) =     -720.95084596
 
 d Force = 0.5714765E-04[ 0.442E-04, 0.701E-04]  d Energy = 0.5209440E-04 0.505E-05
 d Force = 0.2218849E+00[ 0.222E+00, 0.222E+00]  d Ewald  = 0.6565915E+00-0.435E+00


--------------------------------------------------------------------------------------------------------


    POTLOK:  cpu time      1.0428: real time      1.0453


--------------------------------------------------------------------------------------------------------


 Quasi-Newton relaxation of ions (Broydens 2nd method)
  g(Force)  = 0.769E-04   g(Stress)= 0.252E-07

 retain information from N=  2 steps
 eigenvalues of (default step * inverse Hessian matrix)
  average eigenvalue of G=   3.3145
 eigenvalue spectrum of G is  0.4064  6.2225


--------------------------------------------------------------------------------------------------------


  
 reached required accuracy - stopping structural energy minimisation
 writing wavefunctions
     LOOP+:  cpu time    606.6260: real time    608.6622
    4ORBIT:  cpu time      0.0000: real time      0.0000



 total charge

# of ion       s       p       d       tot
------------------------------------------
    1        0.316   6.460   1.763   8.538
    2        0.321   6.459   1.791   8.570
    3        0.322   6.463   1.758   8.543
    4        0.327   6.462   1.813   8.602
    5        0.316   6.460   1.775   8.550
    6        0.317   6.466   1.751   8.534
    7        0.316   6.460   1.789   8.565
    8        0.327   6.459   1.806   8.592
    9        0.316   6.462   1.772   8.550
   10        0.331   6.453   1.844   8.627
   11        0.316   6.470   1.714   8.500
   12        0.328   6.450   1.829   8.607
   13        0.329   6.453   1.827   8.609
   14        0.322   6.462   1.769   8.553
   15        0.327   6.451   1.818   8.595
   16        0.318   6.464   1.757   8.539
   17        0.317   6.464   1.758   8.539
   18        0.321   6.459   1.774   8.555
   19        0.330   6.453   1.839   8.623
   20        0.317   6.471   1.708   8.495
   21        0.328   6.451   1.823   8.601
   22        0.315   6.460   1.746   8.521
   23        0.322   6.457   1.799   8.579
   24        0.320   6.455   1.786   8.561
   25        0.327   6.458   1.816   8.601
   26        0.328   6.456   1.811   8.595
   27        0.319   6.453   1.787   8.559
   28        1.571   3.470   0.000   5.041
   29        1.570   3.469   0.000   5.039
   30        1.570   3.474   0.000   5.044
   31        1.568   3.477   0.000   5.046
   32        1.568   3.473   0.000   5.040
   33        1.571   3.472   0.000   5.042
   34        1.570   3.475   0.000   5.045
   35        1.569   3.476   0.000   5.046
   36        1.569   3.469   0.000   5.038
   37        1.570   3.473   0.000   5.044
   38        1.569   3.477   0.000   5.046
   39        1.570   3.466   0.000   5.035
   40        1.568   3.474   0.000   5.042
   41        1.570   3.472   0.000   5.042
   42        1.570   3.470   0.000   5.040
   43        1.570   3.472   0.000   5.042
   44        1.572   3.468   0.000   5.040
   45        1.569   3.475   0.000   5.044
   46        1.570   3.475   0.000   5.044
   47        1.571   3.469   0.000   5.041
   48        1.571   3.469   0.000   5.040
   49        1.569   3.478   0.000   5.047
   50        1.568   3.474   0.000   5.042
   51        1.570   3.470   0.000   5.041
   52        1.569   3.477   0.000   5.046
   53        1.569   3.467   0.000   5.036
   54        1.569   3.473   0.000   5.042
   55        1.730   4.378   0.000   6.108
   56        1.730   4.385   0.000   6.115
   57        1.730   4.380   0.000   6.109
   58        1.730   4.380   0.000   6.109
   59        1.729   4.377   0.000   6.106
   60        1.730   4.381   0.000   6.111
   61        1.730   4.380   0.000   6.110
   62        1.731   4.374   0.000   6.104
   63        1.730   4.375   0.000   6.105
   64        1.730   4.375   0.000   6.106
   65        1.730   4.377   0.000   6.107
   66        1.730   4.376   0.000   6.106
   67        1.730   4.376   0.000   6.106
   68        1.731   4.376   0.000   6.106
   69        1.730   4.379   0.000   6.109
   70        1.730   4.376   0.000   6.106
   71        1.730   4.376   0.000   6.105
   72        1.730   4.377   0.000   6.108
   73        1.730   4.376   0.000   6.106
   74        1.730   4.382   0.000   6.112
   75        1.730   4.376   0.000   6.106
   76        1.730   4.378   0.000   6.107
   77        1.730   4.378   0.000   6.108
   78        1.730   4.378   0.000   6.108
   79        1.730   4.376   0.000   6.106
   80        1.730   4.379   0.000   6.109
   81        1.729   4.377   0.000   6.106
   82        1.730   4.383   0.000   6.113
   83        1.730   4.375   0.000   6.105
   84        1.730   4.375   0.000   6.105
   85        1.729   4.381   0.000   6.111
   86        1.730   4.376   0.000   6.106
   87        1.730   4.376   0.000   6.106
   88        1.729   4.380   0.000   6.109
   89        1.731   4.375   0.000   6.106
   90        1.730   4.379   0.000   6.109
   91        1.729   4.381   0.000   6.111
   92        1.730   4.377   0.000   6.107
   93        1.730   4.377   0.000   6.106
   94        1.730   4.382   0.000   6.112
   95        1.730   4.382   0.000   6.111
   96        1.729   4.377   0.000   6.107
   97        1.731   4.373   0.000   6.105
   98        1.731   4.371   0.000   6.103
   99        1.730   4.376   0.000   6.107
  100        1.730   4.376   0.000   6.106
  101        1.730   4.377   0.000   6.107
  102        1.730   4.381   0.000   6.111
  103        1.731   4.373   0.000   6.104
  104        1.731   4.372   0.000   6.103
  105        1.729   4.378   0.000   6.107
  106        1.730   4.383   0.000   6.113
  107        1.729   4.378   0.000   6.107
  108        1.729   4.378   0.000   6.107
--------------------------------------------------
tot        144.493 504.533  48.222 697.248



 magnetization (x)

# of ion       s       p       d       tot
------------------------------------------
    1       -0.000  -0.000  -0.000  -0.000
    2       -0.000  -0.000  -0.000  -0.000
    3       -0.000  -0.000   0.000  -0.000
    4       -0.000  -0.000   0.000   0.000
    5       -0.000  -0.000  -0.000  -0.000
    6       -0.000  -0.000  -0.000  -0.000
    7       -0.000  -0.000  -0.000  -0.000
    8       -0.000  -0.000   0.000   0.000
    9       -0.000  -0.000  -0.000  -0.000
   10        0.000   0.000   0.000   0.000
   11       -0.000  -0.000  -0.000  -0.000
   12       -0.000  -0.000   0.000   0.000
   13       -0.000  -0.000   0.000   0.000
   14       -0.000  -0.000   0.000   0.000
   15       -0.000  -0.000   0.000   0.000
   16       -0.000  -0.000  -0.000  -0.000
   17       -0.000  -0.000  -0.000  -0.000
   18       -0.000  -0.000   0.000  -0.000
   19        0.000   0.000  -0.000  -0.000
   20       -0.000  -0.000  -0.000  -0.000
   21       -0.000  -0.000   0.000   0.000
   22       -0.000  -0.000  -0.000  -0.000
   23        0.000   0.000  -0.000  -0.000
   24       -0.000  -0.000  -0.000  -0.000
   25       -0.000  -0.000   0.000   0.000
   26       -0.000  -0.000   0.000   0.000
   27       -0.000  -0.000  -0.000  -0.000
   28        0.000   0.000   0.000   0.000
   29       -0.000   0.000   0.000   0.000
   30        0.000   0.000   0.000   0.000
   31       -0.000  -0.000   0.000  -0.000
   32        0.000   0.000   0.000   0.000
   33        0.000   0.000   0.000   0.000
   34       -0.000   0.000   0.000   0.000
   35       -0.000  -0.000   0.000  -0.000
   36       -0.000  -0.000   0.000  -0.000
   37        0.000  -0.000   0.000  -0.000
   38        0.000   0.000   0.000   0.000
   39        0.000   0.000   0.000   0.000
   40       -0.000  -0.000   0.000  -0.000
   41        0.000   0.000   0.000   0.000
   42        0.000   0.000   0.000   0.000
   43        0.000   0.000   0.000   0.000
   44       -0.000   0.000   0.000   0.000
   45       -0.000   0.000   0.000  -0.000
   46        0.000   0.000   0.000   0.000
   47        0.000   0.000   0.000   0.000
   48        0.000   0.000   0.000   0.000
   49        0.000  -0.000   0.000  -0.000
   50       -0.000  -0.000   0.000  -0.000
   51        0.000   0.000   0.000   0.000
   52        0.000   0.000   0.000   0.000
   53        0.000   0.000   0.000   0.000
   54       -0.000  -0.000   0.000  -0.000
   55        0.000   0.000   0.000   0.000
   56       -0.000   0.000   0.000   0.000
   57        0.000   0.000   0.000   0.000
   58        0.000   0.000   0.000   0.000
   59        0.000  -0.000   0.000  -0.000
   60        0.000   0.000   0.000   0.000
   61        0.000   0.000   0.000   0.000
   62       -0.000   0.000   0.000   0.000
   63        0.000   0.000   0.000   0.000
   64       -0.000   0.000   0.000  -0.000
   65       -0.000   0.000   0.000  -0.000
   66        0.000   0.000   0.000   0.000
   67        0.000  -0.000   0.000   0.000
   68        0.000  -0.000   0.000   0.000
   69        0.000  -0.000   0.000  -0.000
   70       -0.000   0.000   0.000   0.000
   71        0.000   0.000   0.000   0.000
   72        0.000   0.000   0.000   0.000
   73       -0.000   0.000   0.000   0.000
   74        0.000   0.000   0.000   0.000
   75        0.000   0.000   0.000   0.000
   76       -0.000   0.000   0.000   0.000
   77        0.000   0.000   0.000   0.000
   78       -0.000  -0.000   0.000  -0.000
   79        0.000   0.000   0.000   0.000
   80        0.000  -0.000   0.000   0.000
   81        0.000   0.000   0.000   0.000
   82        0.000   0.000   0.000   0.000
   83        0.000  -0.000   0.000  -0.000
   84        0.000   0.000   0.000   0.000
   85        0.000   0.000   0.000   0.000
   86        0.000   0.000   0.000   0.000
   87        0.000   0.000   0.000   0.000
   88        0.000   0.000   0.000   0.000
   89        0.000  -0.000   0.000   0.000
   90        0.000   0.000   0.000   0.000
   91        0.000   0.000   0.000   0.000
   92        0.000   0.000   0.000   0.000
   93        0.000   0.000   0.000   0.000
   94        0.000   0.000   0.000   0.000
   95       -0.000   0.000   0.000   0.000
   96        0.000  -0.000   0.000  -0.000
   97        0.000   0.000   0.000   0.000
   98        0.000   0.000   0.000   0.000
   99        0.000   0.000   0.000   0.000
  100       -0.000   0.000   0.000   0.000
  101        0.000   0.000   0.000   0.000
  102       -0.000   0.000   0.000   0.000
  103        0.000   0.000   0.000   0.000
  104        0.000   0.000   0.000   0.000
  105       -0.000   0.000   0.000  -0.000
  106        0.000   0.000   0.000   0.000
  107        0.000   0.000   0.000   0.000
  108       -0.000  -0.000   0.000  -0.000
--------------------------------------------------
tot         -0.000   0.000   0.000   0.000
 

 total amount of memory used by VASP MPI-rank0   297978. kBytes
=======================================================================

   base      :      30000. kBytes
   nonlr-proj:      25337. kBytes
   fftplans  :      18873. kBytes
   grid      :      21088. kBytes
   one-center:        435. kBytes
   wavefun   :     202245. kBytes
 
  
  
 General timing and accounting informations for this job:
 ========================================================
  
                  Total CPU time used (sec):     4183.194
                            User time (sec):     4144.447
                          System time (sec):       38.747
                         Elapsed time (sec):     4198.438
  
                   Maximum memory used (kb):      949192.
                   Average memory used (kb):          N/A
  
                          Minor page faults:       563813
                          Major page faults:            9
                 Voluntary context switches:        30427
