 vasp.5.4.4.18Apr17-6-g9f103f2a35 (build Apr 30 2017 20:10:35) complex          
  
 executed on             LinuxIFC date 2017.08.03  19:37:50
 running on   64 total cores
 distrk:  each k-point on   64 cores,    1 groups
 distr:  one band on NCORES_PER_BAND=   8 cores,    8 groups


--------------------------------------------------------------------------------------------------------


 INCAR:
 POTCAR:   PAW_PBE Ti_pv 07Sep2000                
 POTCAR:   PAW_PBE O 08Apr2002                    
 POTCAR:    PAW_PBE F 08Apr2002                   
 POTCAR:   PAW_PBE Ti_pv 07Sep2000                
   VRHFIN =Ti: d3 s1                                                            
   LEXCH  = PE                                                                  
   EATOM  =  1042.3781 eV,   76.6126 Ry                                         
                                                                                
   TITEL  = PAW_PBE Ti_pv 07Sep2000                                             
   LULTRA =        F    use ultrasoft PP ?                                      
   IUNSCR =        1    unscreen: 0-lin 1-nonlin 2-no                           
   RPACOR =    2.200    partial core radius                                     
   POMASS =   47.880; ZVAL   =   10.000    mass and valenz                      
   RCORE  =    2.500    outmost cutoff radius                                   
   RWIGS  =    2.500; RWIGS  =    1.323    wigner-seitz radius (au A)           
   ENMAX  =  222.338; ENMIN  =  166.753 eV                                      
   RCLOC  =    1.701    cutoff for local pot                                    
   LCOR   =        T    correct aug charges                                     
   LPAW   =        T    paw PP                                                  
   EAUG   =  482.848                                                            
   DEXC   =    -.008                                                            
   RMAX   =    3.092    core radius for proj-oper                               
   RAUG   =    1.300    factor for augmentation sphere                          
   RDEP   =    2.538    radius for radial grids                                 
   QCUT   =   -4.042; QGAM   =    8.085    optimization parameters              
                                                                                
   Description                                                                  
     l     E      TYP  RCUT    TYP  RCUT                                        
     1   .000     23  2.300                                                     
     1  -.100     23  2.300                                                     
     2   .000     23  2.500                                                     
     2   .000     23  2.500                                                     
     0   .000     23  2.500                                                     
     0  1.500     23  2.500                                                     
     3   .000      7   .000                                                     
  local pseudopotential read in
  partial core-charges read in
  atomic valenz-charges read in
  non local Contribution for L=           1  read in
    real space projection operators read in
  non local Contribution for L=           1  read in
    real space projection operators read in
  non local Contribution for L=           2  read in
    real space projection operators read in
  non local Contribution for L=           2  read in
    real space projection operators read in
  non local Contribution for L=           0  read in
    real space projection operators read in
  non local Contribution for L=           0  read in
    real space projection operators read in
    PAW grid and wavefunctions read in
 
   number of l-projection  operators is LMAX  =           6
   number of lm-projection operators is LMMAX =          18
 
 POTCAR:   PAW_PBE O 08Apr2002                    
   VRHFIN =O: s2p4                                                              
   LEXCH  = PE                                                                  
   EATOM  =   432.3788 eV,   31.7789 Ry                                         
                                                                                
   TITEL  = PAW_PBE O 08Apr2002                                                 
   LULTRA =        F    use ultrasoft PP ?                                      
   IUNSCR =        0    unscreen: 0-lin 1-nonlin 2-no                           
   RPACOR =     .000    partial core radius                                     
   POMASS =   16.000; ZVAL   =    6.000    mass and valenz                      
   RCORE  =    1.520    outmost cutoff radius                                   
   RWIGS  =    1.550; RWIGS  =     .820    wigner-seitz radius (au A)           
   ENMAX  =  400.000; ENMIN  =  300.000 eV                                      
   ICORE  =        2    local potential                                         
   LCOR   =        T    correct aug charges                                     
   LPAW   =        T    paw PP                                                  
   EAUG   =  605.392                                                            
   DEXC   =     .000                                                            
   RMAX   =    2.264    core radius for proj-oper                               
   RAUG   =    1.300    factor for augmentation sphere                          
   RDEP   =    1.550    radius for radial grids                                 
   QCUT   =   -5.520; QGAM   =   11.041    optimization parameters              
                                                                                
   Description                                                                  
     l     E      TYP  RCUT    TYP  RCUT                                        
     0   .000     23  1.200                                                     
     0  -.700     23  1.200                                                     
     1   .000     23  1.520                                                     
     1   .600     23  1.520                                                     
     2   .000      7  1.500                                                     
  local pseudopotential read in
  atomic valenz-charges read in
  non local Contribution for L=           0  read in
    real space projection operators read in
  non local Contribution for L=           0  read in
    real space projection operators read in
  non local Contribution for L=           1  read in
    real space projection operators read in
  non local Contribution for L=           1  read in
    real space projection operators read in
    PAW grid and wavefunctions read in
 
   number of l-projection  operators is LMAX  =           4
   number of lm-projection operators is LMMAX =           8
 
 POTCAR:    PAW_PBE F 08Apr2002                   
   VRHFIN =F: s2p5                                                              
   LEXCH  = PE                                                                  
   EATOM  =   659.6475 eV,   48.4827 Ry                                         
                                                                                
   TITEL  = PAW_PBE F 08Apr2002                                                 
   LULTRA =        F    use ultrasoft PP ?                                      
   IUNSCR =        1    unscreen: 0-lin 1-nonlin 2-no                           
   RPACOR =    1.200    partial core radius                                     
   POMASS =   18.998; ZVAL   =    7.000    mass and valenz                      
   RCORE  =    1.520    outmost cutoff radius                                   
   RWIGS  =    1.500; RWIGS  =    0.794    wigner-seitz radius (au A)           
   ENMAX  =  400.000; ENMIN  =  300.000 eV                                      
   ICORE  =        2    local potential                                         
   LCOR   =        T    correct aug charges                                     
   LPAW   =        T    paw PP                                                  
   EAUG   =  613.614                                                            
   RMAX   =    1.555    core radius for proj-oper                               
   RAUG   =    1.300    factor for augmentation sphere                          
   RDEP   =    1.539    radius for radial grids                                 
   RDEPT  =    1.299    core radius for aug-charge                              
                                                                                
   Atomic configuration                                                         
    4 entries                                                                   
     n  l   j            E        occ.                                          
     1  0  0.50      -663.3661   2.0000                                         
     2  0  0.50       -29.8995   2.0000                                         
     2  1  0.50       -11.1114   5.0000                                         
     3  2  1.50       -10.8847   0.0000                                         
   Description                                                                  
     l       E           TYP  RCUT    TYP  RCUT                                 
     0    -29.8995018     23  1.200                                             
     0     -9.5240782     23  1.200                                             
     1    -11.1113914     23  1.520                                             
     1      1.3605826     23  1.520                                             
     2    -10.8846608      7  1.500                                             
  local pseudopotential read in
  partial core-charges read in
  partial kinetic energy density read in
  atomic valenz-charges read in
  non local Contribution for L=           0  read in
    real space projection operators read in
  non local Contribution for L=           0  read in
    real space projection operators read in
  non local Contribution for L=           1  read in
    real space projection operators read in
  non local Contribution for L=           1  read in
    real space projection operators read in
    PAW grid and wavefunctions read in
 
   number of l-projection  operators is LMAX  =           4
   number of lm-projection operators is LMMAX =           8
 
 Optimization of the real space projectors (new method)

 maximal supplied QI-value         = 15.12
 optimisation between [QCUT,QGAM] = [ 13.45, 27.06] = [ 50.69,205.06] Ry 
 Optimized for a Real-space Cutoff    1.49 Angstroem

   l    n(q)    QCUT    max X(q) W(low)/X(q) W(high)/X(q)  e(spline) 
   1     12    13.455     4.841    0.13E-05    0.83E-06    0.56E-07
   1     12    13.455     5.701    0.32E-04    0.25E-04    0.17E-06
   2     11    13.455     4.569    0.64E-05    0.34E-05    0.50E-07
   2     11    13.455    32.276    0.49E-04    0.38E-04    0.46E-06
   0     12    13.455    30.046    0.17E-04    0.41E-05    0.51E-07
   0     12    13.455    45.433    0.12E-04    0.27E-04    0.38E-06
 Optimization of the real space projectors (new method)

 maximal supplied QI-value         = 24.76
 optimisation between [QCUT,QGAM] = [ 13.37, 26.98] = [ 50.04,203.89] Ry 
 Optimized for a Real-space Cutoff    1.17 Angstroem

   l    n(q)    QCUT    max X(q) W(low)/X(q) W(high)/X(q)  e(spline) 
   0      9    13.368     4.192    0.20E-04    0.58E-05    0.56E-07
   0      9    13.368     8.473    0.60E-04    0.52E-04    0.21E-06
   1      9    13.368     2.474    0.22E-04    0.17E-04    0.28E-07
   1      9    13.368     3.912    0.94E-04    0.97E-04    0.20E-06
 Optimization of the real space projectors (new method)

 maximal supplied QI-value         = 24.76
 optimisation between [QCUT,QGAM] = [ 13.37, 26.98] = [ 50.04,203.89] Ry 
 Optimized for a Real-space Cutoff    1.17 Angstroem

   l    n(q)    QCUT    max X(q) W(low)/X(q) W(high)/X(q)  e(spline) 
   0      9    13.368    14.049    0.39E-04    0.34E-04    0.16E-06
   0      9    13.368     8.945    0.54E-04    0.47E-04    0.20E-06
   1      9    13.368     7.086    0.99E-04    0.10E-03    0.23E-06
   1      9    13.368     6.747    0.86E-04    0.89E-04    0.21E-06

 ----------------------------------------------------------------------------- 
|                                                                             |
|  ADVICE TO THIS USER RUNNING 'VASP/VAMP'   (HEAR YOUR MASTER'S VOICE ...):  |
|                                                                             |
|      You enforced a specific xc-type in the INCAR file,                     |
|      a different type was found on the POTCAR file                          |
|          I HOPE YOU KNOW, WHAT YOU ARE  DOING                               |
|                                                                             |
 ----------------------------------------------------------------------------- 

 PAW_PBE Ti_pv 07Sep2000                :
 energy of atom  1       EATOM=-1042.3781
 kinetic energy error for atom=    0.0006 (will be added to EATOM!!)
 PAW_PBE O 08Apr2002                    :
 energy of atom  2       EATOM= -432.3788
 kinetic energy error for atom=    0.0091 (will be added to EATOM!!)
  PAW_PBE F 08Apr2002                   :
 energy of atom  3       EATOM= -659.6475
 kinetic energy error for atom=    0.0140 (will be added to EATOM!!)
 
 
 POSCAR: TiOF2 2x2x2 config 0017                 
  positions in direct lattice
  velocities in cartesian coordinates
 exchange correlation table for  LEXCH =       14
   RHO(1)=    0.500       N(1)  =     2000
   RHO(2)=  100.500       N(2)  =     4000

 VTST: version 3.1, (03/28/14)

 CHAIN: initializing optimizer
 
 OPT: Using VASP QUASI-newton optimizer
 CHAIN: Read ICHAIN            0
 
 POSCAR: TiOF2 2x2x2 config 0017                 
  positions in direct lattice
  velocities in cartesian coordinates
 


--------------------------------------------------------------------------------------------------------


 ion  position               nearest neighbor table
   1  1.000  0.000  0.987-  11 1.78  25 1.90  27 1.90  21 1.94  17 1.94  31 1.97
   2  0.000  0.000  0.509-  11 1.82  18 1.89  22 1.89  26 1.90  28 1.90  31 1.97
   3  1.000  0.500  0.000-  12 1.88  13 1.88  23 1.94  19 1.94  27 1.99  25 1.99
   4  0.000  0.500  0.500-  12 1.89  13 1.90  20 1.92  24 1.92  28 1.98  26 1.98
   5  0.500  0.000  0.017-  14 1.71  29 1.91  30 1.91  32 1.95  17 2.03  21 2.03
   6  0.500  1.000  0.498-  10 1.88   9 1.88  14 1.92  32 1.97  22 2.07  18 2.07
   7  0.500  0.500  0.000-  15 1.83  16 1.85  30 1.98  29 1.98  19 2.02  23 2.02
   8  0.500  0.500  0.502-  16 1.91  15 1.96   9 2.00  10 2.00  24 2.04  20 2.04
   9  0.500  0.242  0.502-   6 1.88   8 2.00
  10  0.500  0.758  0.502-   6 1.88   8 2.00
  11  1.000  0.000  0.751-   1 1.78   2 1.82
  12  0.000  0.500  0.249-   3 1.88   4 1.89
  13  1.000  0.500  0.751-   3 1.88   4 1.90
  14  0.500  1.000  0.244-   5 1.71   6 1.92
  15  0.500  0.500  0.242-   7 1.83   8 1.96
  16  0.500  0.500  0.755-   7 1.85   8 1.91
  17  0.244  0.000  0.001-   1 1.94   5 2.03
  18  0.239  0.000  0.497-   2 1.89   6 2.07
  19  0.245  0.500  1.000-   3 1.94   7 2.02
  20  0.243  0.500  0.500-   4 1.92   8 2.04
  21  0.756  0.000  0.001-   1 1.94   5 2.03
  22  0.761  1.000  0.497-   2 1.89   6 2.07
  23  0.755  0.500  1.000-   3 1.94   7 2.02
  24  0.757  0.500  0.500-   4 1.92   8 2.04
  25  1.000  0.244  0.006-   1 1.90   3 1.99
  26  1.000  0.245  0.495-   2 1.90   4 1.98
  27  1.000  0.756  0.006-   1 1.90   3 1.99
  28  0.000  0.755  0.495-   2 1.90   4 1.98
  29  0.500  0.245  0.992-   5 1.91   7 1.98
  30  0.500  0.755  0.992-   5 1.91   7 1.98
  31  0.000  0.000  0.248-   2 1.97   1 1.97
  32  0.500  0.000  0.759-   5 1.95   6 1.97
 

IMPORTANT INFORMATION: All symmetrisations will be switched off!
NOSYMM: (Re-)initialisation of all symmetry stuff for point group C_1.

 
 
 KPOINTS: Title                                   

Automatic generation of k-mesh.
Space group operators:
 irot       det(A)        alpha          n_x          n_y          n_z        tau_x        tau_y        tau_z
    1     1.000000     0.000000     1.000000     0.000000     0.000000     0.000000     0.000000     0.000000
 
 Subroutine IBZKPT returns following result:
 ===========================================
 
 Found      4 irreducible k-points:
 
 Following reciprocal coordinates:
            Coordinates               Weight
  0.250000  0.250000  0.250000      2.000000
 -0.250000  0.250000  0.250000      2.000000
  0.250000 -0.250000  0.250000      2.000000
 -0.250000 -0.250000  0.250000      2.000000
 
 Following cartesian coordinates:
            Coordinates               Weight
  0.031581  0.032195  0.033135      2.000000
 -0.031582  0.032196  0.033135      2.000000
  0.031582 -0.032195  0.033134      2.000000
 -0.031581 -0.032195  0.033135      2.000000
 


--------------------------------------------------------------------------------------------------------




 Dimension of arrays:
   k-points           NKPTS =      4   k-points in BZ     NKDIM =      4   number of bands    NBANDS=    160
   number of dos      NEDOS =   3001   number of ions     NIONS =     32
   non local maximal  LDIM  =      6   non local SUM 2l+1 LMDIM =     18
   total plane-waves  NPLWV = 343000
   max r-space proj   IRMAX =  10254   max aug-charges    IRDMAX= 229880
   dimension x,y,z NGX =    70 NGY =   70 NGZ =   70
   dimension x,y,z NGXF=   140 NGYF=  140 NGZF=  140
   support grid    NGXF=   280 NGYF=  280 NGZF=  280
   ions per type =               8   8  16
   NGX,Y,Z   is equivalent  to a cutoff of  14.70, 14.99, 15.42 a.u.
   NGXF,Y,Z  is equivalent  to a cutoff of  29.40, 29.97, 30.85 a.u.

 SYSTEM =  LTO                                     
 POSCAR =  TiOF2 2x2x2 config 0017                 

 Startparameter for this run:
   NWRITE =      2    write-flag & timer
   PREC   = accura    normal or accurate (medium, high low for compatibility)
   ISTART =      1    job   : 0-new  1-cont  2-samecut
   ICHARG =      0    charge: 1-file 2-atom 10-const
   ISPIN  =      2    spin polarized calculation?
   LNONCOLLINEAR =      F non collinear calculations
   LSORBIT =      F    spin-orbit coupling
   INIWAV =      1    electr: 0-lowe 1-rand  2-diag
   LASPH  =      T    aspherical Exc in radial PAW
   METAGGA=      F    non-selfconsistent MetaGGA calc.

 Electronic Relaxation 1
   ENCUT  =  700.0 eV  51.45 Ry    7.17 a.u.  17.08 16.75 16.28*2*pi/ulx,y,z
   ENINI  =  700.0     initial cutoff
   ENAUG  =  613.6 eV  augmentation charge cutoff
   NELM   =     60;   NELMIN=  2; NELMDL=  0     # of ELM steps 
   EDIFF  = 0.1E-05   stopping-criterion for ELM
   LREAL  =      T    real-space projection
   NLSPLINE    = F    spline interpolate recip. space projectors
   LCOMPAT=      F    compatible to vasp.4.4
   GGA_COMPAT  = T    GGA compatible to vasp.4.4-vasp.4.6
   LMAXPAW     = -100 max onsite density
   LMAXMIX     =    4 max onsite mixed and CHGCAR
   VOSKOWN=      0    Vosko Wilk Nusair interpolation
   ROPT   =   -0.00010  -0.00010  -0.00010
 Ionic relaxation
   EDIFFG = -.1E-01   stopping-criterion for IOM
   NSW    =    100    number of steps for IOM
   NBLOCK =      1;   KBLOCK =    100    inner block; outer block 
   IBRION =      1    ionic relax: 0-MD 1-quasi-New 2-CG
   NFREE  =      0    steps in history (QN), initial steepest desc. (CG)
   ISIF   =      3    stress and relaxation
   IWAVPR =     11    prediction:  0-non 1-charg 2-wave 3-comb
   ISYM   =      0    0-nonsym 1-usesym 2-fastsym
   LCORR  =      T    Harris-Foulkes like correction to forces

   POTIM  = 0.5000    time-step for ionic-motion
   TEIN   =    0.0    initial temperature
   TEBEG  =    0.0;   TEEND  =   0.0 temperature during run
   SMASS  =  -3.00    Nose mass-parameter (am)
   estimated Nose-frequenzy (Omega)   =  0.10E-29 period in steps =****** mass=  -0.143E-26a.u.
   SCALEE = 1.0000    scale energy and forces
   NPACO  =    256;   APACO  = 16.0  distance and # of slots for P.C.
   PSTRESS=    0.0 pullay stress

  Mass of Ions in am
   POMASS =  47.88 16.00 19.00
  Ionic Valenz
   ZVAL   =  10.00  6.00  7.00
  Atomic Wigner-Seitz radii
   RWIGS  =  -1.00 -1.00 -1.00
  virtual crystal weights 
   VCA    =   1.00  1.00  1.00
   NELECT =     240.0000    total number of electrons
   NUPDOWN=      -1.0000    fix difference up-down

 DOS related values:
   EMIN   =  10.00;   EMAX   =-10.00  energy-range for DOS
   EFERMI =   0.00
   ISMEAR =     0;   SIGMA  =   0.01  broadening in eV -4-tet -1-fermi 0-gaus

 Electronic relaxation 2 (details)
   IALGO  =     38    algorithm
   LDIAG  =      T    sub-space diagonalisation (order eigenvalues)
   LSUBROT=      F    optimize rotation matrix (better conditioning)
   TURBO    =      0    0=normal 1=particle mesh
   IRESTART =      0    0=no restart 2=restart with 2 vectors
   NREBOOT  =      0    no. of reboots
   NMIN     =      0    reboot dimension
   EREF     =   0.00    reference energy to select bands
   IMIX   =      4    mixing-type and parameters
     AMIX     =   0.40;   BMIX     =  1.00
     AMIX_MAG =   1.60;   BMIX_MAG =  1.00
     AMIN     =   0.10
     WC   =   100.;   INIMIX=   1;  MIXPRE=   1;  MAXMIX= -45

 Intra band minimization:
   WEIMIN = 0.0010     energy-eigenvalue tresh-hold
   EBREAK =  0.16E-08  absolut break condition
   DEPER  =   0.30     relativ break condition  

   TIME   =   0.40     timestep for ELM

  volume/ion in A,a.u.               =      14.49        97.80
  Fermi-wavevector in a.u.,A,eV,Ry     =   1.314340  2.483742 23.503906  1.727488
  Thomas-Fermi vector in A             =   2.444599
 
 Write flags
   LWAVE        =      T    write WAVECAR
   LDOWNSAMPLE  =      F    k-point downsampling of WAVECAR
   LCHARG       =      T    write CHGCAR
   LVTOT        =      F    write LOCPOT, total local potential
   LVHAR        =      F    write LOCPOT, Hartree potential only
   LELF         =      F    write electronic localiz. function (ELF)
   LORBIT       =     11    0 simple, 1 ext, 2 COOP (PROOUT), +10 PAW based schemes


 Dipole corrections
   LMONO  =      F    monopole corrections only (constant potential shift)
   LDIPOL =      F    correct potential (dipole corrections)
   IDIPOL =      0    1-x, 2-y, 3-z, 4-all directions 
   EPSILON=  1.0000000 bulk dielectric constant

 LDA+U is selected, type is set to LDAUTYPE =  2
   angular momentum for each species LDAUL =     2   -1   -1
   U (eV)           for each species LDAUU =   4.2  0.0  0.0
   J (eV)           for each species LDAUJ =   0.0  0.0  0.0
 Exchange correlation treatment:
   GGA     =    PS    GGA type
   LEXCH   =    14    internal setting for exchange type
   VOSKOWN=      0    Vosko Wilk Nusair interpolation
   LHFCALC =     F    Hartree Fock is set to
   LHFONE  =     F    Hartree Fock one center treatment
   AEXX    =    0.0000 exact exchange contribution

 Linear response parameters
   LEPSILON=     F    determine dielectric tensor
   LRPA    =     F    only Hartree local field effects (RPA)
   LNABLA  =     F    use nabla operator in PAW spheres
   LVEL    =     F    velocity operator in full k-point grid
   LINTERFAST=   F  fast interpolation
   KINTER  =     0    interpolate to denser k-point grid
   CSHIFT  =0.1000    complex shift for real part using Kramers Kronig
   OMEGAMAX=  -1.0    maximum frequency
   DEG_THRESHOLD= 0.2000000E-02 threshold for treating states as degnerate
   RTIME   =   -0.100 relaxation time in fs
  (WPLASMAI=    0.000 imaginary part of plasma frequency in eV, 0.658/RTIME)
   DFIELD  = 0.0000000 0.0000000 0.0000000 field for delta impulse in time
 
 Orbital magnetization related:
   ORBITALMAG=     F  switch on orbital magnetization
   LCHIMAG   =     F  perturbation theory with respect to B field
   DQ        =  0.001000  dq finite difference perturbation B field
   LLRAUG    =     F  two centre corrections for induced B field



--------------------------------------------------------------------------------------------------------


 quasi-Newton-method for relaxation of ions
 charge density and potential will be updated during run
 spin polarized calculation
 Variant of blocked Davidson
 Davidson routine will perform the subspace rotation
 perform sub-space diagonalisation
    after iterative eigenvector-optimisation
 modified Broyden-mixing scheme, WC =      100.0
 initial mixing is a Kerker type mixing with AMIX =  0.4000 and BMIX =      1.0000
 Hartree-type preconditioning will be used
 using additional bands           40
 real space projection scheme for non local part
 use partial core corrections
 calculate Harris-corrections to forces 
   (improved forces if not selfconsistent)
 use gradient corrections 
 use of overlap-Matrix (Vanderbilt PP)
 Gauss-broadening in eV      SIGMA  =   0.01


--------------------------------------------------------------------------------------------------------


  energy-cutoff  :      700.00
  volume of cell :      463.78
      direct lattice vectors                 reciprocal lattice vectors
     7.915989884  0.000062145  0.000006743     0.126326589 -0.000001022 -0.000000106
     0.000062803  7.765138469 -0.000022993    -0.000001011  0.128780704  0.000000378
     0.000006318 -0.000022157  7.544988750    -0.000000113  0.000000392  0.132538302

  length of vectors
     7.915989884  7.765138469  7.544988750     0.126326589  0.128780704  0.132538302


 
 old parameters found on file WAVECAR:
  energy-cutoff  :      700.00
  volume of cell :      438.28
      direct lattice vectors                 reciprocal lattice vectors
     7.596000000  0.000000000  0.000000000     0.131648236  0.000000000  0.000000000
     0.000000000  7.596000000  0.000000000     0.000000000  0.131648236  0.000000000
     0.000000000  0.000000000  7.596000000     0.000000000  0.000000000  0.131648236

  length of vectors

 
 k-points in units of 2pi/SCALE and weight: Title                                   
   0.03158137  0.03219502  0.03313464       0.250
  -0.03158193  0.03219553  0.03313470       0.250
   0.03158187 -0.03219533  0.03313445       0.250
  -0.03158142 -0.03219482  0.03313451       0.250
 
 k-points in reciprocal lattice and weights: Title                                   
   0.25000000  0.25000000  0.25000000       0.250
  -0.25000000  0.25000000  0.25000000       0.250
   0.25000000 -0.25000000  0.25000000       0.250
  -0.25000000 -0.25000000  0.25000000       0.250
 
 position of ions in fractional coordinates (direct lattice) 
   0.99999736  0.00000735  0.98702216
   0.00000145  0.00000693  0.50917125
   0.99999947  0.50000778  0.00031915
   0.00000145  0.50000724  0.49953408
   0.49999729  0.00000809  0.01702702
   0.50000219  0.99993595  0.49784374
   0.49999934  0.50001030  0.00047793
   0.50000230  0.49989487  0.50203990
   0.50001332  0.24219297  0.50191782
   0.49999594  0.75781579  0.50192955
   0.99999548  0.00000628  0.75092369
   0.00000199  0.50000191  0.24908842
   0.99999993  0.50000722  0.75145164
   0.49999472  0.99999371  0.24371554
   0.49999984  0.49999684  0.24243227
   0.50000069  0.49999180  0.75530702
   0.24438923  0.00001078  0.00121196
   0.23876678  0.00001874  0.49728702
   0.24543088  0.50001731  0.99967631
   0.24275667  0.49998280  0.49993364
   0.75560601  0.00001695  0.00121713
   0.76123598  0.99998060  0.49728934
   0.75456832  0.50001783  0.99967765
   0.75724611  0.50001047  0.49993524
   0.99999871  0.24386718  0.00603317
   0.99997072  0.24453344  0.49514684
   0.99999963  0.75614767  0.00603309
   0.00003147  0.75547830  0.49514147
   0.50000011  0.24455013  0.99195220
   0.49999890  0.75545982  0.99194379
   0.00000015  0.00000807  0.24824842
   0.49999757  0.00001487  0.75907155
 
 position of ions in cartesian coordinates  (Angst):
   7.91597525  0.00009736  7.44707784
   0.00001468  0.00004254  3.84169138
   7.91601706  3.88269182  0.00240327
   0.00004605  3.88261440  3.76896751
   3.95797356  0.00009352  0.12847201
   3.95807825  7.76466119  3.75620581
   3.95802113  3.88268027  0.00359782
   3.95804772  3.88177285  3.78787724
   3.95811879  1.88068191  3.78696211
   3.95801357  5.88456449  3.78703876
   7.91595884  0.00009428  5.66571752
   0.00004873  3.88257856  1.87935785
   7.91602546  3.88267080  5.66968939
   3.95801750  7.76511529  1.83881141
   3.95802662  3.88257037  1.82914059
   3.95803657  3.88251993  5.69877483
   1.93458268  0.00009888  0.00914591
   1.89007856  0.00014935  3.75202660
   1.94286610  3.88269675  7.54253667
   1.92169389  3.88243965  3.77198380
   5.98136954  0.00017857  0.00918835
   6.02600227  7.76502413  3.75202462
   5.97319289  3.88273241  7.54255021
   5.99438708  3.88268651  3.77199934
   7.91599503  1.89372441  0.04552131
   7.91577661  1.89888720  3.73587844
   7.91603445  5.87165339  0.04550898
   0.00029973  5.86638262  3.73581947
   3.95801746  1.89897469  7.48426595
   3.95803992  5.86625919  7.48419075
   0.00000274  0.00005719  1.87303157
   3.95798051  0.00012971  5.72718967
 


--------------------------------------------------------------------------------------------------------


 k-point  1 :   0.2500 0.2500 0.2500  plane waves:   19499
 k-point  2 :  -0.2500 0.2500 0.2500  plane waves:   19498
 k-point  3 :   0.2500-0.2500 0.2500  plane waves:   19498
 k-point  4 :  -0.2500-0.2500 0.2500  plane waves:   19499

 maximum and minimum number of plane-waves per node :      2465     2407

 maximum number of plane-waves:     19499
 maximum index in each direction: 
   IXMAX=   17   IYMAX=   16   IZMAX=   16
   IXMIN=  -17   IYMIN=  -16   IZMIN=  -16


 real space projection operators:
  total allocation   :      18451.36 KBytes
  max/ min on nodes  :       2452.88       1914.22


 parallel 3D FFT for wavefunctions:
    minimum data exchange during FFTs selected (reduces bandwidth)
 parallel 3D FFT for charge:
    minimum data exchange during FFTs selected (reduces bandwidth)


 total amount of memory used by VASP MPI-rank0    62247. kBytes
=======================================================================

   base      :      30000. kBytes
   nonlr-proj:       8549. kBytes
   fftplans  :       8422. kBytes
   grid      :       8783. kBytes
   one-center:        124. kBytes
   wavefun   :       6369. kBytes
 
     INWAV:  cpu time    3.7494: real time    4.4965
 Broyden mixing: mesh for mixing (old mesh)
   NGX = 35   NGY = 33   NGZ = 33
  (NGX  =140   NGY  =140   NGZ  =140)
  gives a total of  38115 points

 charge density for first step will be calculated from the start-wavefunctions


--------------------------------------------------------------------------------------------------------


 Maximum index for non-local projection operator         1380
 Maximum index for augmentation-charges         7166 (set IRDMAX)


--------------------------------------------------------------------------------------------------------


 initial charge from wavefunction
 First call to EWALD:  gamma=   0.229
 Maximum number of real-space cells 3x 3x 3
 Maximum number of reciprocal cells 3x 3x 3

    FEWALD:  cpu time    0.0030: real time    0.0030


--------------------------------------- Iteration      1(   1)  ---------------------------------------


    POTLOK:  cpu time    0.1890: real time    0.2687
    SETDIJ:  cpu time    0.8379: real time    0.8383
     EDDAV:  cpu time    3.5725: real time    3.5715
       DOS:  cpu time    0.0010: real time    0.0010
    CHARGE:  cpu time    0.3789: real time    0.3778
    MIXING:  cpu time    0.0020: real time    0.0025
    --------------------------------------------
      LOOP:  cpu time    4.9812: real time    5.0598

 eigenvalue-minimisations  :  2560
 total energy-change (2. order) :-0.2103925E+03  (-0.7517080E-01)
 number of electron     240.0000003 magnetization       0.0000000
 augmentation part       61.9551001 magnetization       0.0000000

 Broyden mixing:
  rms(total) = 0.83300E-02    rms(broyden)= 0.77621E-02
  rms(prec ) = 0.83295E-02
  weight for this iteration     100.00

 Free energy of the ion-electron system (eV)
  ---------------------------------------------------
  alpha Z        PSCENC =       755.02454826
  Ewald energy   TEWEN  =    -12729.54786604
  -Hartree energ DENC   =     -8289.36490406
  -exchange      EXHF   =         0.00000000
  -V(xc)+E(xc)   XCENC  =      1119.40099360
  PAW double counting   =     17996.88708466   -18119.84665167
  entropy T*S    EENTRO =        -0.00000000
  eigenvalues    EBANDS =     -3245.29894060
  atomic energy  EATOM  =     22302.35321627
  Solvation  Ediel_sol  =         0.00000000
  ---------------------------------------------------
  free energy    TOTEN  =      -210.39251959 eV

  energy without entropy =     -210.39251959  energy(sigma->0) =     -210.39251959


--------------------------------------------------------------------------------------------------------




--------------------------------------- Iteration      1(   2)  ---------------------------------------


    POTLOK:  cpu time    0.1520: real time    0.1615
    SETDIJ:  cpu time    0.8259: real time    0.8385
     EDDAV:  cpu time    4.0334: real time    4.0578
       DOS:  cpu time    0.0010: real time    0.0008
    CHARGE:  cpu time    0.3469: real time    0.4068
    MIXING:  cpu time    0.0140: real time    0.0154
    --------------------------------------------
      LOOP:  cpu time    5.3732: real time    5.4808

 eigenvalue-minimisations  :  3136
 total energy-change (2. order) :-0.1186613E-03  (-0.5353430E-05)
 number of electron     240.0000003 magnetization       0.0000000
 augmentation part       61.9552303 magnetization      -0.0000000

 Broyden mixing:
  rms(total) = 0.47270E-02    rms(broyden)= 0.46885E-02
  rms(prec ) = 0.51395E-02
  weight for this iteration     100.00

 eigenvalues of (default mixing * dielectric matrix)
  average eigenvalue GAMMA=   1.7451
  1.7451

 Free energy of the ion-electron system (eV)
  ---------------------------------------------------
  alpha Z        PSCENC =       755.02454826
  Ewald energy   TEWEN  =    -12729.54786604
  -Hartree energ DENC   =     -8289.30296918
  -exchange      EXHF   =         0.00000000
  -V(xc)+E(xc)   XCENC  =      1119.39660330
  PAW double counting   =     17997.72720297   -18120.66848722
  entropy T*S    EENTRO =        -0.00000000
  eigenvalues    EBANDS =     -3245.37488661
  atomic energy  EATOM  =     22302.35321627
  Solvation  Ediel_sol  =         0.00000000
  ---------------------------------------------------
  free energy    TOTEN  =      -210.39263825 eV

  energy without entropy =     -210.39263825  energy(sigma->0) =     -210.39263825


--------------------------------------------------------------------------------------------------------




--------------------------------------- Iteration      1(   3)  ---------------------------------------


    POTLOK:  cpu time    0.1970: real time    0.2062
    SETDIJ:  cpu time    0.8449: real time    0.8433
     EDDAV:  cpu time    4.2883: real time    4.2852
       DOS:  cpu time    0.0010: real time    0.0009
    CHARGE:  cpu time    0.3819: real time    0.3807
    MIXING:  cpu time    0.0030: real time    0.0024
    --------------------------------------------
      LOOP:  cpu time    5.7161: real time    5.7187

 eigenvalue-minimisations  :  3392
 total energy-change (2. order) :-0.9959274E-04  (-0.3291577E-05)
 number of electron     240.0000003 magnetization       0.0000000
 augmentation part       61.9564899 magnetization      -0.0000000

 Broyden mixing:
  rms(total) = 0.27483E-02    rms(broyden)= 0.27453E-02
  rms(prec ) = 0.35178E-02
  weight for this iteration     100.00

 eigenvalues of (default mixing * dielectric matrix)
  average eigenvalue GAMMA=   1.4915
  2.4394  0.5436

 Free energy of the ion-electron system (eV)
  ---------------------------------------------------
  alpha Z        PSCENC =       755.02454826
  Ewald energy   TEWEN  =    -12729.54786604
  -Hartree energ DENC   =     -8289.31733404
  -exchange      EXHF   =         0.00000000
  -V(xc)+E(xc)   XCENC  =      1119.39897493
  PAW double counting   =     17998.36010418   -18121.29375527
  entropy T*S    EENTRO =        -0.00000000
  eigenvalues    EBANDS =     -3245.37062613
  atomic energy  EATOM  =     22302.35321627
  Solvation  Ediel_sol  =         0.00000000
  ---------------------------------------------------
  free energy    TOTEN  =      -210.39273784 eV

  energy without entropy =     -210.39273784  energy(sigma->0) =     -210.39273784


--------------------------------------------------------------------------------------------------------




--------------------------------------- Iteration      1(   4)  ---------------------------------------


    POTLOK:  cpu time    0.1540: real time    0.1630
    SETDIJ:  cpu time    0.8499: real time    0.8485
     EDDAV:  cpu time    4.3723: real time    4.3701
       DOS:  cpu time    0.0010: real time    0.0010
    CHARGE:  cpu time    0.3839: real time    0.3821
    MIXING:  cpu time    0.0030: real time    0.0025
    --------------------------------------------
      LOOP:  cpu time    5.7641: real time    5.7672

 eigenvalue-minimisations  :  3392
 total energy-change (2. order) :-0.3666998E-04  (-0.1903668E-05)
 number of electron     240.0000003 magnetization      -0.0000000
 augmentation part       61.9558792 magnetization      -0.0000000

 Broyden mixing:
  rms(total) = 0.32490E-03    rms(broyden)= 0.32285E-03
  rms(prec ) = 0.43162E-03
  weight for this iteration     100.00

 eigenvalues of (default mixing * dielectric matrix)
  average eigenvalue GAMMA=   1.3254
  2.4884  0.9577  0.5300

 Free energy of the ion-electron system (eV)
  ---------------------------------------------------
  alpha Z        PSCENC =       755.02454826
  Ewald energy   TEWEN  =    -12729.54786604
  -Hartree energ DENC   =     -8289.35414563
  -exchange      EXHF   =         0.00000000
  -V(xc)+E(xc)   XCENC  =      1119.40049943
  PAW double counting   =     17998.93749543   -18121.86080429
  entropy T*S    EENTRO =        -0.00000000
  eigenvalues    EBANDS =     -3245.34571795
  atomic energy  EATOM  =     22302.35321627
  Solvation  Ediel_sol  =         0.00000000
  ---------------------------------------------------
  free energy    TOTEN  =      -210.39277451 eV

  energy without entropy =     -210.39277451  energy(sigma->0) =     -210.39277451


--------------------------------------------------------------------------------------------------------




--------------------------------------- Iteration      1(   5)  ---------------------------------------


    POTLOK:  cpu time    0.2130: real time    0.2230
    SETDIJ:  cpu time    0.8389: real time    0.8379
     EDDAV:  cpu time    2.8876: real time    2.8887
       DOS:  cpu time    0.0010: real time    0.0008
    --------------------------------------------
      LOOP:  cpu time    3.9404: real time    3.9504

 eigenvalue-minimisations  :  1792
 total energy-change (2. order) :-0.3963760E-06  (-0.1316992E-06)
 number of electron     240.0000003 magnetization      -0.0000000
 augmentation part       61.9558792 magnetization      -0.0000000

 Free energy of the ion-electron system (eV)
  ---------------------------------------------------
  alpha Z        PSCENC =       755.02454826
  Ewald energy   TEWEN  =    -12729.54786604
  -Hartree energ DENC   =     -8289.36551719
  -exchange      EXHF   =         0.00000000
  -V(xc)+E(xc)   XCENC  =      1119.40126885
  PAW double counting   =     17998.90884133   -18121.83219988
  entropy T*S    EENTRO =        -0.00000000
  eigenvalues    EBANDS =     -3245.33506650
  atomic energy  EATOM  =     22302.35321627
  Solvation  Ediel_sol  =         0.00000000
  ---------------------------------------------------
  free energy    TOTEN  =      -210.39277491 eV

  energy without entropy =     -210.39277491  energy(sigma->0) =     -210.39277491


--------------------------------------------------------------------------------------------------------




 average (electrostatic) potential at core
  the test charge radii are     1.0397  0.7215  0.7167
  (the norm of the test charge is              1.0000)
       1 -60.2498       2 -60.1262       3 -59.0329       4 -59.0001       5 -58.9711
       6 -57.8207       7 -58.0243       8 -57.6950       9 -72.4143      10 -72.4154
      11 -75.3596      12 -73.5907      13 -73.5839      14 -74.2779      15 -72.6970
      16 -72.6717      17 -79.9689      18 -79.6063      19 -79.0400      20 -78.7753
      21 -79.9689      22 -79.6063      23 -79.0400      24 -78.7754      25 -80.1839
      26 -80.0051      27 -80.1839      28 -80.0051      29 -79.3025      30 -79.3027
      31 -79.9387      32 -78.8800
 
 
 
 E-fermi :   0.5997     XC(G=0):  -8.9634     alpha+bet : -7.6190


 spin component 1

 k-point     1 :       0.2500    0.2500    0.2500
  band No.  band energies     occupation 
      1     -36.2372      1.00000
      2     -36.1878      1.00000
      3     -36.0950      1.00000
      4     -36.0883      1.00000
      5     -36.0466      1.00000
      6     -35.9716      1.00000
      7     -35.1214      1.00000
      8     -35.0760      1.00000
      9     -35.0599      1.00000
     10     -35.0228      1.00000
     11     -35.0009      1.00000
     12     -34.9621      1.00000
     13     -34.8469      1.00000
     14     -34.6300      1.00000
     15     -34.5748      1.00000
     16     -34.1376      1.00000
     17     -34.1290      1.00000
     18     -33.9683      1.00000
     19     -33.8528      1.00000
     20     -33.7373      1.00000
     21     -33.5988      1.00000
     22     -33.3831      1.00000
     23     -33.3801      1.00000
     24     -33.3399      1.00000
     25     -24.0619      1.00000
     26     -23.8711      1.00000
     27     -23.7479      1.00000
     28     -23.6211      1.00000
     29     -23.5839      1.00000
     30     -23.4479      1.00000
     31     -23.4388      1.00000
     32     -23.3529      1.00000
     33     -23.1352      1.00000
     34     -23.0208      1.00000
     35     -22.8277      1.00000
     36     -22.7414      1.00000
     37     -22.5527      1.00000
     38     -22.5497      1.00000
     39     -22.5126      1.00000
     40     -22.2235      1.00000
     41     -17.8386      1.00000
     42     -16.6610      1.00000
     43     -16.4322      1.00000
     44     -15.8091      1.00000
     45     -15.5737      1.00000
     46     -15.1176      1.00000
     47     -14.8585      1.00000
     48     -14.5911      1.00000
     49      -7.5508      1.00000
     50      -7.3888      1.00000
     51      -7.2707      1.00000
     52      -7.1677      1.00000
     53      -6.8670      1.00000
     54      -6.6359      1.00000
     55      -6.4632      1.00000
     56      -6.3165      1.00000
     57      -6.2760      1.00000
     58      -6.2109      1.00000
     59      -6.0712      1.00000
     60      -6.0418      1.00000
     61      -6.0319      1.00000
     62      -5.9807      1.00000
     63      -5.9135      1.00000
     64      -5.7909      1.00000
     65      -5.6978      1.00000
     66      -5.5835      1.00000
     67      -5.3811      1.00000
     68      -5.3573      1.00000
     69      -5.3135      1.00000
     70      -5.2211      1.00000
     71      -5.1733      1.00000
     72      -5.1162      1.00000
     73      -5.0604      1.00000
     74      -5.0314      1.00000
     75      -4.9305      1.00000
     76      -4.9015      1.00000
     77      -4.7664      1.00000
     78      -4.6092      1.00000
     79      -4.5887      1.00000
     80      -4.5032      1.00000
     81      -4.4886      1.00000
     82      -4.4545      1.00000
     83      -4.4114      1.00000
     84      -4.3243      1.00000
     85      -4.2210      1.00000
     86      -4.2020      1.00000
     87      -4.1592      1.00000
     88      -4.0835      1.00000
     89      -4.0636      1.00000
     90      -4.0019      1.00000
     91      -3.8922      1.00000
     92      -3.8545      1.00000
     93      -3.7470      1.00000
     94      -3.7034      1.00000
     95      -3.6890      1.00000
     96      -3.5798      1.00000
     97      -3.5619      1.00000
     98      -3.5350      1.00000
     99      -3.4265      1.00000
    100      -3.3737      1.00000
    101      -3.0666      1.00000
    102      -2.9817      1.00000
    103      -2.9452      1.00000
    104      -2.3644      1.00000
    105      -2.2405      1.00000
    106      -2.0307      1.00000
    107      -1.7232      1.00000
    108      -1.4878      1.00000
    109      -1.4567      1.00000
    110      -1.3228      1.00000
    111      -1.2409      1.00000
    112      -1.0986      1.00000
    113      -1.0689      1.00000
    114      -0.7699      1.00000
    115      -0.6413      1.00000
    116      -0.4383      1.00000
    117      -0.3106      1.00000
    118      -0.0662      1.00000
    119       0.0500      1.00000
    120       0.5419      1.00000
    121       1.3035      0.00000
    122       1.3413      0.00000
    123       1.4964      0.00000
    124       1.7640      0.00000
    125       2.3819      0.00000
    126       2.4494      0.00000
    127       2.4800      0.00000
    128       2.5027      0.00000
    129       2.5386      0.00000
    130       2.5775      0.00000
    131       2.6657      0.00000
    132       2.6987      0.00000
    133       2.7689      0.00000
    134       2.8391      0.00000
    135       2.9493      0.00000
    136       3.1291      0.00000
    137       3.4520      0.00000
    138       3.4790      0.00000
    139       3.5412      0.00000
    140       3.6447      0.00000
    141       3.6937      0.00000
    142       3.7589      0.00000
    143       3.7869      0.00000
    144       3.9005      0.00000
    145       3.9371      0.00000
    146       4.1386      0.00000
    147       4.2876      0.00000
    148       4.4090      0.00000
    149       4.5999      0.00000
    150       4.6254      0.00000
    151       4.7203      0.00000
    152       4.7629      0.00000
    153       5.0131      0.00000
    154       5.2421      0.00000
    155       5.3485      0.00000
    156       5.4748      0.00000
    157       5.9365      0.00000
    158       6.0683      0.00000
    159       6.4882      0.00000
    160       6.8676      0.00000

 k-point     2 :      -0.2500    0.2500    0.2500
  band No.  band energies     occupation 
      1     -36.2372      1.00000
      2     -36.1878      1.00000
      3     -36.0950      1.00000
      4     -36.0883      1.00000
      5     -36.0466      1.00000
      6     -35.9716      1.00000
      7     -35.1214      1.00000
      8     -35.0760      1.00000
      9     -35.0599      1.00000
     10     -35.0228      1.00000
     11     -35.0009      1.00000
     12     -34.9621      1.00000
     13     -34.8469      1.00000
     14     -34.6300      1.00000
     15     -34.5748      1.00000
     16     -34.1376      1.00000
     17     -34.1290      1.00000
     18     -33.9683      1.00000
     19     -33.8528      1.00000
     20     -33.7373      1.00000
     21     -33.5988      1.00000
     22     -33.3831      1.00000
     23     -33.3801      1.00000
     24     -33.3399      1.00000
     25     -24.0619      1.00000
     26     -23.8711      1.00000
     27     -23.7479      1.00000
     28     -23.6211      1.00000
     29     -23.5839      1.00000
     30     -23.4479      1.00000
     31     -23.4388      1.00000
     32     -23.3529      1.00000
     33     -23.1352      1.00000
     34     -23.0208      1.00000
     35     -22.8277      1.00000
     36     -22.7414      1.00000
     37     -22.5527      1.00000
     38     -22.5497      1.00000
     39     -22.5126      1.00000
     40     -22.2235      1.00000
     41     -17.8386      1.00000
     42     -16.6610      1.00000
     43     -16.4322      1.00000
     44     -15.8091      1.00000
     45     -15.5737      1.00000
     46     -15.1176      1.00000
     47     -14.8585      1.00000
     48     -14.5911      1.00000
     49      -7.5508      1.00000
     50      -7.3888      1.00000
     51      -7.2707      1.00000
     52      -7.1677      1.00000
     53      -6.8670      1.00000
     54      -6.6359      1.00000
     55      -6.4632      1.00000
     56      -6.3165      1.00000
     57      -6.2760      1.00000
     58      -6.2109      1.00000
     59      -6.0712      1.00000
     60      -6.0418      1.00000
     61      -6.0319      1.00000
     62      -5.9807      1.00000
     63      -5.9135      1.00000
     64      -5.7910      1.00000
     65      -5.6978      1.00000
     66      -5.5835      1.00000
     67      -5.3812      1.00000
     68      -5.3573      1.00000
     69      -5.3135      1.00000
     70      -5.2211      1.00000
     71      -5.1733      1.00000
     72      -5.1162      1.00000
     73      -5.0603      1.00000
     74      -5.0314      1.00000
     75      -4.9305      1.00000
     76      -4.9015      1.00000
     77      -4.7664      1.00000
     78      -4.6092      1.00000
     79      -4.5887      1.00000
     80      -4.5032      1.00000
     81      -4.4885      1.00000
     82      -4.4545      1.00000
     83      -4.4114      1.00000
     84      -4.3243      1.00000
     85      -4.2210      1.00000
     86      -4.2020      1.00000
     87      -4.1592      1.00000
     88      -4.0834      1.00000
     89      -4.0636      1.00000
     90      -4.0019      1.00000
     91      -3.8922      1.00000
     92      -3.8546      1.00000
     93      -3.7470      1.00000
     94      -3.7035      1.00000
     95      -3.6890      1.00000
     96      -3.5798      1.00000
     97      -3.5619      1.00000
     98      -3.5350      1.00000
     99      -3.4265      1.00000
    100      -3.3737      1.00000
    101      -3.0666      1.00000
    102      -2.9817      1.00000
    103      -2.9452      1.00000
    104      -2.3644      1.00000
    105      -2.2405      1.00000
    106      -2.0307      1.00000
    107      -1.7232      1.00000
    108      -1.4878      1.00000
    109      -1.4567      1.00000
    110      -1.3228      1.00000
    111      -1.2408      1.00000
    112      -1.0986      1.00000
    113      -1.0689      1.00000
    114      -0.7699      1.00000
    115      -0.6413      1.00000
    116      -0.4383      1.00000
    117      -0.3106      1.00000
    118      -0.0662      1.00000
    119       0.0500      1.00000
    120       0.5419      1.00000
    121       1.3035      0.00000
    122       1.3413      0.00000
    123       1.4964      0.00000
    124       1.7640      0.00000
    125       2.3819      0.00000
    126       2.4494      0.00000
    127       2.4800      0.00000
    128       2.5027      0.00000
    129       2.5386      0.00000
    130       2.5775      0.00000
    131       2.6657      0.00000
    132       2.6987      0.00000
    133       2.7689      0.00000
    134       2.8391      0.00000
    135       2.9493      0.00000
    136       3.1292      0.00000
    137       3.4520      0.00000
    138       3.4790      0.00000
    139       3.5412      0.00000
    140       3.6447      0.00000
    141       3.6937      0.00000
    142       3.7589      0.00000
    143       3.7870      0.00000
    144       3.9005      0.00000
    145       3.9371      0.00000
    146       4.1386      0.00000
    147       4.2876      0.00000
    148       4.4090      0.00000
    149       4.5999      0.00000
    150       4.6254      0.00000
    151       4.7203      0.00000
    152       4.7629      0.00000
    153       5.0131      0.00000
    154       5.2421      0.00000
    155       5.3485      0.00000
    156       5.4748      0.00000
    157       5.9365      0.00000
    158       6.0683      0.00000
    159       6.4882      0.00000
    160       6.8676      0.00000

 k-point     3 :       0.2500   -0.2500    0.2500
  band No.  band energies     occupation 
      1     -36.2372      1.00000
      2     -36.1878      1.00000
      3     -36.0950      1.00000
      4     -36.0883      1.00000
      5     -36.0466      1.00000
      6     -35.9716      1.00000
      7     -35.1214      1.00000
      8     -35.0760      1.00000
      9     -35.0599      1.00000
     10     -35.0228      1.00000
     11     -35.0009      1.00000
     12     -34.9621      1.00000
     13     -34.8469      1.00000
     14     -34.6300      1.00000
     15     -34.5748      1.00000
     16     -34.1376      1.00000
     17     -34.1290      1.00000
     18     -33.9683      1.00000
     19     -33.8528      1.00000
     20     -33.7373      1.00000
     21     -33.5988      1.00000
     22     -33.3831      1.00000
     23     -33.3801      1.00000
     24     -33.3399      1.00000
     25     -24.0619      1.00000
     26     -23.8711      1.00000
     27     -23.7479      1.00000
     28     -23.6211      1.00000
     29     -23.5839      1.00000
     30     -23.4479      1.00000
     31     -23.4388      1.00000
     32     -23.3529      1.00000
     33     -23.1352      1.00000
     34     -23.0208      1.00000
     35     -22.8277      1.00000
     36     -22.7414      1.00000
     37     -22.5527      1.00000
     38     -22.5497      1.00000
     39     -22.5126      1.00000
     40     -22.2235      1.00000
     41     -17.8386      1.00000
     42     -16.6610      1.00000
     43     -16.4322      1.00000
     44     -15.8091      1.00000
     45     -15.5737      1.00000
     46     -15.1176      1.00000
     47     -14.8585      1.00000
     48     -14.5911      1.00000
     49      -7.5508      1.00000
     50      -7.3888      1.00000
     51      -7.2707      1.00000
     52      -7.1677      1.00000
     53      -6.8670      1.00000
     54      -6.6359      1.00000
     55      -6.4632      1.00000
     56      -6.3165      1.00000
     57      -6.2760      1.00000
     58      -6.2109      1.00000
     59      -6.0712      1.00000
     60      -6.0418      1.00000
     61      -6.0319      1.00000
     62      -5.9807      1.00000
     63      -5.9135      1.00000
     64      -5.7910      1.00000
     65      -5.6978      1.00000
     66      -5.5835      1.00000
     67      -5.3812      1.00000
     68      -5.3573      1.00000
     69      -5.3135      1.00000
     70      -5.2211      1.00000
     71      -5.1733      1.00000
     72      -5.1162      1.00000
     73      -5.0603      1.00000
     74      -5.0314      1.00000
     75      -4.9306      1.00000
     76      -4.9015      1.00000
     77      -4.7664      1.00000
     78      -4.6092      1.00000
     79      -4.5887      1.00000
     80      -4.5032      1.00000
     81      -4.4885      1.00000
     82      -4.4545      1.00000
     83      -4.4114      1.00000
     84      -4.3243      1.00000
     85      -4.2210      1.00000
     86      -4.2020      1.00000
     87      -4.1592      1.00000
     88      -4.0834      1.00000
     89      -4.0635      1.00000
     90      -4.0019      1.00000
     91      -3.8922      1.00000
     92      -3.8546      1.00000
     93      -3.7470      1.00000
     94      -3.7034      1.00000
     95      -3.6890      1.00000
     96      -3.5798      1.00000
     97      -3.5619      1.00000
     98      -3.5350      1.00000
     99      -3.4266      1.00000
    100      -3.3735      1.00000
    101      -3.0667      1.00000
    102      -2.9817      1.00000
    103      -2.9452      1.00000
    104      -2.3645      1.00000
    105      -2.2405      1.00000
    106      -2.0307      1.00000
    107      -1.7232      1.00000
    108      -1.4878      1.00000
    109      -1.4566      1.00000
    110      -1.3228      1.00000
    111      -1.2409      1.00000
    112      -1.0987      1.00000
    113      -1.0689      1.00000
    114      -0.7699      1.00000
    115      -0.6413      1.00000
    116      -0.4383      1.00000
    117      -0.3107      1.00000
    118      -0.0662      1.00000
    119       0.0500      1.00000
    120       0.5419      1.00000
    121       1.3035      0.00000
    122       1.3413      0.00000
    123       1.4964      0.00000
    124       1.7640      0.00000
    125       2.3819      0.00000
    126       2.4494      0.00000
    127       2.4800      0.00000
    128       2.5027      0.00000
    129       2.5386      0.00000
    130       2.5775      0.00000
    131       2.6657      0.00000
    132       2.6987      0.00000
    133       2.7689      0.00000
    134       2.8391      0.00000
    135       2.9494      0.00000
    136       3.1292      0.00000
    137       3.4520      0.00000
    138       3.4791      0.00000
    139       3.5412      0.00000
    140       3.6447      0.00000
    141       3.6937      0.00000
    142       3.7589      0.00000
    143       3.7869      0.00000
    144       3.9004      0.00000
    145       3.9371      0.00000
    146       4.1386      0.00000
    147       4.2874      0.00000
    148       4.4091      0.00000
    149       4.5999      0.00000
    150       4.6255      0.00000
    151       4.7203      0.00000
    152       4.7629      0.00000
    153       5.0131      0.00000
    154       5.2421      0.00000
    155       5.3485      0.00000
    156       5.4747      0.00000
    157       5.9365      0.00000
    158       6.0683      0.00000
    159       6.4882      0.00000
    160       6.8676      0.00000

 k-point     4 :      -0.2500   -0.2500    0.2500
  band No.  band energies     occupation 
      1     -36.2372      1.00000
      2     -36.1878      1.00000
      3     -36.0950      1.00000
      4     -36.0883      1.00000
      5     -36.0466      1.00000
      6     -35.9716      1.00000
      7     -35.1214      1.00000
      8     -35.0760      1.00000
      9     -35.0599      1.00000
     10     -35.0228      1.00000
     11     -35.0009      1.00000
     12     -34.9621      1.00000
     13     -34.8469      1.00000
     14     -34.6300      1.00000
     15     -34.5748      1.00000
     16     -34.1376      1.00000
     17     -34.1290      1.00000
     18     -33.9683      1.00000
     19     -33.8528      1.00000
     20     -33.7373      1.00000
     21     -33.5988      1.00000
     22     -33.3831      1.00000
     23     -33.3801      1.00000
     24     -33.3399      1.00000
     25     -24.0619      1.00000
     26     -23.8711      1.00000
     27     -23.7479      1.00000
     28     -23.6211      1.00000
     29     -23.5839      1.00000
     30     -23.4479      1.00000
     31     -23.4388      1.00000
     32     -23.3529      1.00000
     33     -23.1352      1.00000
     34     -23.0208      1.00000
     35     -22.8277      1.00000
     36     -22.7414      1.00000
     37     -22.5527      1.00000
     38     -22.5497      1.00000
     39     -22.5126      1.00000
     40     -22.2235      1.00000
     41     -17.8386      1.00000
     42     -16.6610      1.00000
     43     -16.4322      1.00000
     44     -15.8091      1.00000
     45     -15.5737      1.00000
     46     -15.1176      1.00000
     47     -14.8585      1.00000
     48     -14.5911      1.00000
     49      -7.5508      1.00000
     50      -7.3888      1.00000
     51      -7.2707      1.00000
     52      -7.1677      1.00000
     53      -6.8670      1.00000
     54      -6.6359      1.00000
     55      -6.4632      1.00000
     56      -6.3165      1.00000
     57      -6.2760      1.00000
     58      -6.2109      1.00000
     59      -6.0712      1.00000
     60      -6.0418      1.00000
     61      -6.0319      1.00000
     62      -5.9807      1.00000
     63      -5.9135      1.00000
     64      -5.7910      1.00000
     65      -5.6978      1.00000
     66      -5.5835      1.00000
     67      -5.3811      1.00000
     68      -5.3573      1.00000
     69      -5.3135      1.00000
     70      -5.2211      1.00000
     71      -5.1733      1.00000
     72      -5.1162      1.00000
     73      -5.0604      1.00000
     74      -5.0314      1.00000
     75      -4.9306      1.00000
     76      -4.9015      1.00000
     77      -4.7664      1.00000
     78      -4.6092      1.00000
     79      -4.5887      1.00000
     80      -4.5032      1.00000
     81      -4.4886      1.00000
     82      -4.4545      1.00000
     83      -4.4114      1.00000
     84      -4.3243      1.00000
     85      -4.2210      1.00000
     86      -4.2020      1.00000
     87      -4.1592      1.00000
     88      -4.0835      1.00000
     89      -4.0636      1.00000
     90      -4.0019      1.00000
     91      -3.8922      1.00000
     92      -3.8545      1.00000
     93      -3.7470      1.00000
     94      -3.7034      1.00000
     95      -3.6890      1.00000
     96      -3.5798      1.00000
     97      -3.5618      1.00000
     98      -3.5350      1.00000
     99      -3.4266      1.00000
    100      -3.3735      1.00000
    101      -3.0667      1.00000
    102      -2.9817      1.00000
    103      -2.9452      1.00000
    104      -2.3645      1.00000
    105      -2.2405      1.00000
    106      -2.0307      1.00000
    107      -1.7232      1.00000
    108      -1.4878      1.00000
    109      -1.4566      1.00000
    110      -1.3228      1.00000
    111      -1.2409      1.00000
    112      -1.0987      1.00000
    113      -1.0689      1.00000
    114      -0.7699      1.00000
    115      -0.6413      1.00000
    116      -0.4383      1.00000
    117      -0.3107      1.00000
    118      -0.0662      1.00000
    119       0.0500      1.00000
    120       0.5419      1.00000
    121       1.3035      0.00000
    122       1.3413      0.00000
    123       1.4964      0.00000
    124       1.7640      0.00000
    125       2.3819      0.00000
    126       2.4494      0.00000
    127       2.4800      0.00000
    128       2.5027      0.00000
    129       2.5386      0.00000
    130       2.5775      0.00000
    131       2.6657      0.00000
    132       2.6987      0.00000
    133       2.7689      0.00000
    134       2.8391      0.00000
    135       2.9494      0.00000
    136       3.1292      0.00000
    137       3.4520      0.00000
    138       3.4790      0.00000
    139       3.5412      0.00000
    140       3.6447      0.00000
    141       3.6937      0.00000
    142       3.7589      0.00000
    143       3.7869      0.00000
    144       3.9004      0.00000
    145       3.9371      0.00000
    146       4.1386      0.00000
    147       4.2874      0.00000
    148       4.4091      0.00000
    149       4.5999      0.00000
    150       4.6255      0.00000
    151       4.7203      0.00000
    152       4.7629      0.00000
    153       5.0131      0.00000
    154       5.2421      0.00000
    155       5.3485      0.00000
    156       5.4748      0.00000
    157       5.9365      0.00000
    158       6.0683      0.00000
    159       6.4882      0.00000
    160       6.8676      0.00000

 spin component 2

 k-point     1 :       0.2500    0.2500    0.2500
  band No.  band energies     occupation 
      1     -36.2372      1.00000
      2     -36.1878      1.00000
      3     -36.0950      1.00000
      4     -36.0883      1.00000
      5     -36.0466      1.00000
      6     -35.9716      1.00000
      7     -35.1214      1.00000
      8     -35.0760      1.00000
      9     -35.0599      1.00000
     10     -35.0228      1.00000
     11     -35.0009      1.00000
     12     -34.9621      1.00000
     13     -34.8469      1.00000
     14     -34.6300      1.00000
     15     -34.5748      1.00000
     16     -34.1376      1.00000
     17     -34.1290      1.00000
     18     -33.9683      1.00000
     19     -33.8528      1.00000
     20     -33.7373      1.00000
     21     -33.5988      1.00000
     22     -33.3831      1.00000
     23     -33.3801      1.00000
     24     -33.3399      1.00000
     25     -24.0619      1.00000
     26     -23.8711      1.00000
     27     -23.7479      1.00000
     28     -23.6211      1.00000
     29     -23.5839      1.00000
     30     -23.4479      1.00000
     31     -23.4388      1.00000
     32     -23.3529      1.00000
     33     -23.1352      1.00000
     34     -23.0208      1.00000
     35     -22.8277      1.00000
     36     -22.7414      1.00000
     37     -22.5527      1.00000
     38     -22.5497      1.00000
     39     -22.5126      1.00000
     40     -22.2235      1.00000
     41     -17.8386      1.00000
     42     -16.6610      1.00000
     43     -16.4322      1.00000
     44     -15.8091      1.00000
     45     -15.5737      1.00000
     46     -15.1176      1.00000
     47     -14.8585      1.00000
     48     -14.5911      1.00000
     49      -7.5508      1.00000
     50      -7.3888      1.00000
     51      -7.2707      1.00000
     52      -7.1677      1.00000
     53      -6.8670      1.00000
     54      -6.6359      1.00000
     55      -6.4632      1.00000
     56      -6.3165      1.00000
     57      -6.2760      1.00000
     58      -6.2109      1.00000
     59      -6.0712      1.00000
     60      -6.0418      1.00000
     61      -6.0319      1.00000
     62      -5.9807      1.00000
     63      -5.9135      1.00000
     64      -5.7909      1.00000
     65      -5.6978      1.00000
     66      -5.5835      1.00000
     67      -5.3811      1.00000
     68      -5.3573      1.00000
     69      -5.3135      1.00000
     70      -5.2211      1.00000
     71      -5.1733      1.00000
     72      -5.1162      1.00000
     73      -5.0604      1.00000
     74      -5.0314      1.00000
     75      -4.9305      1.00000
     76      -4.9015      1.00000
     77      -4.7664      1.00000
     78      -4.6092      1.00000
     79      -4.5887      1.00000
     80      -4.5032      1.00000
     81      -4.4886      1.00000
     82      -4.4545      1.00000
     83      -4.4114      1.00000
     84      -4.3243      1.00000
     85      -4.2210      1.00000
     86      -4.2020      1.00000
     87      -4.1592      1.00000
     88      -4.0835      1.00000
     89      -4.0636      1.00000
     90      -4.0019      1.00000
     91      -3.8922      1.00000
     92      -3.8545      1.00000
     93      -3.7470      1.00000
     94      -3.7034      1.00000
     95      -3.6890      1.00000
     96      -3.5798      1.00000
     97      -3.5619      1.00000
     98      -3.5350      1.00000
     99      -3.4265      1.00000
    100      -3.3737      1.00000
    101      -3.0666      1.00000
    102      -2.9817      1.00000
    103      -2.9452      1.00000
    104      -2.3644      1.00000
    105      -2.2405      1.00000
    106      -2.0307      1.00000
    107      -1.7232      1.00000
    108      -1.4878      1.00000
    109      -1.4567      1.00000
    110      -1.3228      1.00000
    111      -1.2409      1.00000
    112      -1.0986      1.00000
    113      -1.0689      1.00000
    114      -0.7699      1.00000
    115      -0.6413      1.00000
    116      -0.4383      1.00000
    117      -0.3106      1.00000
    118      -0.0662      1.00000
    119       0.0500      1.00000
    120       0.5419      1.00000
    121       1.3035      0.00000
    122       1.3413      0.00000
    123       1.4964      0.00000
    124       1.7640      0.00000
    125       2.3819      0.00000
    126       2.4494      0.00000
    127       2.4800      0.00000
    128       2.5027      0.00000
    129       2.5386      0.00000
    130       2.5775      0.00000
    131       2.6657      0.00000
    132       2.6987      0.00000
    133       2.7689      0.00000
    134       2.8391      0.00000
    135       2.9493      0.00000
    136       3.1291      0.00000
    137       3.4520      0.00000
    138       3.4790      0.00000
    139       3.5412      0.00000
    140       3.6447      0.00000
    141       3.6937      0.00000
    142       3.7589      0.00000
    143       3.7869      0.00000
    144       3.9005      0.00000
    145       3.9371      0.00000
    146       4.1386      0.00000
    147       4.2876      0.00000
    148       4.4090      0.00000
    149       4.5999      0.00000
    150       4.6254      0.00000
    151       4.7203      0.00000
    152       4.7629      0.00000
    153       5.0131      0.00000
    154       5.2421      0.00000
    155       5.3485      0.00000
    156       5.4748      0.00000
    157       5.9365      0.00000
    158       6.0683      0.00000
    159       6.4882      0.00000
    160       6.8676      0.00000

 k-point     2 :      -0.2500    0.2500    0.2500
  band No.  band energies     occupation 
      1     -36.2372      1.00000
      2     -36.1878      1.00000
      3     -36.0950      1.00000
      4     -36.0883      1.00000
      5     -36.0466      1.00000
      6     -35.9716      1.00000
      7     -35.1214      1.00000
      8     -35.0760      1.00000
      9     -35.0599      1.00000
     10     -35.0228      1.00000
     11     -35.0009      1.00000
     12     -34.9621      1.00000
     13     -34.8469      1.00000
     14     -34.6300      1.00000
     15     -34.5748      1.00000
     16     -34.1376      1.00000
     17     -34.1290      1.00000
     18     -33.9683      1.00000
     19     -33.8528      1.00000
     20     -33.7373      1.00000
     21     -33.5988      1.00000
     22     -33.3831      1.00000
     23     -33.3801      1.00000
     24     -33.3399      1.00000
     25     -24.0619      1.00000
     26     -23.8711      1.00000
     27     -23.7479      1.00000
     28     -23.6211      1.00000
     29     -23.5839      1.00000
     30     -23.4479      1.00000
     31     -23.4388      1.00000
     32     -23.3529      1.00000
     33     -23.1352      1.00000
     34     -23.0208      1.00000
     35     -22.8277      1.00000
     36     -22.7414      1.00000
     37     -22.5527      1.00000
     38     -22.5497      1.00000
     39     -22.5126      1.00000
     40     -22.2235      1.00000
     41     -17.8386      1.00000
     42     -16.6610      1.00000
     43     -16.4322      1.00000
     44     -15.8091      1.00000
     45     -15.5737      1.00000
     46     -15.1176      1.00000
     47     -14.8585      1.00000
     48     -14.5911      1.00000
     49      -7.5508      1.00000
     50      -7.3888      1.00000
     51      -7.2707      1.00000
     52      -7.1677      1.00000
     53      -6.8670      1.00000
     54      -6.6359      1.00000
     55      -6.4632      1.00000
     56      -6.3165      1.00000
     57      -6.2760      1.00000
     58      -6.2109      1.00000
     59      -6.0712      1.00000
     60      -6.0418      1.00000
     61      -6.0319      1.00000
     62      -5.9807      1.00000
     63      -5.9135      1.00000
     64      -5.7910      1.00000
     65      -5.6978      1.00000
     66      -5.5835      1.00000
     67      -5.3812      1.00000
     68      -5.3573      1.00000
     69      -5.3135      1.00000
     70      -5.2211      1.00000
     71      -5.1733      1.00000
     72      -5.1162      1.00000
     73      -5.0603      1.00000
     74      -5.0314      1.00000
     75      -4.9305      1.00000
     76      -4.9015      1.00000
     77      -4.7664      1.00000
     78      -4.6092      1.00000
     79      -4.5887      1.00000
     80      -4.5032      1.00000
     81      -4.4885      1.00000
     82      -4.4545      1.00000
     83      -4.4114      1.00000
     84      -4.3243      1.00000
     85      -4.2210      1.00000
     86      -4.2020      1.00000
     87      -4.1592      1.00000
     88      -4.0834      1.00000
     89      -4.0636      1.00000
     90      -4.0019      1.00000
     91      -3.8922      1.00000
     92      -3.8546      1.00000
     93      -3.7470      1.00000
     94      -3.7035      1.00000
     95      -3.6890      1.00000
     96      -3.5798      1.00000
     97      -3.5619      1.00000
     98      -3.5350      1.00000
     99      -3.4265      1.00000
    100      -3.3737      1.00000
    101      -3.0666      1.00000
    102      -2.9817      1.00000
    103      -2.9452      1.00000
    104      -2.3644      1.00000
    105      -2.2405      1.00000
    106      -2.0307      1.00000
    107      -1.7232      1.00000
    108      -1.4878      1.00000
    109      -1.4567      1.00000
    110      -1.3228      1.00000
    111      -1.2408      1.00000
    112      -1.0986      1.00000
    113      -1.0689      1.00000
    114      -0.7699      1.00000
    115      -0.6413      1.00000
    116      -0.4383      1.00000
    117      -0.3106      1.00000
    118      -0.0662      1.00000
    119       0.0500      1.00000
    120       0.5419      1.00000
    121       1.3035      0.00000
    122       1.3413      0.00000
    123       1.4964      0.00000
    124       1.7640      0.00000
    125       2.3819      0.00000
    126       2.4494      0.00000
    127       2.4800      0.00000
    128       2.5027      0.00000
    129       2.5386      0.00000
    130       2.5775      0.00000
    131       2.6657      0.00000
    132       2.6987      0.00000
    133       2.7689      0.00000
    134       2.8391      0.00000
    135       2.9493      0.00000
    136       3.1292      0.00000
    137       3.4520      0.00000
    138       3.4790      0.00000
    139       3.5412      0.00000
    140       3.6447      0.00000
    141       3.6937      0.00000
    142       3.7589      0.00000
    143       3.7870      0.00000
    144       3.9005      0.00000
    145       3.9371      0.00000
    146       4.1386      0.00000
    147       4.2876      0.00000
    148       4.4090      0.00000
    149       4.5999      0.00000
    150       4.6254      0.00000
    151       4.7203      0.00000
    152       4.7629      0.00000
    153       5.0131      0.00000
    154       5.2421      0.00000
    155       5.3485      0.00000
    156       5.4748      0.00000
    157       5.9365      0.00000
    158       6.0683      0.00000
    159       6.4882      0.00000
    160       6.8676      0.00000

 k-point     3 :       0.2500   -0.2500    0.2500
  band No.  band energies     occupation 
      1     -36.2372      1.00000
      2     -36.1878      1.00000
      3     -36.0950      1.00000
      4     -36.0883      1.00000
      5     -36.0466      1.00000
      6     -35.9716      1.00000
      7     -35.1214      1.00000
      8     -35.0760      1.00000
      9     -35.0599      1.00000
     10     -35.0228      1.00000
     11     -35.0009      1.00000
     12     -34.9621      1.00000
     13     -34.8469      1.00000
     14     -34.6300      1.00000
     15     -34.5748      1.00000
     16     -34.1376      1.00000
     17     -34.1290      1.00000
     18     -33.9683      1.00000
     19     -33.8528      1.00000
     20     -33.7373      1.00000
     21     -33.5988      1.00000
     22     -33.3831      1.00000
     23     -33.3801      1.00000
     24     -33.3399      1.00000
     25     -24.0619      1.00000
     26     -23.8711      1.00000
     27     -23.7479      1.00000
     28     -23.6211      1.00000
     29     -23.5839      1.00000
     30     -23.4479      1.00000
     31     -23.4388      1.00000
     32     -23.3529      1.00000
     33     -23.1352      1.00000
     34     -23.0208      1.00000
     35     -22.8277      1.00000
     36     -22.7414      1.00000
     37     -22.5527      1.00000
     38     -22.5497      1.00000
     39     -22.5126      1.00000
     40     -22.2235      1.00000
     41     -17.8386      1.00000
     42     -16.6610      1.00000
     43     -16.4322      1.00000
     44     -15.8091      1.00000
     45     -15.5737      1.00000
     46     -15.1176      1.00000
     47     -14.8585      1.00000
     48     -14.5911      1.00000
     49      -7.5508      1.00000
     50      -7.3888      1.00000
     51      -7.2707      1.00000
     52      -7.1677      1.00000
     53      -6.8670      1.00000
     54      -6.6359      1.00000
     55      -6.4632      1.00000
     56      -6.3165      1.00000
     57      -6.2760      1.00000
     58      -6.2109      1.00000
     59      -6.0712      1.00000
     60      -6.0418      1.00000
     61      -6.0319      1.00000
     62      -5.9807      1.00000
     63      -5.9135      1.00000
     64      -5.7910      1.00000
     65      -5.6978      1.00000
     66      -5.5835      1.00000
     67      -5.3812      1.00000
     68      -5.3573      1.00000
     69      -5.3135      1.00000
     70      -5.2211      1.00000
     71      -5.1733      1.00000
     72      -5.1162      1.00000
     73      -5.0603      1.00000
     74      -5.0314      1.00000
     75      -4.9306      1.00000
     76      -4.9015      1.00000
     77      -4.7664      1.00000
     78      -4.6092      1.00000
     79      -4.5887      1.00000
     80      -4.5032      1.00000
     81      -4.4885      1.00000
     82      -4.4545      1.00000
     83      -4.4114      1.00000
     84      -4.3243      1.00000
     85      -4.2210      1.00000
     86      -4.2020      1.00000
     87      -4.1592      1.00000
     88      -4.0834      1.00000
     89      -4.0635      1.00000
     90      -4.0019      1.00000
     91      -3.8922      1.00000
     92      -3.8546      1.00000
     93      -3.7470      1.00000
     94      -3.7034      1.00000
     95      -3.6890      1.00000
     96      -3.5798      1.00000
     97      -3.5619      1.00000
     98      -3.5350      1.00000
     99      -3.4266      1.00000
    100      -3.3735      1.00000
    101      -3.0667      1.00000
    102      -2.9817      1.00000
    103      -2.9452      1.00000
    104      -2.3645      1.00000
    105      -2.2405      1.00000
    106      -2.0307      1.00000
    107      -1.7232      1.00000
    108      -1.4878      1.00000
    109      -1.4566      1.00000
    110      -1.3228      1.00000
    111      -1.2409      1.00000
    112      -1.0987      1.00000
    113      -1.0689      1.00000
    114      -0.7699      1.00000
    115      -0.6413      1.00000
    116      -0.4383      1.00000
    117      -0.3107      1.00000
    118      -0.0662      1.00000
    119       0.0500      1.00000
    120       0.5419      1.00000
    121       1.3035      0.00000
    122       1.3413      0.00000
    123       1.4964      0.00000
    124       1.7640      0.00000
    125       2.3819      0.00000
    126       2.4494      0.00000
    127       2.4800      0.00000
    128       2.5027      0.00000
    129       2.5386      0.00000
    130       2.5775      0.00000
    131       2.6657      0.00000
    132       2.6987      0.00000
    133       2.7689      0.00000
    134       2.8391      0.00000
    135       2.9494      0.00000
    136       3.1292      0.00000
    137       3.4520      0.00000
    138       3.4791      0.00000
    139       3.5412      0.00000
    140       3.6447      0.00000
    141       3.6937      0.00000
    142       3.7589      0.00000
    143       3.7869      0.00000
    144       3.9004      0.00000
    145       3.9371      0.00000
    146       4.1386      0.00000
    147       4.2874      0.00000
    148       4.4091      0.00000
    149       4.5999      0.00000
    150       4.6255      0.00000
    151       4.7203      0.00000
    152       4.7629      0.00000
    153       5.0131      0.00000
    154       5.2421      0.00000
    155       5.3485      0.00000
    156       5.4747      0.00000
    157       5.9365      0.00000
    158       6.0683      0.00000
    159       6.4882      0.00000
    160       6.8676      0.00000

 k-point     4 :      -0.2500   -0.2500    0.2500
  band No.  band energies     occupation 
      1     -36.2372      1.00000
      2     -36.1878      1.00000
      3     -36.0950      1.00000
[...]
  0.000   0.000  -0.000   0.000  -0.000   0.000   0.000  -0.000  -0.000   0.000   0.000  -0.000   0.000   0.000  -0.000  -0.000
 -0.000   0.000  -0.000   0.000   0.000  -0.000  -0.000  -0.000   0.000   0.000   0.000   0.000   0.000  -0.000  -0.000   0.000
 -0.000   0.000   0.000   0.000  -0.000   0.000   0.000   0.000  -0.000  -0.000   0.000  -0.000  -0.000   0.000  -0.000  -0.000
  0.000   0.000  -0.000   0.000  -0.000   0.000  -0.000   0.000   0.000   0.000   0.000  -0.000  -0.000  -0.000   0.000  -0.000
 -0.000  -0.000   0.000   0.000   0.000   0.000  -0.000   0.000   0.000   0.000  -0.000   0.000  -0.000  -0.000   0.000   0.000
 -0.000  -0.000  -0.000  -0.000   0.000  -0.000  -0.000  -0.000  -0.000  -0.000  -0.000  -0.000   0.000   0.000   0.000   0.000
  0.000   0.000   0.000  -0.000  -0.000  -0.000   0.000   0.000  -0.000  -0.000   0.000  -0.000  -0.000   0.000   0.000  -0.000
 -0.000   0.000  -0.000  -0.000   0.000  -0.000  -0.000   0.000   0.000   0.000  -0.000   0.000  -0.000  -0.000  -0.000   0.000
  0.000   0.000  -0.000  -0.000   0.000   0.000   0.000   0.000  -0.000   0.000  -0.000  -0.000  -0.000   0.000   0.000   0.000


------------------------ aborting loop because EDIFF is reached ----------------------------------------


 


 total charge     
 
# of ion       s       p       d       tot
------------------------------------------
    1        0.323   6.491   1.759   8.573
    2        0.326   6.498   1.745   8.569
    3        0.302   6.462   1.725   8.489
    4        0.304   6.462   1.712   8.478
    5        0.315   6.488   1.857   8.660
    6        0.297   6.451   1.763   8.512
    7        0.296   6.467   1.777   8.540
    8        0.293   6.419   1.652   8.365
    9        1.564   3.408   0.000   4.971
   10        1.564   3.408   0.000   4.971
   11        1.574   3.485   0.000   5.059
   12        1.568   3.440   0.000   5.008
   13        1.567   3.437   0.000   5.005
   14        1.578   3.474   0.000   5.052
   15        1.569   3.435   0.000   5.004
   16        1.569   3.442   0.000   5.011
   17        1.729   4.380   0.000   6.109
   18        1.731   4.374   0.000   6.106
   19        1.729   4.382   0.000   6.111
   20        1.730   4.376   0.000   6.107
   21        1.729   4.380   0.000   6.109
   22        1.731   4.374   0.000   6.106
   23        1.729   4.382   0.000   6.111
   24        1.730   4.376   0.000   6.107
   25        1.731   4.389   0.000   6.121
   26        1.731   4.389   0.000   6.120
   27        1.731   4.389   0.000   6.121
   28        1.731   4.389   0.000   6.120
   29        1.731   4.393   0.000   6.123
   30        1.731   4.393   0.000   6.123
   31        1.731   4.389   0.000   6.120
   32        1.732   4.394   0.000   6.126
--------------------------------------------------
tot         42.699 149.415  13.991 206.105
 


 magnetization (x)
 
# of ion       s       p       d       tot
------------------------------------------
    1        0.000  -0.000   0.000  -0.000
    2        0.000  -0.000  -0.000  -0.000
    3        0.000   0.000  -0.000   0.000
    4        0.000   0.000   0.000   0.000
    5        0.000  -0.000  -0.000  -0.000
    6       -0.000  -0.000  -0.000  -0.000
    7        0.000  -0.000  -0.000  -0.000
    8       -0.000   0.000   0.000   0.000
    9        0.000  -0.000   0.000  -0.000
   10       -0.000   0.000   0.000   0.000
   11        0.000   0.000   0.000   0.000
   12       -0.000  -0.000   0.000  -0.000
   13        0.000  -0.000   0.000  -0.000
   14       -0.000   0.000   0.000   0.000
   15       -0.000   0.000   0.000   0.000
   16        0.000  -0.000   0.000   0.000
   17        0.000  -0.000   0.000  -0.000
   18        0.000   0.000   0.000   0.000
   19        0.000  -0.000   0.000  -0.000
   20        0.000  -0.000   0.000   0.000
   21       -0.000  -0.000   0.000  -0.000
   22        0.000  -0.000   0.000   0.000
   23       -0.000  -0.000   0.000  -0.000
   24        0.000   0.000   0.000   0.000
   25        0.000  -0.000   0.000  -0.000
   26        0.000   0.000   0.000   0.000
   27       -0.000  -0.000   0.000  -0.000
   28        0.000  -0.000   0.000   0.000
   29       -0.000   0.000   0.000  -0.000
   30       -0.000  -0.000   0.000  -0.000
   31        0.000   0.000   0.000   0.000
   32       -0.000   0.000   0.000   0.000
--------------------------------------------------
tot          0.000  -0.000  -0.000  -0.000
 
    CHARGE:  cpu time    0.4229: real time    0.4208
    FORLOC:  cpu time    0.0150: real time    0.0146
    FORNL :  cpu time    2.0737: real time    2.0682
    STRESS:  cpu time    6.4260: real time    6.3955
    FORCOR:  cpu time    0.1290: real time    0.1291
    FORHAR:  cpu time    0.0210: real time    0.0212
    MIXING:  cpu time    0.0020: real time    0.0017
    OFIELD:  cpu time    0.0000: real time    0.0000

  FORCE on cell =-STRESS in cart. coord.  units (eV):
  Direction    XX          YY          ZZ          XY          YZ          ZX
  --------------------------------------------------------------------------------------
  Alpha Z   755.02455   755.02455   755.02455
  Ewald   -4378.81585 -4229.81123 -4120.97620     0.07428    -0.03850     0.00216
  Hartree  2679.33758  2777.53434  2832.52177     0.03911    -0.01766     0.00083
  E(xc)   -1231.59274 -1231.74384 -1232.27113     0.00002     0.00002     0.00000
  Local   -1935.91330 -2212.33431 -2435.67058    -0.11240     0.05688    -0.00290
  n-local  -974.11144  -968.29808  -958.67832     0.00053    -0.00056     0.00010
  augment   743.10984   753.21764   774.00456     0.00007    -0.00073    -0.00003
  Kinetic  4343.19460  4356.43989  4386.07923    -0.00263     0.00160    -0.00017
  Fock        0.00000     0.00000     0.00000     0.00000     0.00000     0.00000
  -------------------------------------------------------------------------------------
  Total       0.23324     0.02896     0.03388    -0.00102     0.00105     0.00000
  in kB       0.80574     0.10005     0.11704    -0.00351     0.00362     0.00001
  external pressure =        0.34 kB  Pullay stress =        0.00 kB


 VOLUME and BASIS-vectors are now :
 -----------------------------------------------------------------------------
  energy-cutoff  :      700.00
  volume of cell :      463.78
      direct lattice vectors                 reciprocal lattice vectors
     7.915989884  0.000062145  0.000006743     0.126326589 -0.000001022 -0.000000106
     0.000062803  7.765138469 -0.000022993    -0.000001011  0.128780704  0.000000378
     0.000006318 -0.000022157  7.544988750    -0.000000113  0.000000392  0.132538302

  length of vectors
     7.915989884  7.765138469  7.544988750     0.126326589  0.128780704  0.132538302


 FORCES acting on ions
    electron-ion (+dipol)            ewald-force                    non-local-force                 convergence-correction
 -----------------------------------------------------------------------------------------------
   0.346E-02 0.137E-01 0.185E+02   -.341E-02 -.135E-01 -.189E+02   -.474E-04 -.146E-03 0.382E+00   -.302E-06 0.502E-04 0.903E-03
   -.831E-02 0.257E-02 -.219E+02   0.821E-02 -.286E-02 0.225E+02   0.814E-04 0.114E-03 -.656E+00   -.187E-06 0.115E-03 -.906E-03
   0.990E-03 0.482E-02 0.109E+02   -.951E-03 -.467E-02 -.109E+02   -.233E-04 -.151E-03 -.205E-01   -.145E-06 -.526E-04 0.272E-04
   -.318E-02 -.310E-01 -.126E+02   0.320E-02 0.307E-01 0.126E+02   0.669E-05 0.338E-03 0.277E-01   0.103E-06 -.119E-03 0.975E-04
   0.709E-03 0.205E-01 -.855E+01   -.719E-03 -.202E-01 0.807E+01   0.114E-04 -.501E-03 0.484E+00   -.148E-05 0.153E-03 0.216E-02
   0.159E-04 -.781E-01 0.108E+02   -.233E-04 0.750E-01 -.119E+02   -.545E-06 -.189E-02 0.110E+01   0.866E-06 0.160E-02 -.189E-02
   0.970E-03 -.138E-01 -.838E+01   -.952E-03 0.138E-01 0.827E+01   -.130E-04 0.109E-03 0.117E+00   -.551E-07 -.162E-03 0.204E-03
   0.555E-02 -.189E+00 0.143E+02   -.549E-02 0.183E+00 -.142E+02   -.529E-04 0.512E-02 -.128E+00   -.407E-06 -.142E-02 -.116E-03
   -.183E-01 -.494E+02 0.226E+01   0.193E-01 0.518E+02 -.210E+01   -.107E-02 -.243E+01 -.153E+00   -.178E-05 -.133E-03 -.320E-03
   0.153E-01 0.500E+02 0.223E+01   -.159E-01 -.525E+02 -.208E+01   0.491E-03 0.251E+01 -.155E+00   0.668E-06 0.732E-03 -.301E-03
   0.506E-02 0.661E-02 0.148E+02   -.589E-02 -.674E-02 -.162E+02   0.939E-03 0.322E-04 0.146E+01   -.234E-05 0.468E-04 -.306E-03
   -.192E-02 -.541E-03 -.707E+01   0.220E-02 -.117E-03 0.734E+01   -.347E-03 0.833E-03 -.268E+00   -.156E-05 -.442E-04 0.150E-03
   -.792E-03 -.699E-02 0.994E+01   0.661E-03 0.713E-02 -.105E+02   0.156E-03 0.196E-04 0.552E+00   0.766E-06 -.489E-04 -.535E-03
   0.626E-02 -.358E-02 -.837E+02   -.701E-02 0.571E-02 0.914E+02   0.788E-03 -.236E-02 -.771E+01   -.354E-06 0.298E-03 0.236E-02
   0.119E-02 -.638E-01 -.609E+02   -.129E-02 0.677E-01 0.643E+02   0.111E-03 -.336E-02 -.340E+01   0.283E-06 -.292E-03 0.962E-03
   0.148E-02 -.612E-01 0.449E+02   -.145E-02 0.652E-01 -.462E+02   -.479E-04 -.351E-02 0.136E+01   -.191E-06 -.304E-03 -.889E-03
   -.391E+02 -.269E-03 0.761E+00   0.436E+02 0.100E-02 -.588E+00   -.452E+01 -.889E-03 -.166E+00   -.882E-03 0.610E-04 0.471E-03
   -.891E+02 -.498E-01 0.365E+01   0.983E+02 0.569E-01 -.502E+01   -.920E+01 -.721E-02 0.137E+01   0.291E-03 0.256E-03 -.491E-03
   -.314E+02 -.138E-01 0.105E+01   0.352E+02 0.154E-01 -.118E+01   -.375E+01 -.156E-02 0.127E+00   -.409E-03 -.576E-04 0.553E-05
   -.661E+02 -.345E-01 -.667E-02   0.722E+02 0.396E-01 -.110E+00   -.611E+01 -.497E-02 0.115E+00   -.255E-04 -.271E-03 -.101E-03
   0.391E+02 -.233E-02 0.751E+00   -.436E+02 0.461E-02 -.578E+00   0.452E+01 -.254E-02 -.166E+00   0.884E-03 0.552E-04 0.471E-03
   0.891E+02 0.293E-01 0.365E+01   -.983E+02 -.291E-01 -.502E+01   0.920E+01 -.379E-03 0.137E+01   -.290E-03 0.249E-03 -.495E-03
   0.314E+02 -.185E-01 0.104E+01   -.352E+02 0.200E-01 -.117E+01   0.375E+01 -.149E-02 0.127E+00   0.410E-03 -.582E-04 0.402E-05
   0.661E+02 -.943E-01 -.539E-02   -.722E+02 0.104E+00 -.111E+00   0.610E+01 -.896E-02 0.114E+00   0.253E-04 -.270E-03 -.103E-03
   -.327E-02 -.502E+02 -.626E+01   0.328E-02 0.554E+02 0.887E+01   0.672E-05 -.517E+01 -.261E+01   0.831E-06 0.384E-04 0.241E-03
   0.460E-01 -.489E+02 0.253E+01   -.533E-01 0.537E+02 -.441E+01   0.745E-02 -.475E+01 0.187E+01   -.116E-06 0.222E-04 -.271E-03
   0.251E-02 0.502E+02 -.626E+01   -.209E-02 -.553E+02 0.888E+01   -.461E-03 0.517E+01 -.261E+01   -.897E-06 -.287E-04 0.245E-03
   -.502E-01 0.489E+02 0.254E+01   0.572E-01 -.537E+02 -.442E+01   -.716E-02 0.475E+01 0.188E+01   0.481E-06 -.799E-05 -.275E-03
   0.828E-03 -.439E+02 0.122E+02   -.310E-03 0.484E+02 -.159E+02   -.563E-03 -.443E+01 0.366E+01   -.951E-06 0.759E-03 0.904E-04
   -.319E-02 0.439E+02 0.122E+02   0.318E-02 -.483E+02 -.159E+02   0.430E-04 0.442E+01 0.366E+01   0.551E-06 -.726E-03 0.100E-03
   -.723E-03 0.261E-02 -.410E+01   0.913E-03 -.239E-02 0.403E+01   -.197E-03 -.295E-03 0.666E-01   0.742E-06 0.508E-04 0.314E-03
   0.325E-02 -.316E-01 0.473E+02   -.354E-02 0.394E-01 -.489E+02   0.295E-03 -.796E-02 0.163E+01   -.799E-06 0.314E-03 -.180E-02
 -----------------------------------------------------------------------------------------------
   0.161E-03 -.251E-01 -.342E+01   -.406E-13 0.180E-15 -.568E-13   -.186E-03 0.242E-01 0.342E+01   -.272E-05 0.803E-03 0.169E-04
 
 
 POSITION                                       TOTAL-FORCE (eV/Angst)
 -----------------------------------------------------------------------------------
      7.91598      0.00010      7.44708         0.000006      0.000099     -0.001221
      0.00001      0.00004      3.84169        -0.000018     -0.000058     -0.000226
      7.91602      3.88269      0.00240         0.000016     -0.000046     -0.008687
      0.00005      3.88261      3.76897         0.000026     -0.000140     -0.008896
      3.95797      0.00009      0.12847         0.000000     -0.000024      0.005476
      3.95808      7.76466      3.75621        -0.000006     -0.003391      0.001274
      3.95802      3.88268      0.00360         0.000006     -0.000093      0.005647
      3.95805      3.88177      3.78788         0.000011     -0.002650      0.006301
      3.95812      1.88068      3.78696        -0.000038      0.002770      0.003244
      3.95801      5.88456      3.78704        -0.000089      0.002020      0.003070
      7.91596      0.00009      5.66572         0.000105     -0.000046      0.003861
      0.00005      3.88258      1.87936        -0.000067      0.000136     -0.002022
      7.91603      3.88267      5.66969         0.000027      0.000116     -0.001069
      3.95802      7.76512      1.83881         0.000036      0.000072      0.000388
      3.95803      3.88257      1.82914         0.000011      0.000211      0.001077
      3.95804      3.88252      5.69877        -0.000013      0.000170      0.000096
      1.93458      0.00010      0.00915        -0.000777     -0.000092      0.007321
      1.89008      0.00015      3.75203         0.000191      0.000150     -0.002326
      1.94287      3.88270      7.54254        -0.000338     -0.000051     -0.002785
      1.92169      3.88244      3.77198         0.000501     -0.000117     -0.001707
      5.98137      0.00018      0.00919         0.000746     -0.000199      0.007381
      6.02600      7.76502      3.75202        -0.000258      0.000053     -0.002487
      5.97319      3.88273      7.54255         0.000377     -0.000026     -0.002776
      5.99439      3.88269      3.77200        -0.000452      0.000126     -0.001783
      7.91600      1.89372      0.04552         0.000021     -0.000404      0.002547
      7.91578      1.89889      3.73588         0.000161     -0.000039     -0.008255
      7.91603      5.87165      0.04551        -0.000044      0.000583      0.002662
      0.00030      5.86638      3.73582        -0.000131     -0.000041     -0.008220
      3.95802      1.89897      7.48427        -0.000045     -0.001434     -0.001055
      3.95804      5.86626      7.48419         0.000041      0.002164     -0.001196
      0.00000      0.00006      1.87303        -0.000007     -0.000020     -0.000307
      3.95798      0.00013      5.72719         0.000001      0.000201      0.004671
 -----------------------------------------------------------------------------------
    total drift:                               -0.000028     -0.000142     -0.002406


--------------------------------------------------------------------------------------------------------



  FREE ENERGIE OF THE ION-ELECTRON SYSTEM (eV)
  ---------------------------------------------------
  free  energy   TOTEN  =      -210.39277491 eV

  energy  without entropy=     -210.39277491  energy(sigma->0) =     -210.39277491
 


--------------------------------------------------------------------------------------------------------


    POTLOK:  cpu time    0.9749: real time    0.9735


--------------------------------------------------------------------------------------------------------


 stress matrix after NEB project (eV)
      0.23324     -0.00102      0.00000
     -0.00102      0.02896      0.00105
      0.00000      0.00105      0.03388
  FORCES: max atom, RMS     0.008897    0.004526
  FORCE total and by dimension    0.025605    0.008896
  Stress total and by dimension    0.237468    0.233238
 Quasi-Newton relaxation of ions (Broydens 2nd method)
  g(Force)  = 0.316E-04   g(Stress)= 0.850E-04

 Reset! Starting new Quasi-Newton update for ions 


--------------------------------------------------------------------------------------------------------


  
 reached required accuracy - stopping structural energy minimisation
 writing wavefunctions
     LOOP+:  cpu time   45.6601: real time   46.6522
    4ORBIT:  cpu time    0.0000: real time    0.0000
 


 total charge     
 
# of ion       s       p       d       tot
------------------------------------------
    1        0.323   6.491   1.759   8.573
    2        0.326   6.498   1.745   8.569
    3        0.302   6.462   1.725   8.489
    4        0.304   6.462   1.712   8.478
    5        0.315   6.488   1.857   8.660
    6        0.297   6.451   1.763   8.512
    7        0.296   6.467   1.777   8.540
    8        0.293   6.419   1.652   8.365
    9        1.564   3.408   0.000   4.971
   10        1.564   3.408   0.000   4.971
   11        1.574   3.485   0.000   5.059
   12        1.568   3.440   0.000   5.008
   13        1.567   3.437   0.000   5.005
   14        1.578   3.474   0.000   5.052
   15        1.569   3.435   0.000   5.004
   16        1.569   3.442   0.000   5.011
   17        1.729   4.380   0.000   6.109
   18        1.731   4.374   0.000   6.106
   19        1.729   4.382   0.000   6.111
   20        1.730   4.376   0.000   6.107
   21        1.729   4.380   0.000   6.109
   22        1.731   4.374   0.000   6.106
   23        1.729   4.382   0.000   6.111
   24        1.730   4.376   0.000   6.107
   25        1.731   4.389   0.000   6.121
   26        1.731   4.389   0.000   6.120
   27        1.731   4.389   0.000   6.121
   28        1.731   4.389   0.000   6.120
   29        1.731   4.393   0.000   6.123
   30        1.731   4.393   0.000   6.123
   31        1.731   4.389   0.000   6.120
   32        1.732   4.394   0.000   6.126
--------------------------------------------------
tot         42.699 149.415  13.991 206.105
 


 magnetization (x)
 
# of ion       s       p       d       tot
------------------------------------------
    1        0.000  -0.000   0.000  -0.000
    2        0.000  -0.000  -0.000  -0.000
    3        0.000   0.000  -0.000   0.000
    4        0.000   0.000   0.000   0.000
    5        0.000  -0.000  -0.000  -0.000
    6       -0.000  -0.000  -0.000  -0.000
    7        0.000  -0.000  -0.000  -0.000
    8       -0.000   0.000   0.000   0.000
    9        0.000  -0.000   0.000  -0.000
   10       -0.000   0.000   0.000   0.000
   11        0.000   0.000   0.000   0.000
   12       -0.000  -0.000   0.000  -0.000
   13        0.000  -0.000   0.000  -0.000
   14       -0.000   0.000   0.000   0.000
   15       -0.000   0.000   0.000   0.000
   16        0.000  -0.000   0.000   0.000
   17        0.000  -0.000   0.000  -0.000
   18        0.000   0.000   0.000   0.000
   19        0.000  -0.000   0.000  -0.000
   20        0.000  -0.000   0.000   0.000
   21       -0.000  -0.000   0.000  -0.000
   22        0.000  -0.000   0.000   0.000
   23       -0.000  -0.000   0.000  -0.000
   24        0.000   0.000   0.000   0.000
   25        0.000  -0.000   0.000  -0.000
   26        0.000   0.000   0.000   0.000
   27       -0.000  -0.000   0.000  -0.000
   28        0.000  -0.000   0.000   0.000
   29       -0.000   0.000   0.000  -0.000
   30       -0.000  -0.000   0.000  -0.000
   31        0.000   0.000   0.000   0.000
   32       -0.000   0.000   0.000   0.000
--------------------------------------------------
tot          0.000  -0.000  -0.000  -0.000
 

 total amount of memory used by VASP MPI-rank0    62247. kBytes
=======================================================================

   base      :      30000. kBytes
   nonlr-proj:       8549. kBytes
   fftplans  :       8422. kBytes
   grid      :       8783. kBytes
   one-center:        124. kBytes
   wavefun   :       6369. kBytes
 
  
  
 General timing and accounting informations for this job:
 ========================================================
  
                  Total CPU time used (sec):       62.015
                            User time (sec):       57.492
                          System time (sec):        4.522
                         Elapsed time (sec):       65.704
  
                   Maximum memory used (kb):      175040.
                   Average memory used (kb):           0.
  
                          Minor page faults:       102503
                          Major page faults:            3
                 Voluntary context switches:        16866
