       N       E                     dE             d eps       ncg     rms          rms(c)
DAV:   1    -0.211667703797E+03   -0.21167E+03   -0.25342E-03  2560   0.307E-01    0.511E-03
DAV:   2    -0.211667703410E+03    0.38705E-06   -0.25857E-06  2560   0.101E-02
   1 F= -.21166770E+03 E0= -.21166770E+03  d E =-.211668E+03  mag=    -0.0000
