LTO                                     
           1
     7.902866    0.000000   -0.000000
    -0.000000    7.790608    0.000000
    -0.000000    0.000000    7.514286
   Ti   O    F 
   8   8  16
Direct configuration=     1
   1.00000000  0.00024545  0.98934062
   0.00000000  0.00024545  0.51065938
   1.00000000  0.49989183  0.00006186
   0.00000000  0.49989183  0.49993841
   0.50000000  0.99136167  0.99999615
   0.50000000  0.99136167  0.50000384
   0.50000000  0.51632612  0.01062005
   0.50000000  0.51632612  0.48937995
   0.50000000  0.74729677  0.99646008
   0.50000000  0.74729676  0.50353994
   0.00000000  0.99971894  0.75000000
   0.00000000  0.50051178  0.24999995
   1.00000000  0.50036050  0.74999995
   0.50000000  0.00466755  0.25000000
   0.50000000  0.00373715  0.75000000
   0.50000000  0.49026577  0.25000000
   0.23982668  0.00138244  0.00510638
   0.23982669  0.00138243  0.49489367
   0.24650820  0.49867554  0.99636406
   0.24650820  0.49867553  0.50363589
   0.76017332  0.00138242  0.00510635
   0.76017332  0.00138245  0.49489363
   0.75349180  0.49867554  0.99636405
   0.75349180  0.49867553  0.50363587
   0.99999998  0.24582234  0.00499333
   0.00000002  0.24582234  0.49500660
   1.00000000  0.75438313  0.00485767
   0.00000000  0.75438313  0.49514231
   0.50000001  0.25238886  0.99558779
   0.49999999  0.25238886  0.50441222
   0.00000000  0.99954944  0.25000000
   0.50000000  0.48552469  0.75000000
