       N       E                     dE             d eps       ncg     rms          rms(c)
DAV:   1    -0.212576353481E+03   -0.21258E+03   -0.57379E-03 20608   0.497E-01    0.198E-03
DAV:   2    -0.212576353433E+03    0.48243E-07   -0.35274E-07 10448   0.429E-03
   1 F= -.21257635E+03 E0= -.21257635E+03  d E =-.212576E+03  mag=     0.0000
