 vasp.5.4.4.18Apr17-6-g9f103f2a35 (build Apr 30 2017 20:10:35) complex          
  
 executed on             LinuxIFC date 2017.09.30  05:25:38
 running on  128 total cores
 distrk:  each k-point on  128 cores,    1 groups
 distr:  one band on NCORES_PER_BAND=   8 cores,   16 groups


--------------------------------------------------------------------------------------------------------


 INCAR:
 POTCAR:   PAW_PBE Ti_pv 07Sep2000                
 POTCAR:   PAW_PBE O 08Apr2002                    
 POTCAR:    PAW_PBE F 08Apr2002                   
 POTCAR:   PAW_PBE Ti_pv 07Sep2000                
   VRHFIN =Ti: d3 s1                                                            
   LEXCH  = PE                                                                  
   EATOM  =  1042.3781 eV,   76.6126 Ry                                         
                                                                                
   TITEL  = PAW_PBE Ti_pv 07Sep2000                                             
   LULTRA =        F    use ultrasoft PP ?                                      
   IUNSCR =        1    unscreen: 0-lin 1-nonlin 2-no                           
   RPACOR =    2.200    partial core radius                                     
   POMASS =   47.880; ZVAL   =   10.000    mass and valenz                      
   RCORE  =    2.500    outmost cutoff radius                                   
   RWIGS  =    2.500; RWIGS  =    1.323    wigner-seitz radius (au A)           
   ENMAX  =  222.338; ENMIN  =  166.753 eV                                      
   RCLOC  =    1.701    cutoff for local pot                                    
   LCOR   =        T    correct aug charges                                     
   LPAW   =        T    paw PP                                                  
   EAUG   =  482.848                                                            
   DEXC   =    -.008                                                            
   RMAX   =    3.092    core radius for proj-oper                               
   RAUG   =    1.300    factor for augmentation sphere                          
   RDEP   =    2.538    radius for radial grids                                 
   QCUT   =   -4.042; QGAM   =    8.085    optimization parameters              
                                                                                
   Description                                                                  
     l     E      TYP  RCUT    TYP  RCUT                                        
     1   .000     23  2.300                                                     
     1  -.100     23  2.300                                                     
     2   .000     23  2.500                                                     
     2   .000     23  2.500                                                     
     0   .000     23  2.500                                                     
     0  1.500     23  2.500                                                     
     3   .000      7   .000                                                     
  local pseudopotential read in
  partial core-charges read in
  atomic valenz-charges read in
  non local Contribution for L=           1  read in
    real space projection operators read in
  non local Contribution for L=           1  read in
    real space projection operators read in
  non local Contribution for L=           2  read in
    real space projection operators read in
  non local Contribution for L=           2  read in
    real space projection operators read in
  non local Contribution for L=           0  read in
    real space projection operators read in
  non local Contribution for L=           0  read in
    real space projection operators read in
    PAW grid and wavefunctions read in
 
   number of l-projection  operators is LMAX  =           6
   number of lm-projection operators is LMMAX =          18
 
 POTCAR:   PAW_PBE O 08Apr2002                    
   VRHFIN =O: s2p4                                                              
   LEXCH  = PE                                                                  
   EATOM  =   432.3788 eV,   31.7789 Ry                                         
                                                                                
   TITEL  = PAW_PBE O 08Apr2002                                                 
   LULTRA =        F    use ultrasoft PP ?                                      
   IUNSCR =        0    unscreen: 0-lin 1-nonlin 2-no                           
   RPACOR =     .000    partial core radius                                     
   POMASS =   16.000; ZVAL   =    6.000    mass and valenz                      
   RCORE  =    1.520    outmost cutoff radius                                   
   RWIGS  =    1.550; RWIGS  =     .820    wigner-seitz radius (au A)           
   ENMAX  =  400.000; ENMIN  =  300.000 eV                                      
   ICORE  =        2    local potential                                         
   LCOR   =        T    correct aug charges                                     
   LPAW   =        T    paw PP                                                  
   EAUG   =  605.392                                                            
   DEXC   =     .000                                                            
   RMAX   =    2.264    core radius for proj-oper                               
   RAUG   =    1.300    factor for augmentation sphere                          
   RDEP   =    1.550    radius for radial grids                                 
   QCUT   =   -5.520; QGAM   =   11.041    optimization parameters              
                                                                                
   Description                                                                  
     l     E      TYP  RCUT    TYP  RCUT                                        
     0   .000     23  1.200                                                     
     0  -.700     23  1.200                                                     
     1   .000     23  1.520                                                     
     1   .600     23  1.520                                                     
     2   .000      7  1.500                                                     
  local pseudopotential read in
  atomic valenz-charges read in
  non local Contribution for L=           0  read in
    real space projection operators read in
  non local Contribution for L=           0  read in
    real space projection operators read in
  non local Contribution for L=           1  read in
    real space projection operators read in
  non local Contribution for L=           1  read in
    real space projection operators read in
    PAW grid and wavefunctions read in
 
   number of l-projection  operators is LMAX  =           4
   number of lm-projection operators is LMMAX =           8
 
 POTCAR:    PAW_PBE F 08Apr2002                   
   VRHFIN =F: s2p5                                                              
   LEXCH  = PE                                                                  
   EATOM  =   659.6475 eV,   48.4827 Ry                                         
                                                                                
   TITEL  = PAW_PBE F 08Apr2002                                                 
   LULTRA =        F    use ultrasoft PP ?                                      
   IUNSCR =        1    unscreen: 0-lin 1-nonlin 2-no                           
   RPACOR =    1.200    partial core radius                                     
   POMASS =   18.998; ZVAL   =    7.000    mass and valenz                      
   RCORE  =    1.520    outmost cutoff radius                                   
   RWIGS  =    1.500; RWIGS  =    0.794    wigner-seitz radius (au A)           
   ENMAX  =  400.000; ENMIN  =  300.000 eV                                      
   ICORE  =        2    local potential                                         
   LCOR   =        T    correct aug charges                                     
   LPAW   =        T    paw PP                                                  
   EAUG   =  613.614                                                            
   RMAX   =    1.555    core radius for proj-oper                               
   RAUG   =    1.300    factor for augmentation sphere                          
   RDEP   =    1.539    radius for radial grids                                 
   RDEPT  =    1.299    core radius for aug-charge                              
                                                                                
   Atomic configuration                                                         
    4 entries                                                                   
     n  l   j            E        occ.                                          
     1  0  0.50      -663.3661   2.0000                                         
     2  0  0.50       -29.8995   2.0000                                         
     2  1  0.50       -11.1114   5.0000                                         
     3  2  1.50       -10.8847   0.0000                                         
   Description                                                                  
     l       E           TYP  RCUT    TYP  RCUT                                 
     0    -29.8995018     23  1.200                                             
     0     -9.5240782     23  1.200                                             
     1    -11.1113914     23  1.520                                             
     1      1.3605826     23  1.520                                             
     2    -10.8846608      7  1.500                                             
  local pseudopotential read in
  partial core-charges read in
  partial kinetic energy density read in
  atomic valenz-charges read in
  non local Contribution for L=           0  read in
    real space projection operators read in
  non local Contribution for L=           0  read in
    real space projection operators read in
  non local Contribution for L=           1  read in
    real space projection operators read in
  non local Contribution for L=           1  read in
    real space projection operators read in
    PAW grid and wavefunctions read in
 
   number of l-projection  operators is LMAX  =           4
   number of lm-projection operators is LMMAX =           8
 
 Optimization of the real space projectors (new method)

 maximal supplied QI-value         = 15.12
 optimisation between [QCUT,QGAM] = [ 13.45, 27.06] = [ 50.69,205.06] Ry 
 Optimized for a Real-space Cutoff    1.49 Angstroem

   l    n(q)    QCUT    max X(q) W(low)/X(q) W(high)/X(q)  e(spline) 
   1     12    13.455     4.841    0.13E-05    0.83E-06    0.56E-07
   1     12    13.455     5.701    0.32E-04    0.25E-04    0.17E-06
   2     11    13.455     4.569    0.64E-05    0.34E-05    0.50E-07
   2     11    13.455    32.276    0.49E-04    0.38E-04    0.46E-06
   0     12    13.455    30.046    0.17E-04    0.41E-05    0.51E-07
   0     12    13.455    45.433    0.12E-04    0.27E-04    0.38E-06
 Optimization of the real space projectors (new method)

 maximal supplied QI-value         = 24.76
 optimisation between [QCUT,QGAM] = [ 13.37, 26.98] = [ 50.04,203.89] Ry 
 Optimized for a Real-space Cutoff    1.17 Angstroem

   l    n(q)    QCUT    max X(q) W(low)/X(q) W(high)/X(q)  e(spline) 
   0      9    13.368     4.192    0.20E-04    0.58E-05    0.56E-07
   0      9    13.368     8.473    0.60E-04    0.52E-04    0.21E-06
   1      9    13.368     2.474    0.22E-04    0.17E-04    0.28E-07
   1      9    13.368     3.912    0.94E-04    0.97E-04    0.20E-06
 Optimization of the real space projectors (new method)

 maximal supplied QI-value         = 24.76
 optimisation between [QCUT,QGAM] = [ 13.37, 26.98] = [ 50.04,203.89] Ry 
 Optimized for a Real-space Cutoff    1.17 Angstroem

   l    n(q)    QCUT    max X(q) W(low)/X(q) W(high)/X(q)  e(spline) 
   0      9    13.368    14.049    0.39E-04    0.34E-04    0.16E-06
   0      9    13.368     8.945    0.54E-04    0.47E-04    0.20E-06
   1      9    13.368     7.086    0.99E-04    0.10E-03    0.23E-06
   1      9    13.368     6.747    0.86E-04    0.89E-04    0.21E-06

 ----------------------------------------------------------------------------- 
|                                                                             |
|  ADVICE TO THIS USER RUNNING 'VASP/VAMP'   (HEAR YOUR MASTER'S VOICE ...):  |
|                                                                             |
|      You enforced a specific xc-type in the INCAR file,                     |
|      a different type was found on the POTCAR file                          |
|          I HOPE YOU KNOW, WHAT YOU ARE  DOING                               |
|                                                                             |
 ----------------------------------------------------------------------------- 

 PAW_PBE Ti_pv 07Sep2000                :
 energy of atom  1       EATOM=-1042.3781
 kinetic energy error for atom=    0.0006 (will be added to EATOM!!)
 PAW_PBE O 08Apr2002                    :
 energy of atom  2       EATOM= -432.3788
 kinetic energy error for atom=    0.0091 (will be added to EATOM!!)
  PAW_PBE F 08Apr2002                   :
 energy of atom  3       EATOM= -659.6475
 kinetic energy error for atom=    0.0140 (will be added to EATOM!!)
 
 
 POSCAR: Ti64 O64 F128                           
  positions in direct lattice
  velocities in cartesian coordinates
 exchange correlation table for  LEXCH =       14
   RHO(1)=    0.500       N(1)  =     2000
   RHO(2)=  100.500       N(2)  =     4000

 VTST: version 3.1, (03/28/14)

 CHAIN: initializing optimizer
 
 OPT: Using VASP Conjugate-Gradient optimizer
 CHAIN: Read ICHAIN            0
 
 POSCAR: Ti64 O64 F128                           
  positions in direct lattice
  velocities in cartesian coordinates
 


--------------------------------------------------------------------------------------------------------


 ion  position               nearest neighbor table
   1  0.997  0.999  0.008-  65 1.77 228 1.91 199 1.91 214 1.94 171 1.94 136 2.03
   2  0.993  0.991  0.499- 112 1.82  95 1.83 135 1.96 129 1.96 172 2.04 215 2.04
   3  0.997  0.506  0.994- 108 1.83  68 1.84 200 1.94 173 1.97 130 2.00 226 2.03
   4  0.007  0.502  0.493-  87 1.82  67 1.83 216 1.95 227 1.98 131 2.03 201 2.07
   5  0.506  0.008  0.003-  88 1.82 109 1.83 132 1.95 138 1.96 230 2.03 196 2.05
   6  0.492  0.001  0.497-  94 1.79 217 1.92 133 1.93 137 1.94 231 1.95 174 2.01
   7  0.507  0.509  1.000- 110 1.82  89 1.84 140 1.94 134 1.96 197 2.03 229 2.06
   8  0.502  0.492  0.508-  66 1.81 113 1.84 198 1.93 175 1.97 218 2.02 139 2.02
   9  0.999  0.009  0.245- 111 1.79  65 1.87 176 1.92 204 1.96 135 2.01 234 2.01
  10  0.991  0.994  0.751-  98 1.82 114 1.83 136 1.96 129 1.97 177 2.03 219 2.03
  11  0.007  0.497  0.257-  90 1.80  67 1.86 232 1.95 220 1.97 130 2.03 205 2.05
  12  0.992  0.502  0.755-  99 1.83  68 1.84 221 1.94 233 1.98 131 2.00 178 2.03
  13  0.493  0.993  0.251- 117 1.79  96 1.84 132 1.96 137 1.99 179 2.04 222 2.04
  14  0.491  0.994  0.752-  97 1.82 118 1.83 138 1.95 133 1.98 223 2.03 180 2.03
  15  0.507  0.494  0.256-  91 1.84 115 1.85 139 1.94 134 1.98 202 2.00 224 2.01
  16  0.503  0.492  0.745- 116 1.83  66 1.83 181 1.94 203 1.97 140 2.02 225 2.04
  17  0.995  0.255  0.992- 103 1.83  72 1.84 226 1.93 214 2.01 141 2.03 182 2.03
  18  0.994  0.250  0.492- 104 1.84  71 1.85 215 1.95 227 1.97 142 2.00 183 2.04
  19  0.998  0.742  0.993- 108 1.81  74 1.84 184 1.95 207 1.95 143 2.00 228 2.07
  20  0.003  0.758  0.496-  73 1.82 112 1.83 185 1.94 208 1.98 144 2.03 216 2.04
  21  0.492  0.245  1.000- 100 1.83 109 1.85 148 1.95 145 1.95 229 2.01 186 2.02
  22  0.494  0.259  0.496- 113 1.81 101 1.85 146 1.95 147 1.95 187 2.01 217 2.07
  23  0.502  0.746  0.009-  69 1.80 110 1.86 206 1.96 188 1.97 230 2.04 150 2.05
  24  0.494  0.750  0.509- 102 1.81  70 1.84 218 1.94 149 2.00 231 2.01 189 2.04
  25  0.002  0.244  0.256-  71 1.82 111 1.85 190 1.93 211 1.96 232 2.00 141 2.03
  26  0.007  0.251  0.754-  72 1.83  92 1.84 219 1.95 233 1.97 142 2.03 212 2.03
  27  0.995  0.753  0.256- 107 1.84  73 1.84 234 1.94 220 1.96 191 2.00 143 2.03
  28  0.998  0.759  0.755- 114 1.82  74 1.83 192 1.94 213 1.95 144 2.01 221 2.06
  29  0.491  0.255  0.253- 105 1.82 115 1.83 145 1.95 147 1.97 193 2.03 222 2.03
  30  0.504  0.257  0.749-  93 1.82 116 1.83 148 1.96 146 1.96 209 2.03 223 2.03
  31  0.498  0.756  0.246- 106 1.86  69 1.88 117 1.90 224 2.02 194 2.03 149 2.03
  32  0.501  0.757  0.747- 118 1.83  70 1.84 210 1.96 195 1.96 150 2.01 225 2.04
  33  0.255  0.008  0.004-  75 1.83 119 1.83 196 1.94 171 2.00 244 2.02 159 2.03
  34  0.253  0.007  0.493- 120 1.80  94 1.91 158 1.93 151 1.96 172 1.98 245 2.02
  35  0.255  0.505  0.994-  77 1.83 121 1.85 197 1.94 173 1.98 152 1.99 242 2.05
  36  0.244  0.499  0.492-  76 1.81  87 1.83 243 1.96 235 1.98 153 2.02 198 2.06
  37  0.739  0.998  0.996-  88 1.82  79 1.83 248 1.93 236 1.97 154 2.02 199 2.08
  38  0.753  0.996  0.493-  78 1.84  95 1.85 249 1.94 237 1.97 155 2.01 174 2.04
  39  0.744  0.509  0.001-  89 1.81 122 1.83 156 1.93 160 1.98 246 2.03 200 2.04
  40  0.756  0.505  0.493-  80 1.81 123 1.82 201 1.93 175 1.99 247 2.03 157 2.06
  41  0.259  0.004  0.242-  96 1.81  75 1.83 238 1.93 251 1.95 158 2.05 176 2.06
  42  0.253  0.007  0.752- 124 1.84  97 1.84 159 1.94 151 1.99 177 2.02 252 2.03
  43  0.247  0.493  0.255-  90 1.87 128 1.87  76 1.87 152 2.02 239 2.02 202 2.04
  44  0.249  0.505  0.756-  77 1.84 125 1.84 178 1.94 203 1.98 153 2.00 250 2.04
  45  0.747  0.006  0.256- 126 1.82  78 1.83 179 1.94 204 1.99 255 2.02 154 2.04
  46  0.753  0.998  0.757-  79 1.84  98 1.84 256 1.94 240 1.96 155 2.02 180 2.02
  47  0.746  0.496  0.260-  91 1.83  80 1.83 253 1.94 241 1.97 205 2.00 156 2.05
  48  0.757  0.509  0.751-  99 1.81 127 1.82 157 1.94 160 1.98 254 2.03 181 2.04
  49  0.256  0.245  0.996- 100 1.83 119 1.85 168 1.95 161 1.97 242 2.02 182 2.02
  50  0.257  0.244  0.495- 101 1.83 120 1.84 167 1.95 162 1.95 243 2.01 183 2.02
  51  0.254  0.744  0.993- 121 1.83  84 1.83 206 1.95 184 1.97 163 2.01 244 2.06
  52  0.259  0.754  0.495-  83 1.81 102 1.84 245 1.95 235 1.97 164 2.02 185 2.04
  53  0.755  0.254  0.994- 103 1.84  86 1.84 246 1.94 236 1.98 165 2.01 186 2.04
  54  0.754  0.253  0.493- 104 1.84  85 1.84 247 1.95 237 1.97 166 2.00 187 2.06
  55  0.752  0.740  0.007-  81 1.82 122 1.82 188 1.96 207 1.96 248 2.03 170 2.04
  56  0.748  0.740  0.507- 123 1.82  82 1.85 189 1.93 208 1.97 169 2.02 249 2.04
  57  0.257  0.258  0.249- 128 1.77 105 1.83 161 1.95 167 1.97 190 2.03 238 2.06
  58  0.242  0.245  0.748-  92 1.82 124 1.84 168 1.96 162 1.97 250 2.02 209 2.04
  59  0.259  0.750  0.254- 106 1.81  83 1.86 239 1.93 251 1.98 163 2.02 191 2.04
  60  0.251  0.744  0.756-  84 1.83 125 1.83 210 1.95 192 1.95 164 2.01 252 2.04
  61  0.747  0.243  0.256- 126 1.83  85 1.83 193 1.93 211 1.97 165 2.01 253 2.03
  62  0.742  0.254  0.754-  86 1.83  93 1.84 254 1.94 240 1.97 166 2.01 212 2.03
  63  0.756  0.750  0.244- 107 1.83  81 1.85 255 1.94 241 1.97 194 1.99 169 2.04
  64  0.747  0.740  0.747- 127 1.82  82 1.83 195 1.94 213 1.96 170 2.03 256 2.04
  65  0.982  0.013  0.123-   1 1.77   9 1.87
  66  0.520  0.491  0.626-   8 1.81  16 1.83
  67  0.983  0.487  0.376-   4 1.83  11 1.86
  68  0.990  0.487  0.875-   3 1.84  12 1.84
  69  0.521  0.763  0.125-  23 1.80  31 1.88
  70  0.519  0.759  0.627-  32 1.84  24 1.84
  71  0.015  0.265  0.373-  25 1.82  18 1.85
  72  0.011  0.265  0.873-  26 1.83  17 1.84
  73  0.993  0.762  0.377-  20 1.82  27 1.84
  74  0.987  0.763  0.875-  28 1.83  19 1.84
  75  0.269  0.016  0.123-  41 1.83  33 1.83
  76  0.268  0.489  0.376-  36 1.81  43 1.87
  77  0.261  0.486  0.875-  35 1.83  44 1.84
  78  0.732  0.989  0.375-  45 1.83  38 1.84
  79  0.733  0.992  0.876-  37 1.83  46 1.84
  80  0.769  0.480  0.378-  40 1.81  47 1.83
  81  0.736  0.734  0.125-  55 1.82  63 1.85
  82  0.734  0.737  0.628-  64 1.83  56 1.85
  83  0.258  0.761  0.376-  52 1.81  59 1.86
  84  0.265  0.764  0.874-  60 1.83  51 1.83
  85  0.733  0.263  0.375-  61 1.83  54 1.84
  86  0.738  0.261  0.874-  62 1.83  53 1.84
  87  0.125  0.514  0.486-   4 1.82  36 1.83
  88  0.624  0.010  0.022-  37 1.82   5 1.82
  89  0.627  0.514  0.986-  39 1.81   7 1.84
  90  0.125  0.499  0.262-  11 1.80  43 1.87
  91  0.627  0.501  0.267-  47 1.83  15 1.84
  92  0.125  0.263  0.732-  58 1.82  26 1.84
  93  0.623  0.262  0.735-  30 1.82  62 1.84
  94  0.376  0.988  0.482-   6 1.79  34 1.91
  95  0.873  0.988  0.488-   2 1.83  38 1.85
  96  0.374  0.002  0.271-  41 1.81  13 1.84
  97  0.373  0.010  0.764-  14 1.82  42 1.84
  98  0.873  0.011  0.763-  10 1.82  46 1.84
  99  0.875  0.518  0.737-  48 1.81  12 1.83
 100  0.374  0.263  0.985-  49 1.83  21 1.83
 101  0.375  0.260  0.477-  50 1.83  22 1.85
 102  0.377  0.768  0.515-  24 1.81  52 1.84
 103  0.875  0.263  0.993-  17 1.83  53 1.84
 104  0.874  0.260  0.488-  54 1.84  18 1.84
 105  0.374  0.242  0.270-  29 1.82  57 1.83
 106  0.376  0.754  0.238-  59 1.81  31 1.86
 107  0.876  0.758  0.239-  63 1.83  27 1.84
 108  0.983  0.625  0.992-  19 1.81   3 1.83
 109  0.486  0.125  0.014-   5 1.83  21 1.85
 110  0.488  0.625  0.013-   7 1.82  23 1.86
 111  0.992  0.124  0.265-   9 1.79  25 1.85
 112  0.014  0.875  0.517-   2 1.82  20 1.83
 113  0.514  0.375  0.484-  22 1.81   8 1.84
 114  0.985  0.875  0.733-  28 1.82  10 1.83
 115  0.499  0.373  0.269-  29 1.83  15 1.85
 116  0.487  0.375  0.761-  16 1.83  30 1.83
 117  0.507  0.878  0.266-  13 1.79  31 1.90
 118  0.489  0.875  0.762-  14 1.83  32 1.83
 119  0.258  0.125  0.979-  33 1.83  49 1.85
 120  0.258  0.124  0.481-  34 1.80  50 1.84
 121  0.266  0.625  0.991-  51 1.83  35 1.85
 122  0.771  0.624  0.985-  55 1.82  39 1.83
 123  0.768  0.624  0.489-  40 1.82  56 1.82
 124  0.237  0.126  0.760-  42 1.84  58 1.84
 125  0.236  0.625  0.760-  60 1.83  44 1.84
 126  0.757  0.124  0.259-  45 1.82  61 1.83
 127  0.734  0.624  0.771-  48 1.82  64 1.82
 128  0.254  0.373  0.233-  57 1.77  43 1.87
 129  0.990  0.021  0.624-   2 1.96  10 1.97
 130  0.009  0.511  0.125-   3 2.00  11 2.03
 131  0.013  0.513  0.626-  12 2.00   4 2.03
 132  0.475  0.982  0.124-   5 1.95  13 1.96
 133  0.485  0.986  0.623-   6 1.93  14 1.98
 134  0.515  0.484  0.127-   7 1.96  15 1.98
 135  0.016  0.983  0.373-   2 1.96   9 2.01
 136  0.015  0.987  0.877-  10 1.96   1 2.03
 137  0.522  0.022  0.375-   6 1.94  13 1.99
 138  0.520  0.017  0.875-  14 1.95   5 1.96
 139  0.483  0.516  0.379-  15 1.94   8 2.02
 140  0.483  0.511  0.875-   7 1.94  16 2.02
 141  0.991  0.235  0.124-  17 2.03  25 2.03
 142  0.988  0.233  0.623-  18 2.00  26 2.03
 143  0.013  0.743  0.124-  19 2.00  27 2.03
 144  0.010  0.733  0.627-  28 2.01  20 2.03
 145  0.485  0.268  0.126-  29 1.95  21 1.95
 146  0.478  0.260  0.623-  22 1.95  30 1.96
 147  0.522  0.226  0.375-  22 1.95  29 1.97
 148  0.516  0.233  0.874-  21 1.95  30 1.96
 149  0.490  0.738  0.378-  24 2.00  31 2.03
 150  0.482  0.741  0.876-  32 2.01  23 2.05
 151  0.261  0.011  0.622-  34 1.96  42 1.99
 152  0.242  0.511  0.124-  35 1.99  43 2.02
 153  0.241  0.507  0.625-  44 2.00  36 2.02
 154  0.771  0.004  0.125-  37 2.02  45 2.04
 155  0.757  0.006  0.625-  38 2.01  46 2.02
 156  0.740  0.517  0.127-  39 1.93  47 2.05
 157  0.730  0.512  0.626-  48 1.94  40 2.06
 158  0.228  0.983  0.372-  34 1.93  41 2.05
 159  0.231  0.983  0.875-  42 1.94  33 2.03
 160  0.768  0.479  0.876-  39 1.98  48 1.98
 161  0.265  0.229  0.124-  57 1.95  49 1.97
 162  0.271  0.237  0.622-  50 1.95  58 1.97
 163  0.237  0.744  0.124-  51 2.01  59 2.02
 164  0.237  0.744  0.625-  60 2.01  52 2.02
 165  0.758  0.240  0.125-  53 2.01  61 2.01
 166  0.760  0.240  0.624-  54 2.00  62 2.01
 167  0.224  0.267  0.373-  50 1.95  57 1.97
 168  0.232  0.271  0.873-  49 1.95  58 1.96
 169  0.762  0.765  0.378-  56 2.02  63 2.04
 170  0.770  0.765  0.876-  64 2.03  55 2.04
 171  0.124  0.011  0.013-   1 1.94  33 2.00
 172  0.124  0.013  0.510-  34 1.98   2 2.04
 173  0.125  0.511  0.992-   3 1.97  35 1.98
 174  0.622  0.010  0.515-   6 2.01  38 2.04
 175  0.626  0.515  0.483-   8 1.97  40 1.99
 176  0.125  0.006  0.233-   9 1.92  41 2.06
 177  0.123  0.989  0.736-  42 2.02  10 2.03
 178  0.124  0.482  0.756-  44 1.94  12 2.03
 179  0.623  0.007  0.227-  45 1.94  13 2.04
 180  0.623  0.992  0.735-  46 2.02  14 2.03
 181  0.627  0.484  0.772-  16 1.94  48 2.04
 182  0.125  0.239  0.012-  49 2.02  17 2.03
 183  0.126  0.240  0.515-  50 2.02  18 2.04
 184  0.126  0.740  0.987-  19 1.95  51 1.97
 185  0.127  0.732  0.495-  20 1.94  52 2.04
 186  0.624  0.241  0.013-  21 2.02  53 2.04
 187  0.622  0.238  0.516-  22 2.01  54 2.06
 188  0.627  0.739  0.977-  55 1.96  23 1.97
 189  0.624  0.735  0.484-  56 1.93  24 2.04
 190  0.126  0.246  0.231-  25 1.93  57 2.03
 191  0.125  0.746  0.256-  27 2.00  59 2.04
 192  0.125  0.767  0.760-  28 1.94  60 1.95
 193  0.622  0.246  0.233-  61 1.93  29 2.03
 194  0.628  0.742  0.269-  63 1.99  31 2.03
 195  0.626  0.765  0.776-  64 1.94  32 1.96
 196  0.377  0.985  0.977-  33 1.94   5 2.05
 197  0.378  0.482  0.015-  35 1.94   7 2.03
 198  0.376  0.486  0.519-   8 1.93  36 2.06
 199  0.875  0.987  0.983-   1 1.91  37 2.08
 200  0.874  0.481  0.016-   3 1.94  39 2.04
 201  0.876  0.484  0.525-  40 1.93   4 2.07
 202  0.378  0.504  0.235-  15 2.00  43 2.04
 203  0.377  0.516  0.735-  16 1.97  44 1.98
 204  0.875  0.985  0.267-   9 1.96  45 1.99
 205  0.875  0.496  0.234-  47 2.00  11 2.05
 206  0.376  0.770  0.019-  51 1.95  23 1.96
 207  0.876  0.770  0.019-  19 1.95  55 1.96
 208  0.874  0.765  0.517-  56 1.97  20 1.98
 209  0.374  0.239  0.765-  30 2.03  58 2.04
 210  0.376  0.735  0.732-  60 1.95  32 1.96
 211  0.874  0.260  0.259-  25 1.96  61 1.97
 212  0.874  0.239  0.756-  26 2.03  62 2.03
 213  0.875  0.730  0.737-  28 1.95  64 1.96
 214  0.991  0.124  0.983-   1 1.94  17 2.01
 215  0.994  0.123  0.482-  18 1.95   2 2.04
 216  0.981  0.626  0.493-   4 1.95  20 2.04
 217  0.488  0.125  0.514-   6 1.92  22 2.07
 218  0.487  0.624  0.512-  24 1.94   8 2.02
 219  0.013  0.124  0.763-  26 1.95  10 2.03
 220  0.995  0.625  0.258-  27 1.96  11 1.97
 221  0.019  0.626  0.763-  12 1.94  28 2.06
 222  0.501  0.125  0.232-  29 2.03  13 2.04
 223  0.506  0.125  0.734-  14 2.03  30 2.03
 224  0.501  0.624  0.241-  15 2.01  31 2.02
 225  0.516  0.625  0.749-  32 2.04  16 2.04
 226  0.015  0.377  0.017-  17 1.93   3 2.03
 227  0.013  0.375  0.518-  18 1.97   4 1.98
 228  0.014  0.875  0.012-   1 1.91  19 2.07
 229  0.513  0.375  0.987-  21 2.01   7 2.06
 230  0.511  0.877  0.985-   5 2.03  23 2.04
 231  0.518  0.877  0.484-   6 1.95  24 2.01
 232  0.001  0.372  0.231-  11 1.95  25 2.00
 233  0.984  0.376  0.731-  26 1.97  12 1.98
 234  0.009  0.878  0.236-  27 1.94   9 2.01
 235  0.269  0.626  0.496-  52 1.97  36 1.98
 236  0.762  0.124  0.994-  37 1.97  53 1.98
 237  0.755  0.125  0.492-  38 1.97  54 1.97
 238  0.241  0.126  0.269-  41 1.93  57 2.06
 239  0.253  0.625  0.256-  59 1.93  43 2.02
 240  0.736  0.125  0.755-  46 1.96  62 1.97
 241  0.759  0.624  0.269-  63 1.97  47 1.97
 242  0.238  0.374  0.016-  49 2.02  35 2.05
 243  0.238  0.373  0.513-  36 1.96  50 2.01
 244  0.239  0.877  0.011-  33 2.02  51 2.06
 245  0.233  0.878  0.511-  52 1.95  34 2.02
 246  0.737  0.377  0.017-  53 1.94  39 2.03
 247  0.734  0.377  0.519-  54 1.95  40 2.03
 248  0.739  0.872  0.011-  37 1.93  55 2.03
 249  0.734  0.872  0.512-  38 1.94  56 2.04
 250  0.266  0.374  0.735-  58 2.02  44 2.04
 251  0.242  0.878  0.236-  41 1.95  59 1.98
 252  0.259  0.875  0.735-  42 2.03  60 2.04
 253  0.747  0.373  0.231-  47 1.94  61 2.03
 254  0.763  0.377  0.735-  62 1.94  48 2.03
 255  0.739  0.876  0.237-  63 1.94  45 2.02
 256  0.761  0.872  0.741-  46 1.94  64 2.04
 

IMPORTANT INFORMATION: All symmetrisations will be switched off!
NOSYMM: (Re-)initialisation of all symmetry stuff for point group C_1.

 
 
 KPOINTS: Title                                   

Automatic generation of k-mesh.
Space group operators:
 irot       det(A)        alpha          n_x          n_y          n_z        tau_x        tau_y        tau_z
    1     1.000000     0.000001     1.000000     0.000000     0.000000     0.000000     0.000000     0.000000
 
 Subroutine IBZKPT returns following result:
 ===========================================
 
 Found      4 irreducible k-points:
 
 Following reciprocal coordinates:
            Coordinates               Weight
  0.250000  0.250000  0.250000      2.000000
 -0.250000  0.250000  0.250000      2.000000
  0.250000 -0.250000  0.250000      2.000000
 -0.250000 -0.250000  0.250000      2.000000
 
 Following cartesian coordinates:
            Coordinates               Weight
  0.016350  0.016345  0.016418      2.000000
 -0.016409  0.016363  0.016458      2.000000
  0.016368 -0.016346  0.016401      2.000000
 -0.016391 -0.016328  0.016442      2.000000
 


--------------------------------------------------------------------------------------------------------




 Dimension of arrays:
   k-points           NKPTS =      4   k-points in BZ     NKDIM =      4   number of bands    NBANDS=   1280
   number of dos      NEDOS =   3001   number of ions     NIONS =    256
   non local maximal  LDIM  =      6   non local SUM 2l+1 LMDIM =     18
   total plane-waves  NPLWV = ******
   max r-space proj   IRMAX =  10708   max aug-charges    IRDMAX= 240106
   dimension x,y,z NGX =   140 NGY =  140 NGZ =  140
   dimension x,y,z NGXF=   280 NGYF=  280 NGZF=  280
   support grid    NGXF=   560 NGYF=  560 NGZF=  560
   ions per type =              64  64 128
   NGX,Y,Z   is equivalent  to a cutoff of  15.25, 15.22, 15.30 a.u.
   NGXF,Y,Z  is equivalent  to a cutoff of  30.50, 30.43, 30.59 a.u.

 SYSTEM =  LTO                                     
 POSCAR =  Ti64 O64 F128                           

 Startparameter for this run:
   NWRITE =      2    write-flag & timer
   PREC   = accura    normal or accurate (medium, high low for compatibility)
   ISTART =      1    job   : 0-new  1-cont  2-samecut
   ICHARG =      0    charge: 1-file 2-atom 10-const
   ISPIN  =      2    spin polarized calculation?
   LNONCOLLINEAR =      F non collinear calculations
   LSORBIT =      F    spin-orbit coupling
   INIWAV =      1    electr: 0-lowe 1-rand  2-diag
   LASPH  =      T    aspherical Exc in radial PAW
   METAGGA=      F    non-selfconsistent MetaGGA calc.

 Electronic Relaxation 1
   ENCUT  =  700.0 eV  51.45 Ry    7.17 a.u.  32.93 32.99 32.83*2*pi/ulx,y,z
   ENINI  =  700.0     initial cutoff
   ENAUG  =  613.6 eV  augmentation charge cutoff
   NELM   =     60;   NELMIN=  2; NELMDL=  0     # of ELM steps 
   EDIFF  = 0.1E-05   stopping-criterion for ELM
   LREAL  =      T    real-space projection
   NLSPLINE    = F    spline interpolate recip. space projectors
   LCOMPAT=      F    compatible to vasp.4.4
   GGA_COMPAT  = T    GGA compatible to vasp.4.4-vasp.4.6
   LMAXPAW     = -100 max onsite density
   LMAXMIX     =    4 max onsite mixed and CHGCAR
   VOSKOWN=      0    Vosko Wilk Nusair interpolation
   ROPT   =   -0.00010  -0.00010  -0.00010
 Ionic relaxation
   EDIFFG = -.1E-01   stopping-criterion for IOM
   NSW    =    100    number of steps for IOM
   NBLOCK =      1;   KBLOCK =    100    inner block; outer block 
   IBRION =      2    ionic relax: 0-MD 1-quasi-New 2-CG
   NFREE  =      1    steps in history (QN), initial steepest desc. (CG)
   ISIF   =      3    stress and relaxation
   IWAVPR =     11    prediction:  0-non 1-charg 2-wave 3-comb
   ISYM   =      0    0-nonsym 1-usesym 2-fastsym
   LCORR  =      T    Harris-Foulkes like correction to forces

   POTIM  = 0.5000    time-step for ionic-motion
   TEIN   =    0.0    initial temperature
   TEBEG  =    0.0;   TEEND  =   0.0 temperature during run
   SMASS  =  -3.00    Nose mass-parameter (am)
   estimated Nose-frequenzy (Omega)   =  0.10E-29 period in steps =****** mass=  -0.532E-26a.u.
   SCALEE = 1.0000    scale energy and forces
   NPACO  =    256;   APACO  = 16.0  distance and # of slots for P.C.
   PSTRESS=    0.0 pullay stress

  Mass of Ions in am
   POMASS =  47.88 16.00 19.00
  Ionic Valenz
   ZVAL   =  10.00  6.00  7.00
  Atomic Wigner-Seitz radii
   RWIGS  =  -1.00 -1.00 -1.00
  virtual crystal weights 
   VCA    =   1.00  1.00  1.00
   NELECT =    1920.0000    total number of electrons
   NUPDOWN=      -1.0000    fix difference up-down

 DOS related values:
   EMIN   =  10.00;   EMAX   =-10.00  energy-range for DOS
   EFERMI =   0.00
   ISMEAR =     0;   SIGMA  =   0.01  broadening in eV -4-tet -1-fermi 0-gaus

 Electronic relaxation 2 (details)
   IALGO  =     38    algorithm
   LDIAG  =      T    sub-space diagonalisation (order eigenvalues)
   LSUBROT=      F    optimize rotation matrix (better conditioning)
   TURBO    =      0    0=normal 1=particle mesh
   IRESTART =      0    0=no restart 2=restart with 2 vectors
   NREBOOT  =      0    no. of reboots
   NMIN     =      0    reboot dimension
   EREF     =   0.00    reference energy to select bands
   IMIX   =      4    mixing-type and parameters
     AMIX     =   0.40;   BMIX     =  1.00
     AMIX_MAG =   1.60;   BMIX_MAG =  1.00
     AMIN     =   0.10
     WC   =   100.;   INIMIX=   1;  MIXPRE=   1;  MAXMIX= -45

 Intra band minimization:
   WEIMIN = 0.0010     energy-eigenvalue tresh-hold
   EBREAK =  0.20E-09  absolut break condition
   DEPER  =   0.30     relativ break condition  

   TIME   =   0.40     timestep for ELM

  volume/ion in A,a.u.               =      13.88        93.64
  Fermi-wavevector in a.u.,A,eV,Ry     =   1.333564  2.520070 24.196489  1.778392
  Thomas-Fermi vector in A             =   2.462412
 
 Write flags
   LWAVE        =      T    write WAVECAR
   LDOWNSAMPLE  =      F    k-point downsampling of WAVECAR
   LCHARG       =      T    write CHGCAR
   LVTOT        =      F    write LOCPOT, total local potential
   LVHAR        =      F    write LOCPOT, Hartree potential only
   LELF         =      F    write electronic localiz. function (ELF)
   LORBIT       =     11    0 simple, 1 ext, 2 COOP (PROOUT), +10 PAW based schemes


 Dipole corrections
   LMONO  =      F    monopole corrections only (constant potential shift)
   LDIPOL =      F    correct potential (dipole corrections)
   IDIPOL =      0    1-x, 2-y, 3-z, 4-all directions 
   EPSILON=  1.0000000 bulk dielectric constant

 LDA+U is selected, type is set to LDAUTYPE =  2
   angular momentum for each species LDAUL =     2   -1   -1
   U (eV)           for each species LDAUU =   4.2  0.0  0.0
   J (eV)           for each species LDAUJ =   0.0  0.0  0.0
 Exchange correlation treatment:
   GGA     =    PS    GGA type
   LEXCH   =    14    internal setting for exchange type
   VOSKOWN=      0    Vosko Wilk Nusair interpolation
   LHFCALC =     F    Hartree Fock is set to
   LHFONE  =     F    Hartree Fock one center treatment
   AEXX    =    0.0000 exact exchange contribution

 Linear response parameters
   LEPSILON=     F    determine dielectric tensor
   LRPA    =     F    only Hartree local field effects (RPA)
   LNABLA  =     F    use nabla operator in PAW spheres
   LVEL    =     F    velocity operator in full k-point grid
   LINTERFAST=   F  fast interpolation
   KINTER  =     0    interpolate to denser k-point grid
   CSHIFT  =0.1000    complex shift for real part using Kramers Kronig
   OMEGAMAX=  -1.0    maximum frequency
   DEG_THRESHOLD= 0.2000000E-02 threshold for treating states as degnerate
   RTIME   =   -0.100 relaxation time in fs
  (WPLASMAI=    0.000 imaginary part of plasma frequency in eV, 0.658/RTIME)
   DFIELD  = 0.0000000 0.0000000 0.0000000 field for delta impulse in time
 
 Orbital magnetization related:
   ORBITALMAG=     F  switch on orbital magnetization
   LCHIMAG   =     F  perturbation theory with respect to B field
   DQ        =  0.001000  dq finite difference perturbation B field
   LLRAUG    =     F  two centre corrections for induced B field



--------------------------------------------------------------------------------------------------------


 conjugate gradient relaxation of ions
 charge density and potential will be updated during run
 spin polarized calculation
 Variant of blocked Davidson
 Davidson routine will perform the subspace rotation
 perform sub-space diagonalisation
    after iterative eigenvector-optimisation
 modified Broyden-mixing scheme, WC =      100.0
 initial mixing is a Kerker type mixing with AMIX =  0.4000 and BMIX =      1.0000
 Hartree-type preconditioning will be used
 using additional bands          320
 real space projection scheme for non local part
 use partial core corrections
 calculate Harris-corrections to forces 
   (improved forces if not selfconsistent)
 use gradient corrections 
 use of overlap-Matrix (Vanderbilt PP)
 Gauss-broadening in eV      SIGMA  =   0.01


--------------------------------------------------------------------------------------------------------


  energy-cutoff  :      700.00
  volume of cell :     3552.09
      direct lattice vectors                 reciprocal lattice vectors
    15.262818406  0.008510117  0.019039134     0.065518821 -0.000036481 -0.000081839
     0.008506312 15.294604396 -0.007827479    -0.000036497  0.065382572  0.000033543
     0.019002391 -0.007795861 15.216420697    -0.000081997  0.000033679  0.065718597

  length of vectors
    15.262832654 15.294608764 15.216434559     0.065518882  0.065382591  0.065718657


 
 old parameters found on file WAVECAR:
  energy-cutoff  :      700.00
  volume of cell :     3550.27
      direct lattice vectors                 reciprocal lattice vectors
    15.260192032  0.008518348  0.018995467     0.065530097 -0.000036528 -0.000081682
     0.008514502 15.292178968 -0.007849032    -0.000036545  0.065392942  0.000033647
     0.018959059 -0.007817478 15.213635317    -0.000081839  0.000033783  0.065730629

  length of vectors

 
 k-points in units of 2pi/SCALE and weight: Title                                   
   0.01635008  0.01634494  0.01641758       0.250
  -0.01640933  0.01636318  0.01645849       0.250
   0.01636833 -0.01634634  0.01640080       0.250
  -0.01639108 -0.01632810  0.01644172       0.250
 
 k-points in reciprocal lattice and weights: Title                                   
   0.25000000  0.25000000  0.25000000       0.250
  -0.25000000  0.25000000  0.25000000       0.250
   0.25000000 -0.25000000  0.25000000       0.250
  -0.25000000 -0.25000000  0.25000000       0.250
 
 position of ions in fractional coordinates (direct lattice) 
   0.99701427  0.99937602  0.00819030
   0.99285202  0.99082135  0.49907049
   0.99672681  0.50579782  0.99394533
   0.00700406  0.50170584  0.49288944
   0.50616440  0.00819502  0.00259822
   0.49156036  0.00075185  0.49700895
   0.50748754  0.50875339  0.99998951
   0.50166682  0.49210609  0.50846410
   0.99945445  0.00883902  0.24470747
   0.99093510  0.99356146  0.75055786
   0.00688534  0.49707968  0.25715118
   0.99228076  0.50236556  0.75506191
   0.49289655  0.99271648  0.25122533
   0.49105294  0.99445725  0.75213624
   0.50701730  0.49357196  0.25596441
   0.50299119  0.49243136  0.74545712
   0.99464457  0.25465854  0.99235833
   0.99428351  0.24998364  0.49239539
   0.99824124  0.74209316  0.99349337
   0.00250898  0.75781720  0.49612719
   0.49223668  0.24539608  0.99960338
   0.49431574  0.25902293  0.49569488
   0.50233584  0.74588128  0.00934763
   0.49370762  0.75002548  0.50884858
   0.00214585  0.24447987  0.25638859
   0.00667860  0.25073396  0.75362488
   0.99462247  0.75321286  0.25588981
   0.99787251  0.75912288  0.75542742
   0.49109945  0.25527723  0.25307630
   0.50428831  0.25703891  0.74867137
   0.49793366  0.75591607  0.24590565
   0.50130711  0.75709618  0.74660732
   0.25453646  0.00767535  0.00405350
   0.25311885  0.00729550  0.49347249
   0.25491769  0.50503253  0.99367662
   0.24406357  0.49883325  0.49197831
   0.73943649  0.99781700  0.99611453
   0.75277693  0.99583094  0.49301714
   0.74430691  0.50871493  0.00067120
   0.75555046  0.50530681  0.49327793
   0.25922231  0.00402067  0.24197894
   0.25314895  0.00689116  0.75229568
   0.24678924  0.49285259  0.25515781
   0.24898484  0.50499843  0.75630055
   0.74672570  0.00602384  0.25627267
   0.75331713  0.99808425  0.75735468
   0.74645403  0.49634635  0.26044613
   0.75692652  0.50881696  0.75050328
   0.25643301  0.24454519  0.99594495
   0.25694618  0.24387227  0.49478791
   0.25417475  0.74442116  0.99274215
   0.25871154  0.75410828  0.49452289
   0.75536428  0.25401023  0.99379992
   0.75431741  0.25347653  0.49344665
   0.75176692  0.73998109  0.00653035
   0.74844183  0.74000834  0.50712321
   0.25720528  0.25793659  0.24863597
   0.24184000  0.24502935  0.74761614
   0.25903759  0.75027938  0.25400814
   0.25060388  0.74379843  0.75640574
   0.74653493  0.24320873  0.25645335
   0.74177801  0.25351932  0.75422593
   0.75598520  0.75022396  0.24423940
   0.74743646  0.73999228  0.74725748
   0.98222053  0.01250492  0.12300427
   0.51964153  0.49085518  0.62619018
   0.98287900  0.48699797  0.37637933
   0.98974389  0.48680572  0.87502549
   0.52084614  0.76269874  0.12482011
   0.51867216  0.75876219  0.62696644
   0.01546740  0.26486322  0.37348469
   0.01118205  0.26480812  0.87325159
   0.99336582  0.76190431  0.37676341
   0.98671389  0.76285322  0.87523188
   0.26919493  0.01599187  0.12305623
   0.26759011  0.48853261  0.37610169
   0.26127274  0.48552822  0.87485670
   0.73163119  0.98902709  0.37454224
   0.73265770  0.99154381  0.87623590
   0.76865338  0.47968656  0.37754157
   0.73607822  0.73420826  0.12509916
   0.73410981  0.73723737  0.62787335
   0.25771079  0.76095722  0.37569803
   0.26492340  0.76372309  0.87424001
   0.73344398  0.26294429  0.37469312
   0.73829201  0.26072221  0.87448925
   0.12527621  0.51403695  0.48643162
   0.62386711  0.01005313  0.02210985
   0.62677368  0.51376046  0.98552589
   0.12487451  0.49924202  0.26205464
   0.62681197  0.50128314  0.26666559
   0.12473200  0.26280604  0.73154506
   0.62287726  0.26162095  0.73467907
   0.37607751  0.98790901  0.48194064
   0.87345362  0.98832860  0.48844614
   0.37406087  0.00207325  0.27096625
   0.37320584  0.00991451  0.76416743
   0.87330557  0.01089113  0.76292955
   0.87472626  0.51823536  0.73736436
   0.37447876  0.26279054  0.98451489
   0.37471309  0.26022014  0.47728158
   0.37656384  0.76808237  0.51477257
   0.87524922  0.26299198  0.99250774
   0.87439167  0.26035116  0.48812681
   0.37407433  0.24182142  0.26993212
   0.37623311  0.75443954  0.23759832
   0.87561732  0.75768285  0.23890027
   0.98341241  0.62499881  0.99152044
   0.48643410  0.12539163  0.01402081
   0.48840837  0.62541907  0.01305532
   0.99244988  0.12413748  0.26477078
   0.01354529  0.87517958  0.51729203
   0.51365611  0.37493772  0.48418255
   0.98496098  0.87528050  0.73342612
   0.49905343  0.37333999  0.26889225
   0.48671501  0.37505991  0.76124132
   0.50690570  0.87781039  0.26637269
   0.48943213  0.87535249  0.76174692
   0.25837190  0.12480364  0.97944751
   0.25801679  0.12440745  0.48081394
   0.26596016  0.62544469  0.99139637
   0.77095851  0.62426349  0.98518436
   0.76750101  0.62376231  0.48871149
   0.23650765  0.12555112  0.76047280
   0.23632053  0.62481415  0.75967827
   0.75693858  0.12430417  0.25888595
   0.73360526  0.62397219  0.77055515
   0.25408994  0.37288085  0.23327346
   0.98962448  0.02144039  0.62420317
   0.00907660  0.51067261  0.12474934
   0.01335188  0.51311343  0.62595884
   0.47492214  0.98195050  0.12403129
   0.48487235  0.98608570  0.62255997
   0.51509052  0.48448576  0.12650130
   0.01629470  0.98340517  0.37285015
   0.01485474  0.98667359  0.87652741
   0.52150845  0.02182384  0.37505542
   0.51957625  0.01708214  0.87500121
   0.48255164  0.51632087  0.37923863
   0.48260268  0.51055853  0.87517193
   0.99113193  0.23497786  0.12395425
   0.98843807  0.23337796  0.62296097
   0.01344887  0.74274855  0.12395645
   0.00984316  0.73322256  0.62674986
   0.48464965  0.26810670  0.12569842
   0.47797328  0.26032305  0.62251589
   0.52213536  0.22580470  0.37478995
   0.51592183  0.23327348  0.87434224
   0.49048318  0.73777544  0.37794717
   0.48229413  0.74056417  0.87637670
   0.26131883  0.01108053  0.62181864
   0.24202510  0.51093122  0.12403313
   0.24125139  0.50658519  0.62481261
   0.77102260  0.00386423  0.12462965
   0.75691072  0.00636280  0.62491864
   0.73956663  0.51680093  0.12748869
   0.72985661  0.51182517  0.62591963
   0.22831841  0.98347951  0.37175791
   0.23069884  0.98252689  0.87511193
   0.76759417  0.47867521  0.87645213
   0.26492843  0.22860849  0.12382893
   0.27050524  0.23688151  0.62173678
   0.23711057  0.74378091  0.12362936
   0.23726690  0.74389495  0.62509335
   0.75810223  0.24038878  0.12491684
   0.76039993  0.23950954  0.62414971
   0.22448494  0.26699628  0.37341122
   0.23217770  0.27093228  0.87319506
   0.76175699  0.76499464  0.37761824
   0.76987768  0.76517809  0.87612135
   0.12374016  0.01098632  0.01307012
   0.12424303  0.01258742  0.51030244
   0.12541916  0.51139555  0.99156799
   0.62159977  0.01010622  0.51512090
   0.62617275  0.51505559  0.48274583
   0.12490895  0.00561099  0.23259767
   0.12298117  0.98921767  0.73568047
   0.12379798  0.48176029  0.75631169
   0.62333464  0.00695734  0.22650751
   0.62291915  0.99151015  0.73471152
   0.62726689  0.48388487  0.77166480
   0.12516705  0.23913211  0.01194394
   0.12596157  0.24041279  0.51456454
   0.12555358  0.74000557  0.98677223
   0.12667292  0.73198888  0.49492506
   0.62398125  0.24092535  0.01321726
   0.62239419  0.23828430  0.51627417
   0.62726316  0.73888408  0.97658439
   0.62425366  0.73487385  0.48413280
   0.12617262  0.24554298  0.23055202
   0.12516727  0.74626782  0.25594065
   0.12467571  0.76693709  0.76007477
   0.62231071  0.24643525  0.23263299
   0.62797697  0.74228155  0.26905546
   0.62589205  0.76527072  0.77616144
   0.37677165  0.98516819  0.97669911
   0.37827345  0.48222814  0.01465403
   0.37583130  0.48647272  0.51878469
   0.87485761  0.98662410  0.98305216
   0.87403633  0.48081461  0.01576634
   0.87619451  0.48428041  0.52472275
   0.37824240  0.50389181  0.23521820
   0.37674704  0.51594044  0.73537919
   0.87498425  0.98541859  0.26665996
   0.87479496  0.49641742  0.23363348
   0.37644645  0.76958267  0.01854824
   0.87616464  0.77015038  0.01906505
   0.87437819  0.76531376  0.51653007
   0.37392748  0.23860014  0.76534961
   0.37607355  0.73463757  0.73221350
   0.87449748  0.25956874  0.25866304
   0.87421242  0.23944097  0.75595824
   0.87482115  0.72960428  0.73701693
   0.99112721  0.12369878  0.98259634
   0.99395756  0.12315627  0.48166995
   0.98084034  0.62627362  0.49323599
   0.48822753  0.12485903  0.51442508
   0.48704868  0.62352402  0.51156419
   0.01264673  0.12379589  0.76316159
   0.99496804  0.62524784  0.25781945
   0.01877610  0.62648570  0.76280194
   0.50117239  0.12456527  0.23157810
   0.50637160  0.12487182  0.73398292
   0.50143399  0.62400643  0.24063591
   0.51641017  0.62488978  0.74876904
   0.01549613  0.37673646  0.01710379
   0.01272031  0.37484187  0.51794726
   0.01350257  0.87548914  0.01208475
   0.51317641  0.37470099  0.98748672
   0.51135091  0.87669046  0.98503612
   0.51774457  0.87667602  0.48431508
   0.00143008  0.37242224  0.23072790
   0.98368382  0.37571481  0.73102645
   0.00948685  0.87773616  0.23617993
   0.26858750  0.62556491  0.49630973
   0.76167963  0.12448186  0.99382319
   0.75457850  0.12461626  0.49167005
   0.24072432  0.12599803  0.26895157
   0.25287426  0.62452827  0.25642667
   0.73635294  0.12513952  0.75508858
   0.75917895  0.62407715  0.26941875
   0.23759095  0.37370715  0.01589797
   0.23785779  0.37265258  0.51328892
   0.23870197  0.87702211  0.01122506
   0.23250037  0.87781208  0.51136976
   0.73695513  0.37733419  0.01677275
   0.73405167  0.37665818  0.51894769
   0.73894407  0.87230025  0.01107617
   0.73360900  0.87222900  0.51242178
   0.26562843  0.37436314  0.73458562
   0.24237172  0.87751523  0.23586377
   0.25911508  0.87547104  0.73548253
   0.74726771  0.37318673  0.23084773
   0.76279487  0.37738296  0.73484373
   0.73914543  0.87564463  0.23688873
   0.76105318  0.87233784  0.74070397
 
 position of ions in cartesian coordinates  (Angst):
  15.22590435 15.29348178  0.13578679
  15.17163179 15.15877912  7.60521388
  15.23605009  7.73671120 15.13930796
   0.12053542  7.66960945  7.49621931
   7.72561440  0.12962683  0.04910839
   7.51204733  0.01180794  7.57205028
   7.76901994  7.77770478 15.22194087
   7.67069757  7.52687327  7.74270304
  15.25921699  0.14178710  3.74253135
  15.14717636 15.19871126 11.43189363
   0.11420450  7.60069092  3.90916080
  15.16362238  7.68604058 11.50429960
   7.53620872 15.18544192  3.82436411
   7.51760336 15.20814557 11.44638656
   7.74757533  7.55130712  3.90065186
   7.69541741  7.53001189 11.34891112
  15.20210290  3.89562983 15.11708559
  15.18705184  3.82802376  7.50946901
  15.26116593 11.35077127 15.13061002
   0.05416796 11.58666791  7.54339600
   7.53400137  3.74963221 15.21783653
   7.55627416  3.96199563  7.55008568
   7.67358305 11.41216118  0.14596308
   7.55141911 11.47157763  7.74638297
   0.03970332  3.73724239  3.89944382
   0.11838781  3.82905839 11.46563782
  15.19201166 11.52656214  3.90676802
  15.25115919 11.61308689 11.50795807
   7.50254225  3.90657055  3.85826734
   7.71327393  3.92976341 11.39968771
   7.61097395 11.56375773  3.74536718
   7.67198681 11.57793237 11.36430930
   3.88508608  0.11952601  0.06646584
   3.87274620  0.10988886  7.51364712
   3.91394063  7.71869564 15.12110182
   3.73868990  7.62769879  7.48689107
  11.31330114 15.25974333 15.16356556
  11.50733692 15.23340299  7.50849358
  11.36456129  7.78692251  0.02040233
  11.54550128  7.73105204  7.51635429
   3.96109545  0.06181408  3.68695724
   3.87812049  0.10168716 11.45201337
   3.77574027  7.53809638  3.88342952
   3.81887753  7.71997414 11.50897489
  11.40205977  0.09648909  3.91372256
  11.52062412 15.26581029 11.53075751
  11.40216348  7.59574302  3.97338465
  11.57142151  7.78274483 11.43040211
   3.93489597  3.73463992 15.15768539
   3.93319954  3.72825928  7.53188410
   3.90461988 11.38005097 15.10499458
   3.96447902 11.53213431  7.52389128
  11.55003316  3.88366672 15.13447094
  11.52454251  3.87939580  7.52086927
  11.48050066 11.32406479  0.10788939
  11.43926308 11.32055064  7.72505732
   3.93259630  3.94528855  3.78622743
   3.70745087  3.74385669 11.37872817
   3.96485252 11.47545047  3.86415381
   3.84562203 11.37233855 11.50873724
  11.40116914  3.72413512  3.91461171
  11.33811167  3.87791046 11.48875743
  11.54948756 11.47890808  3.72497043
  11.42848119 11.31842446 11.37902240
  14.99389727  0.19865771  1.89028743
   7.94726874  7.50697635  9.53442460
  15.01279832  7.45387150  5.74204738
  15.12704974  7.44710224 13.32978931
   7.95843969 11.66863492  1.90326174
   7.93476714 11.60449369  9.54412094
   0.24542622  4.04819810  5.68132149
   0.18951594  4.04342283 13.28590372
  15.17520248 11.65854151  5.74593954
  15.08315549 11.66911210 13.33071143
   4.11114776  0.24592085  1.87747546
   4.09548170  7.47125817  5.72419227
   4.00851283  7.42136522 13.31336150
  11.18228418 15.13008449  5.70538039
  11.20750645 15.16467437 13.33936190
  11.74307148  7.34021423  5.75571112
  11.24325086 11.23471376  1.91182873
  11.22278701 11.27710641  9.56219107
   3.94700503 11.63780388  5.71572956
   4.06658681 11.67628163 13.30186972
  11.20377897  4.02494961  5.71339404
  11.28725199  3.98710865 13.31861195
   1.92568395  7.85926582  7.40010973
   9.52247614  0.15889539  0.34823199
   9.58943034  7.85541381 15.00408834
   1.91516341  7.63472898  3.98600337
   9.57624863  7.67018263  4.06570602
   1.91989849  4.01487292 11.13181510
   9.52304861  4.00096217 11.18899701
   5.75756423 15.10912075  7.33283889
  13.34905263 15.11972032  7.44129569
   5.71438983  0.03278039  4.13024204
   5.71077825  0.14885714 11.63492095
  13.34369446  0.16805969 11.62559871
  13.36920798  7.92790039 11.23264380
   5.73654485  4.01478912 14.98586554
   5.73046081  3.97943219  7.26761459
   5.76374104 11.74670755  7.83415335
  13.37986702  4.02206931 15.11702068
  13.35717153  3.98560379  7.44215268
   5.71661490  3.69964202  4.11262987
   5.75330999 11.54020379  3.61665373
  13.37537297 11.59404856  3.64594733
  15.03380271  9.55974876 15.10122329
   7.42568839  1.92184573  0.22162634
   7.46005628  9.56959185  0.20305870
  15.15366957  1.90501547  4.04678730
   0.22401369 13.38160803  7.86474055
   7.85222996  5.73512081  7.37437011
  15.05466277 13.38973341 11.17202195
   7.62524726  5.71223819  4.09815687
   7.44629856  5.73460045 11.58969898
   7.74933835 13.42799984  4.05601892
   7.49203471 13.38639669 11.59352823
   3.96315679  1.90338547 14.90762764
   3.94825834  1.90121015  7.32020587
   4.08346073  9.56046364 15.08567224
  11.79103077  9.54674375 15.00077169
  11.72882112  9.54291930  7.44616971
   3.62529204  1.91633883 11.57519419
   3.62666784  9.55237400 11.55919272
  11.55899298  1.90560650  3.95275601
  11.21683391  9.54364375 11.73417434
   3.88573319  5.70340882  3.55150598
  15.11650241  0.33147789  9.51681180
   0.14524895  7.80964027  1.89441394
   0.22004670  7.84310073  9.52109084
   7.25936001 15.02161912  1.88866814
   7.42073671 15.08106369  9.47464733
   7.86825801  7.41341528  1.93091156
   0.26415320 15.03802503  5.66605740
   0.25177428 15.08407531 13.33016949
   7.96700128  0.33530123  5.71675937
   7.94697043  0.25886486 13.32414502
   7.37669649  7.89807355  5.77580047
   7.38685038  7.80607507 13.32217629
  15.13182090  3.60136173  1.90317109
  15.10017374  3.57297878  9.49622849
   0.21394112 11.35919339  1.88061577
   0.16838115 11.20954668  9.53133771
   7.40178879  4.10373045  1.91980878
   7.30926303  3.98075269  9.47952617
   7.97829984  3.45511518  5.71113512
   7.89302010  3.56539985 13.31235611
   7.49961336 11.28521118  5.75456658
   7.38412049 11.32390835 13.33870231
   4.00037218  0.16684855  9.46674254
   3.70068829  7.81558356  1.88794895
   3.69835832  7.74520226  9.50803944
  11.77037902  0.06469180  1.91106655
  11.56451990  0.09888615  9.52338602
  11.29468987  7.90956576  1.94995700
  11.15591659  7.82949503  9.53414597
   3.50021249 15.04097481  5.65347362
   3.54610139 15.02250108 13.31277290
  11.73637693  7.32084754 13.34733186
   4.04785218  3.49776570  1.88748764
   4.14250182  3.62046410  9.46390436
   3.62765162 11.37688875  1.87988884
   3.63956771 11.37472496  9.51037795
  11.57519514  3.68212898  1.91333920
  11.61974367  3.66480893  9.50992714
   3.43563972  4.08260175  5.68416630
   3.56258348  4.13897062 13.28920306
  11.64024149 11.70382917  5.75451319
  11.77366050 11.70281786 13.34009941
   1.88896543  0.16898255  0.20115036
   1.90610284  0.18959869  7.76724352
   1.93744218  7.81492977 15.08650068
   9.49723884  0.15584476  7.85005196
   9.57071558  7.87913688  7.35355378
   1.91093033  0.08506750  3.54163829
   1.89943360 15.12500421 11.18902194
   1.90797587  7.36349043 11.50694289
   9.51820681  0.10994865  3.45844686
   9.52989720 15.16432884 11.18377834
   9.59264021  7.40015005 11.75013124
   1.91266308  3.65840316  0.18225524
   1.93435153  3.67407900  7.83034696
   1.94134730 11.31146819 15.01173938
   1.94901703 11.19269993  7.52767011
   9.52601304  3.69006498  0.21111358
   9.51132688  3.64573588  7.86582961
   9.59864629 11.29866439 14.86627790
   9.54332107 11.24114312  7.37290142
   1.93221954  3.75475913  3.50865682
   1.92161676 11.41294101  3.89104226
   1.92386971 11.72513493 11.56198802
   9.50473227  3.77261200  3.54976076
   9.59612517 11.35614926  4.10020700
   9.57413523 11.70378846 11.81632534
   5.77753704 15.06334992 14.86132655
   5.77789935  7.37859354  0.22640933
   5.75024108  7.43956187  7.89739370
  13.37986565 15.08980670 14.96746905
  13.34464740  7.36118442  0.25278452
  13.38728806  7.41024317  7.99729346
   5.78180107  7.70821099  3.58243622
   5.76858438  7.88857813 11.19297350
  13.36817521 15.07695483  4.06655578
  13.36049888  7.59813122  3.56783500
   5.75253262 11.77352142  0.28338107
  13.37965515 11.78645301  0.30075497
  13.36180076 11.70858545  7.87039582
   5.72376033  3.64651031 11.65113330
   5.76010517 11.23348328 11.14307844
  13.35441937  3.97542683  3.95054355
  13.35934721  3.66370127 11.51774858
  13.37244763 11.16070794 11.22570459
  15.14711852  1.89269826 14.96950118
  15.18079427  1.88833002  7.34725275
  14.98508796  9.58310909  7.51905861
   7.46256553  1.90981391  7.83602651
   7.44876036  9.53670993  7.78856827
   0.20857967  1.88756735 11.61185959
  15.19623421  9.56937568  3.93713846
   0.30640033  9.57606398 11.60256894
   7.65476323  1.90763619  3.53235668
   7.74366733  1.90845232 11.17725630
   7.66317662  9.54632282  3.66627972
   7.90141862  9.55599944 11.39852544
   0.24004428  5.76203368  0.25760455
   0.20717849  5.72912845  7.87861158
   0.21376402 13.39028068  0.17729089
   7.85447036  5.72757230 15.03285088
   7.83083149 13.40530628 14.99159737
   7.91890174 13.40904339  7.37253719
   0.02937941  5.69426427  3.50796496
  15.03087467  5.74908169 11.13939360
   0.15675038 13.42286691  3.58712335
   4.11415458  9.56618439  7.55227471
  11.64532178  1.90263507 15.13595908
  11.52739760  1.90854500  7.49484942
   3.68031404  1.92704188  4.09607718
   3.86975900  9.55206574  3.90182214
  11.25423424  1.91433929 11.50278545
  11.59763871  9.54937343  4.10915825
   3.62978847  5.71760107  0.24350848
   3.64330383  5.69759652  7.81203175
   3.65093828 13.41565009  0.16848503
   3.56579515 13.42378053  7.77877301
  11.25154075  5.77731792  0.26629864
  11.21676252  5.76303901  7.90755383
  11.28599971 13.34768933  0.17578061
  11.21409767 13.34264588  7.80436538
   4.07138176  5.72226997 11.17989081
   3.71122193 13.42147211  3.58674819
   3.97624943 13.38645467 11.18949215
  11.41297247  5.71230311  3.52398240
  11.65957356  5.77268584 11.19326031
  11.29339238 13.39708162  3.61181714
  11.63731201 13.34276442 11.27852473
 


--------------------------------------------------------------------------------------------------------


 k-point  1 :   0.2500 0.2500 0.2500  plane waves:  149375
 k-point  2 :  -0.2500 0.2500 0.2500  plane waves:  149380
 k-point  3 :   0.2500-0.2500 0.2500  plane waves:  149376
 k-point  4 :  -0.2500-0.2500 0.2500  plane waves:  149398

 maximum and minimum number of plane-waves per node :     18716    18607

 maximum number of plane-waves:    149398
 maximum index in each direction: 
   IXMAX=   33   IYMAX=   33   IZMAX=   32
   IXMIN=  -33   IYMIN=  -33   IZMIN=  -33


 real space projection operators:
  total allocation   :     154133.66 KBytes
  max/ min on nodes  :      20417.95      18100.00


 parallel 3D FFT for wavefunctions:
    minimum data exchange during FFTs selected (reduces bandwidth)
 parallel 3D FFT for charge:
    minimum data exchange during FFTs selected (reduces bandwidth)


 total amount of memory used by VASP MPI-rank0   385315. kBytes
=======================================================================

   base      :      30000. kBytes
   nonlr-proj:      71665. kBytes
   fftplans  :      38727. kBytes
   grid      :      49123. kBytes
   one-center:        995. kBytes
   wavefun   :     194805. kBytes
 
     INWAV:  cpu time  117.3222: real time  186.6944
 Broyden mixing: mesh for mixing (old mesh)
   NGX = 65   NGY = 65   NGZ = 65
  (NGX  =280   NGY  =280   NGZ  =280)
  gives a total of 274625 points

 charge density for first step will be calculated from the start-wavefunctions


--------------------------------------------------------------------------------------------------------


 Maximum index for non-local projection operator         1635
 Maximum index for augmentation-charges         4577 (set IRDMAX)


--------------------------------------------------------------------------------------------------------


 initial charge from wavefunction
 First call to EWALD:  gamma=   0.116
 Maximum number of real-space cells 3x 3x 3
 Maximum number of reciprocal cells 3x 3x 3

    FEWALD:  cpu time    0.0230: real time    0.0227


--------------------------------------- Iteration      1(   1)  ---------------------------------------


    POTLOK:  cpu time    0.7159: real time    0.7419
    SETDIJ:  cpu time    2.3976: real time    2.3949
     EDDAV:  cpu time  181.2095: real time  180.4808
       DOS:  cpu time    0.0070: real time    0.0065
    CHARGE:  cpu time    8.3797: real time    8.3758
    MIXING:  cpu time    0.0850: real time    0.0855
    --------------------------------------------
      LOOP:  cpu time  192.7947: real time  192.0854

 eigenvalue-minimisations  : 20544
 total energy-change (2. order) :-0.1709308E+04  (-0.4939299E-02)
 number of electron    1920.0000026 magnetization       0.0000000
 augmentation part      495.5317779 magnetization      -0.0000001

 Broyden mixing:
  rms(total) = 0.12082E-02    rms(broyden)= 0.12037E-02
  rms(prec ) = 0.14619E-02
  weight for this iteration     100.00

 Free energy of the ion-electron system (eV)
  ---------------------------------------------------
  alpha Z        PSCENC =      6309.13050514
  Ewald energy   TEWEN  =   -106024.09349193
  -Hartree energ DENC   =    -63021.72222853
  -exchange      EXHF   =         0.00000000
  -V(xc)+E(xc)   XCENC  =      8959.47243598
  PAW double counting   =    144162.17169668  -145149.93017537
  entropy T*S    EENTRO =        -0.00000000
  eigenvalues    EBANDS =    -25363.16258980
  atomic energy  EATOM  =    178418.82573015
  Solvation  Ediel_sol  =         0.00000000
  ---------------------------------------------------
  free energy    TOTEN  =     -1709.30811767 eV

  energy without entropy =    -1709.30811767  energy(sigma->0) =    -1709.30811767


--------------------------------------------------------------------------------------------------------




--------------------------------------- Iteration      1(   2)  ---------------------------------------


    POTLOK:  cpu time    0.6859: real time    0.6874
    SETDIJ:  cpu time    2.3916: real time    2.3883
     EDDAV:  cpu time  215.4143: real time  214.7757
       DOS:  cpu time    0.0030: real time    0.0031
    CHARGE:  cpu time    8.3837: real time    8.4005
    MIXING:  cpu time    0.0120: real time    0.0112
    --------------------------------------------
      LOOP:  cpu time  226.8905: real time  226.2663

 eigenvalue-minimisations  : 25968
 total energy-change (2. order) : 0.2119603E-05  (-0.1275575E-05)
 number of electron    1920.0000026 magnetization       0.0000000
 augmentation part      495.5284575 magnetization       0.0000001

 Broyden mixing:
  rms(total) = 0.78512E-03    rms(broyden)= 0.78088E-03
  rms(prec ) = 0.93099E-03
  weight for this iteration     100.00

 eigenvalues of (default mixing * dielectric matrix)
  average eigenvalue GAMMA=   0.6090
  0.6090

 Free energy of the ion-electron system (eV)
  ---------------------------------------------------
  alpha Z        PSCENC =      6309.13050514
  Ewald energy   TEWEN  =   -106024.09349193
  -Hartree energ DENC   =    -63021.75387646
  -exchange      EXHF   =         0.00000000
  -V(xc)+E(xc)   XCENC  =      8959.47002969
  PAW double counting   =    144162.32105116  -145150.06782809
  entropy T*S    EENTRO =        -0.00000000
  eigenvalues    EBANDS =    -25363.14023522
  atomic energy  EATOM  =    178418.82573015
  Solvation  Ediel_sol  =         0.00000000
  ---------------------------------------------------
  free energy    TOTEN  =     -1709.30811555 eV

  energy without entropy =    -1709.30811555  energy(sigma->0) =    -1709.30811555


--------------------------------------------------------------------------------------------------------




--------------------------------------- Iteration      1(   3)  ---------------------------------------


    POTLOK:  cpu time    0.6349: real time    0.7143
    SETDIJ:  cpu time    2.3906: real time    2.3993
     EDDAV:  cpu time  136.0303: real time  138.9857
       DOS:  cpu time    0.0060: real time    0.0057
    --------------------------------------------
      LOOP:  cpu time  139.0619: real time  142.1050

 eigenvalue-minimisations  : 14272
 total energy-change (2. order) : 0.9764335E-06  (-0.1732382E-06)
 number of electron    1920.0000026 magnetization       0.0000000
 augmentation part      495.5284575 magnetization       0.0000001

 Free energy of the ion-electron system (eV)
  ---------------------------------------------------
  alpha Z        PSCENC =      6309.13050514
  Ewald energy   TEWEN  =   -106024.09349193
  -Hartree energ DENC   =    -63021.74484977
  -exchange      EXHF   =         0.00000000
  -V(xc)+E(xc)   XCENC  =      8959.47152867
  PAW double counting   =    144162.28494647  -145150.03543687
  entropy T*S    EENTRO =        -0.00000000
  eigenvalues    EBANDS =    -25363.14704644
  atomic energy  EATOM  =    178418.82573015
  Solvation  Ediel_sol  =         0.00000000
  ---------------------------------------------------
  free energy    TOTEN  =     -1709.30811458 eV

  energy without entropy =    -1709.30811458  energy(sigma->0) =    -1709.30811458


--------------------------------------------------------------------------------------------------------




 average (electrostatic) potential at core
  the test charge radii are     1.0397  0.7215  0.7167
  (the norm of the test charge is              1.0000)
       1 -59.2654       2 -58.6612       3 -58.6858       4 -58.4904       5 -58.6879
       6 -59.3040       7 -58.5815       8 -58.7243       9 -58.8661      10 -58.6556
      11 -58.4094      12 -58.6675      13 -58.5173      14 -58.6207      15 -58.6277
      16 -58.6619      17 -58.5974      18 -58.7032      19 -58.6733      20 -58.6134
      21 -58.7256      22 -58.7561      23 -58.4779      24 -58.6042      25 -58.7164
      26 -58.5892      27 -58.6039      28 -58.6593      29 -58.6003      30 -58.5951
      31 -58.2616      32 -58.6225      33 -58.6853      34 -58.9506      35 -58.5949
      36 -58.4331      37 -58.6458      38 -58.6997      39 -58.6213      40 -58.6230
      41 -58.6006      42 -58.6401      43 -58.2038      44 -58.5784      45 -58.6552
      46 -58.6769      47 -58.5782      48 -58.6331      49 -58.6920      50 -58.8301
      51 -58.5803      52 -58.5519      53 -58.6129      54 -58.6624      55 -58.6046
      56 -58.6937      57 -58.4494      58 -58.5744      59 -58.4348      60 -58.5732
      61 -58.6308      62 -58.5986      63 -58.6108      64 -58.6563      65 -74.3662
      66 -74.0230      67 -73.6909      68 -73.8419      69 -73.6823      70 -73.8081
      71 -73.8869      72 -73.7982      73 -73.8468      74 -73.8948      75 -74.0293
      76 -73.6225      77 -73.7302      78 -73.8884      79 -73.8790      80 -73.9727
      81 -73.8410      82 -73.8700      83 -73.7371      84 -73.7701      85 -73.8407
      86 -73.8022      87 -73.8454      88 -74.0636      89 -73.9593      90 -73.6189
      91 -73.7765      92 -73.7897      93 -73.8052      94 -74.2395      95 -73.9191
      96 -73.9929      97 -73.8455      98 -73.8724      99 -73.9985     100 -73.8898
     101 -73.9659     102 -73.9287     103 -73.8151     104 -73.8570     105 -73.9477
     106 -73.6325     107 -73.7806     108 -74.0536     109 -73.8874     110 -73.7824
     111 -74.1363     112 -73.9784     113 -74.1153     114 -74.0025     115 -73.8080
     116 -73.8526     117 -73.7320     118 -73.8604     119 -73.8541     120 -74.1622
     121 -73.7671     122 -73.9872     123 -73.9967     124 -73.7807     125 -73.7524
     126 -73.9898     127 -74.0070     128 -73.8364     129 -79.0802     130 -78.2594
     131 -78.2890     132 -79.2659     133 -79.4094     134 -78.9523     135 -78.9989
     136 -78.9385     137 -79.4246     138 -79.2654     139 -78.8087     140 -78.8388
     141 -78.2932     142 -78.3497     143 -78.3708     144 -78.4047     145 -79.2509
     146 -79.2647     147 -79.3006     148 -79.2149     149 -78.2363     150 -78.2241
     151 -79.0924     152 -78.2115     153 -78.2179     154 -78.4158     155 -78.3648
     156 -78.7911     157 -78.8262     158 -78.9571     159 -78.8432     160 -79.0065
     161 -79.2024     162 -79.2416     163 -78.2856     164 -78.2880     165 -78.3293
     166 -78.3447     167 -79.2495     168 -79.1700     169 -78.2664     170 -78.3215
     171 -79.2085     172 -78.5224     173 -78.9384     174 -78.4436     175 -79.0115
     176 -78.9280     177 -78.3333     178 -78.7473     179 -78.8838     180 -78.3195
     181 -78.8168     182 -78.3513     183 -78.3155     184 -79.1984     185 -78.7766
     186 -78.3035     187 -78.3663     188 -79.1465     189 -78.8228     190 -78.8973
     191 -78.1895     192 -79.1905     193 -78.8489     194 -78.2500     195 -79.2069
     196 -78.8851     197 -78.7780     198 -78.7660     199 -79.0845     200 -78.8109
     201 -78.7757     202 -78.1784     203 -78.9374     204 -79.1225     205 -78.1990
     206 -79.1118     207 -79.2158     208 -78.9831     209 -78.2559     210 -79.1629
     211 -79.0315     212 -78.2303     213 -79.2457     214 -79.1992     215 -78.7844
     216 -78.7597     217 -79.0593     218 -78.8894     219 -78.7585     220 -78.9492
     221 -78.7387     222 -78.2461     223 -78.3243     224 -78.2166     225 -78.3008
     226 -78.8641     227 -78.9397     228 -79.0470     229 -78.2492     230 -78.2812
     231 -79.2154     232 -78.8219     233 -78.9209     234 -78.8504     235 -78.9272
     236 -78.9863     237 -78.9634     238 -78.7999     239 -78.6906     240 -78.9595
     241 -78.9566     242 -78.2273     243 -78.8096     244 -78.2210     245 -78.8453
     246 -78.8151     247 -78.8386     248 -78.8505     249 -78.8075     250 -78.2184
     251 -78.9566     252 -78.1740     253 -78.8044     254 -78.8253     255 -78.8141
     256 -78.8212
 
 
 
 E-fermi :  -0.4603     XC(G=0):  -9.2519     alpha+bet : -7.9583


 spin component 1

 k-point     1 :       0.2500    0.2500    0.2500
  band No.  band energies     occupation 
      1     -35.2961      1.00000
      2     -35.2549      1.00000
      3     -35.2343      1.00000
      4     -35.2174      1.00000
      5     -35.0875      1.00000
      6     -35.0633      1.00000
      7     -34.9362      1.00000
      8     -34.8679      1.00000
      9     -34.8554      1.00000
     10     -34.8113      1.00000
     11     -34.7980      1.00000
     12     -34.7752      1.00000
     13     -34.7630      1.00000
     14     -34.7627      1.00000
     15     -34.7369      1.00000
     16     -34.7364      1.00000
     17     -34.7295      1.00000
     18     -34.7273      1.00000
     19     -34.7213      1.00000
     20     -34.7197      1.00000
     21     -34.7189      1.00000
     22     -34.6973      1.00000
     23     -34.6950      1.00000
     24     -34.6914      1.00000
     25     -34.6864      1.00000
     26     -34.6812      1.00000
     27     -34.6812      1.00000
     28     -34.6763      1.00000
     29     -34.6749      1.00000
     30     -34.6726      1.00000
     31     -34.6687      1.00000
     32     -34.6587      1.00000
     33     -34.6573      1.00000
     34     -34.6541      1.00000
     35     -34.6539      1.00000
     36     -34.6525      1.00000
     37     -34.6506      1.00000
     38     -34.6497      1.00000
     39     -34.6451      1.00000
     40     -34.6422      1.00000
     41     -34.6389      1.00000
     42     -34.6382      1.00000
     43     -34.6334      1.00000
     44     -34.6294      1.00000
     45     -34.6294      1.00000
     46     -34.6243      1.00000
     47     -34.6242      1.00000
     48     -34.6205      1.00000
     49     -34.6192      1.00000
     50     -34.6151      1.00000
     51     -34.6112      1.00000
     52     -34.6074      1.00000
     53     -34.6064      1.00000
     54     -34.6049      1.00000
     55     -34.6046      1.00000
     56     -34.6013      1.00000
     57     -34.5993      1.00000
     58     -34.5976      1.00000
     59     -34.5952      1.00000
     60     -34.5932      1.00000
     61     -34.5906      1.00000
     62     -34.5896      1.00000
     63     -34.5891      1.00000
     64     -34.5869      1.00000
     65     -34.5843      1.00000
     66     -34.5838      1.00000
     67     -34.5815      1.00000
     68     -34.5803      1.00000
     69     -34.5781      1.00000
     70     -34.5769      1.00000
     71     -34.5739      1.00000
     72     -34.5739      1.00000
     73     -34.5719      1.00000
     74     -34.5676      1.00000
     75     -34.5662      1.00000
     76     -34.5643      1.00000
     77     -34.5638      1.00000
     78     -34.5623      1.00000
     79     -34.5610      1.00000
     80     -34.5606      1.00000
     81     -34.5604      1.00000
     82     -34.5557      1.00000
     83     -34.5490      1.00000
     84     -34.5478      1.00000
     85     -34.5462      1.00000
     86     -34.5450      1.00000
     87     -34.5395      1.00000
     88     -34.5391      1.00000
     89     -34.5389      1.00000
     90     -34.5379      1.00000
     91     -34.5369      1.00000
     92     -34.5354      1.00000
     93     -34.5311      1.00000
     94     -34.5263      1.00000
     95     -34.5240      1.00000
     96     -34.5234      1.00000
     97     -34.5192      1.00000
     98     -34.5185      1.00000
     99     -34.5182      1.00000
    100     -34.5170      1.00000
    101     -34.5102      1.00000
    102     -34.5097      1.00000
    103     -34.5094      1.00000
    104     -34.5059      1.00000
    105     -34.5049      1.00000
    106     -34.5039      1.00000
    107     -34.5029      1.00000
    108     -34.5014      1.00000
    109     -34.4989      1.00000
    110     -34.4966      1.00000
    111     -34.4955      1.00000
    112     -34.4933      1.00000
    113     -34.4904      1.00000
    114     -34.4900      1.00000
    115     -34.4895      1.00000
    116     -34.4886      1.00000
    117     -34.4862      1.00000
    118     -34.4853      1.00000
    119     -34.4842      1.00000
    120     -34.4798      1.00000
    121     -34.4796      1.00000
    122     -34.4786      1.00000
    123     -34.4764      1.00000
    124     -34.4754      1.00000
    125     -34.4739      1.00000
    126     -34.4722      1.00000
    127     -34.4715      1.00000
    128     -34.4709      1.00000
    129     -34.4691      1.00000
    130     -34.4685      1.00000
    131     -34.4678      1.00000
    132     -34.4651      1.00000
    133     -34.4644      1.00000
    134     -34.4631      1.00000
    135     -34.4589      1.00000
    136     -34.4588      1.00000
    137     -34.4562      1.00000
    138     -34.4559      1.00000
    139     -34.4550      1.00000
    140     -34.4514      1.00000
    141     -34.4463      1.00000
    142     -34.4438      1.00000
    143     -34.4426      1.00000
    144     -34.4421      1.00000
    145     -34.4402      1.00000
    146     -34.4389      1.00000
    147     -34.4377      1.00000
    148     -34.4374      1.00000
    149     -34.4348      1.00000
    150     -34.4303      1.00000
    151     -34.4265      1.00000
    152     -34.4247      1.00000
    153     -34.4234      1.00000
    154     -34.4197      1.00000
    155     -34.4188      1.00000
    156     -34.4175      1.00000
    157     -34.4140      1.00000
    158     -34.4121      1.00000
    159     -34.4100      1.00000
    160     -34.4089      1.00000
    161     -34.4069      1.00000
    162     -34.4041      1.00000
    163     -34.3988      1.00000
    164     -34.3975      1.00000
    165     -34.3942      1.00000
    166     -34.3915      1.00000
    167     -34.3913      1.00000
    168     -34.3883      1.00000
    169     -34.3869      1.00000
    170     -34.3830      1.00000
    171     -34.3748      1.00000
    172     -34.3703      1.00000
    173     -34.3698      1.00000
    174     -34.3632      1.00000
    175     -34.3575      1.00000
    176     -34.3512      1.00000
    177     -34.3395      1.00000
    178     -34.3358      1.00000
    179     -34.3314      1.00000
    180     -34.3125      1.00000
    181     -34.3074      1.00000
    182     -34.2893      1.00000
    183     -34.2654      1.00000
    184     -34.2634      1.00000
    185     -34.2623      1.00000
    186     -34.2333      1.00000
    187     -34.1454      1.00000
    188     -34.1286      1.00000
    189     -34.1172      1.00000
    190     -34.1036      1.00000
    191     -34.0735      1.00000
    192     -34.0569      1.00000
    193     -23.2798      1.00000
    194     -23.1503      1.00000
    195     -23.1145      1.00000
    196     -23.1093      1.00000
    197     -23.0939      1.00000
    198     -23.0808      1.00000
    199     -23.0397      1.00000
    200     -23.0098      1.00000
    201     -22.9689      1.00000
    202     -22.9582      1.00000
    203     -22.9559      1.00000
    204     -22.9500      1.00000
    205     -22.9149      1.00000
    206     -22.8981      1.00000
    207     -22.8870      1.00000
    208     -22.8753      1.00000
    209     -22.8640      1.00000
    210     -22.8594      1.00000
    211     -22.8434      1.00000
    212     -22.8223      1.00000
    213     -22.8162      1.00000
    214     -22.7904      1.00000
    215     -22.7839      1.00000
    216     -22.7781      1.00000
    217     -22.7681      1.00000
    218     -22.7646      1.00000
    219     -22.7543      1.00000
    220     -22.7505      1.00000
    221     -22.7373      1.00000
    222     -22.7344      1.00000
    223     -22.7323      1.00000
    224     -22.7252      1.00000
    225     -22.7186      1.00000
    226     -22.7163      1.00000
    227     -22.7099      1.00000
    228     -22.7006      1.00000
    229     -22.6924      1.00000
    230     -22.6742      1.00000
    231     -22.6723      1.00000
    232     -22.6488      1.00000
    233     -22.6341      1.00000
    234     -22.6331      1.00000
    235     -22.6288      1.00000
    236     -22.6165      1.00000
    237     -22.6104      1.00000
    238     -22.5795      1.00000
    239     -22.5691      1.00000
    240     -22.5641      1.00000
    241     -22.5581      1.00000
    242     -22.5413      1.00000
    243     -22.5347      1.00000
    244     -22.5091      1.00000
    245     -22.4970      1.00000
    246     -22.4916      1.00000
    247     -22.4869      1.00000
    248     -22.4837      1.00000
    249     -22.4750      1.00000
    250     -22.4699      1.00000
    251     -22.4657      1.00000
    252     -22.4584      1.00000
    253     -22.4551      1.00000
    254     -22.4481      1.00000
    255     -22.4330      1.00000
    256     -22.4283      1.00000
    257     -22.4188      1.00000
    258     -22.4168      1.00000
    259     -22.4124      1.00000
    260     -22.3996      1.00000
    261     -22.3877      1.00000
    262     -22.3708      1.00000
    263     -22.3672      1.00000
    264     -22.3588      1.00000
    265     -22.3566      1.00000
    266     -22.3508      1.00000
    267     -22.3466      1.00000
    268     -22.3423      1.00000
    269     -22.3383      1.00000
    270     -22.3358      1.00000
    271     -22.3295      1.00000
    272     -22.3256      1.00000
    273     -22.3147      1.00000
    274     -22.3085      1.00000
    275     -22.3070      1.00000
    276     -22.2985      1.00000
    277     -22.2913      1.00000
    278     -22.2870      1.00000
    279     -22.1520      1.00000
    280     -22.1322      1.00000
    281     -22.0752      1.00000
    282     -22.0594      1.00000
    283     -22.0576      1.00000
[...]
   79        1.569   3.468   0.000   5.037
   80        1.572   3.470   0.000   5.041
   81        1.569   3.463   0.000   5.032
   82        1.569   3.464   0.000   5.033
   83        1.569   3.469   0.000   5.038
   84        1.570   3.468   0.000   5.038
   85        1.569   3.465   0.000   5.034
   86        1.569   3.467   0.000   5.036
   87        1.570   3.474   0.000   5.044
   88        1.572   3.474   0.000   5.045
   89        1.570   3.476   0.000   5.046
   90        1.569   3.468   0.000   5.037
   91        1.569   3.467   0.000   5.037
   92        1.570   3.464   0.000   5.035
   93        1.570   3.466   0.000   5.036
   94        1.570   3.456   0.000   5.026
   95        1.568   3.465   0.000   5.033
   96        1.570   3.473   0.000   5.043
   97        1.570   3.468   0.000   5.037
   98        1.570   3.466   0.000   5.036
   99        1.571   3.473   0.000   5.044
  100        1.571   3.467   0.000   5.037
  101        1.569   3.463   0.000   5.032
  102        1.570   3.473   0.000   5.044
  103        1.569   3.469   0.000   5.038
  104        1.569   3.464   0.000   5.033
  105        1.571   3.476   0.000   5.047
  106        1.569   3.467   0.000   5.036
  107        1.570   3.468   0.000   5.038
  108        1.571   3.475   0.000   5.046
  109        1.569   3.465   0.000   5.034
  110        1.569   3.464   0.000   5.034
  111        1.571   3.474   0.000   5.046
  112        1.571   3.470   0.000   5.041
  113        1.571   3.472   0.000   5.044
  114        1.571   3.471   0.000   5.042
  115        1.569   3.465   0.000   5.033
  116        1.570   3.467   0.000   5.037
  117        1.570   3.463   0.000   5.033
  118        1.570   3.468   0.000   5.039
  119        1.569   3.462   0.000   5.032
  120        1.571   3.474   0.000   5.045
  121        1.568   3.464   0.000   5.032
  122        1.571   3.471   0.000   5.042
  123        1.571   3.474   0.000   5.045
  124        1.569   3.464   0.000   5.033
  125        1.569   3.465   0.000   5.034
  126        1.570   3.477   0.000   5.047
  127        1.572   3.473   0.000   5.044
  128        1.572   3.475   0.000   5.047
  129        1.730   4.383   0.000   6.114
  130        1.729   4.377   0.000   6.107
  131        1.730   4.376   0.000   6.106
  132        1.731   4.385   0.000   6.116
  133        1.730   4.388   0.000   6.119
  134        1.730   4.383   0.000   6.113
  135        1.730   4.382   0.000   6.112
  136        1.730   4.380   0.000   6.110
  137        1.732   4.381   0.000   6.113
  138        1.731   4.386   0.000   6.117
  139        1.731   4.379   0.000   6.110
  140        1.731   4.382   0.000   6.113
  141        1.729   4.374   0.000   6.103
  142        1.730   4.375   0.000   6.104
  143        1.729   4.376   0.000   6.106
  144        1.730   4.376   0.000   6.106
  145        1.730   4.389   0.000   6.119
  146        1.730   4.388   0.000   6.118
  147        1.732   4.382   0.000   6.114
  148        1.731   4.387   0.000   6.118
  149        1.729   4.375   0.000   6.104
  150        1.729   4.372   0.000   6.102
  151        1.729   4.383   0.000   6.113
  152        1.730   4.378   0.000   6.108
  153        1.729   4.377   0.000   6.107
  154        1.729   4.373   0.000   6.102
  155        1.729   4.376   0.000   6.105
  156        1.730   4.379   0.000   6.109
  157        1.730   4.377   0.000   6.107
  158        1.731   4.377   0.000   6.109
  159        1.731   4.378   0.000   6.109
  160        1.730   4.380   0.000   6.111
  161        1.730   4.386   0.000   6.117
  162        1.730   4.387   0.000   6.117
  163        1.730   4.377   0.000   6.107
  164        1.730   4.378   0.000   6.107
  165        1.730   4.379   0.000   6.109
  166        1.730   4.378   0.000   6.108
  167        1.732   4.384   0.000   6.116
  168        1.731   4.384   0.000   6.116
  169        1.729   4.371   0.000   6.100
  170        1.729   4.371   0.000   6.101
  171        1.730   4.384   0.000   6.113
  172        1.730   4.376   0.000   6.106
  173        1.729   4.384   0.000   6.113
  174        1.730   4.373   0.000   6.103
  175        1.730   4.381   0.000   6.111
  176        1.730   4.382   0.000   6.112
  177        1.729   4.374   0.000   6.103
  178        1.730   4.379   0.000   6.109
  179        1.730   4.379   0.000   6.109
  180        1.729   4.373   0.000   6.102
  181        1.730   4.378   0.000   6.109
  182        1.729   4.374   0.000   6.103
  183        1.729   4.370   0.000   6.099
  184        1.730   4.389   0.000   6.119
  185        1.730   4.379   0.000   6.109
  186        1.729   4.372   0.000   6.101
  187        1.729   4.371   0.000   6.100
  188        1.730   4.383   0.000   6.114
  189        1.731   4.380   0.000   6.111
  190        1.731   4.383   0.000   6.114
  191        1.729   4.376   0.000   6.105
  192        1.731   4.390   0.000   6.121
  193        1.731   4.383   0.000   6.113
  194        1.730   4.375   0.000   6.105
  195        1.732   4.386   0.000   6.118
  196        1.731   4.377   0.000   6.107
  197        1.731   4.379   0.000   6.110
  198        1.730   4.378   0.000   6.109
  199        1.731   4.376   0.000   6.106
  200        1.731   4.378   0.000   6.109
  201        1.731   4.374   0.000   6.105
  202        1.730   4.375   0.000   6.104
  203        1.730   4.382   0.000   6.111
  204        1.730   4.381   0.000   6.111
  205        1.730   4.374   0.000   6.104
  206        1.731   4.385   0.000   6.116
  207        1.731   4.385   0.000   6.117
  208        1.730   4.382   0.000   6.112
  209        1.729   4.372   0.000   6.101
  210        1.731   4.386   0.000   6.117
  211        1.730   4.386   0.000   6.116
  212        1.728   4.372   0.000   6.100
  213        1.731   4.387   0.000   6.118
  214        1.730   4.382   0.000   6.111
  215        1.730   4.379   0.000   6.109
  216        1.730   4.379   0.000   6.109
  217        1.731   4.378   0.000   6.109
  218        1.730   4.383   0.000   6.113
  219        1.730   4.380   0.000   6.110
  220        1.730   4.387   0.000   6.116
  221        1.730   4.377   0.000   6.107
  222        1.729   4.373   0.000   6.102
  223        1.729   4.373   0.000   6.101
  224        1.729   4.374   0.000   6.104
  225        1.728   4.371   0.000   6.099
  226        1.731   4.380   0.000   6.111
  227        1.730   4.381   0.000   6.111
  228        1.731   4.379   0.000   6.110
  229        1.729   4.370   0.000   6.099
  230        1.729   4.371   0.000   6.100
  231        1.730   4.378   0.000   6.109
  232        1.731   4.384   0.000   6.115
  233        1.730   4.380   0.000   6.110
  234        1.731   4.384   0.000   6.115
  235        1.729   4.383   0.000   6.113
  236        1.729   4.383   0.000   6.113
  237        1.729   4.385   0.000   6.114
  238        1.731   4.381   0.000   6.112
  239        1.730   4.385   0.000   6.115
  240        1.730   4.386   0.000   6.116
  241        1.730   4.384   0.000   6.114
  242        1.729   4.368   0.000   6.097
  243        1.730   4.381   0.000   6.111
  244        1.729   4.371   0.000   6.099
  245        1.731   4.379   0.000   6.110
  246        1.731   4.381   0.000   6.111
  247        1.731   4.378   0.000   6.108
  248        1.730   4.383   0.000   6.113
  249        1.730   4.380   0.000   6.111
  250        1.729   4.371   0.000   6.100
  251        1.730   4.385   0.000   6.115
  252        1.729   4.371   0.000   6.099
  253        1.731   4.382   0.000   6.113
  254        1.730   4.381   0.000   6.111
  255        1.730   4.383   0.000   6.113
  256        1.730   4.380   0.000   6.110
--------------------------------------------------
tot        342.3631196.077 112.8721651.312
 


 magnetization (x)
 
# of ion       s       p       d       tot
------------------------------------------
    1       -0.000   0.000   0.000  -0.000
    2        0.000   0.000   0.000   0.000
    3       -0.000   0.000   0.000   0.000
    4       -0.000  -0.000  -0.000  -0.000
    5       -0.000   0.000   0.000   0.000
    6       -0.000  -0.000   0.000   0.000
    7        0.000  -0.000  -0.000  -0.000
    8       -0.000   0.000   0.000   0.000
    9        0.000  -0.000   0.000   0.000
   10        0.000   0.000   0.000   0.000
   11        0.000   0.000   0.000   0.000
   12        0.000  -0.000   0.000   0.000
   13        0.000  -0.000  -0.000  -0.000
   14       -0.000  -0.000   0.000  -0.000
   15        0.000  -0.000  -0.000  -0.000
   16        0.000  -0.000   0.000  -0.000
   17        0.000  -0.000  -0.000  -0.000
   18        0.000  -0.000  -0.000  -0.000
   19       -0.000   0.000  -0.000  -0.000
   20        0.000   0.000   0.000   0.000
   21        0.000   0.000   0.000   0.000
   22       -0.000   0.000   0.000   0.000
   23       -0.000  -0.000  -0.000  -0.000
   24       -0.000  -0.000  -0.000  -0.000
   25       -0.000   0.000   0.000  -0.000
   26       -0.000  -0.000  -0.000  -0.000
   27        0.000  -0.000   0.000   0.000
   28        0.000   0.000  -0.000  -0.000
   29        0.000  -0.000  -0.000  -0.000
   30        0.000  -0.000  -0.000  -0.000
   31       -0.000  -0.000  -0.000  -0.000
   32       -0.000  -0.000  -0.000  -0.000
   33        0.000   0.000   0.000   0.000
   34        0.000   0.000   0.000   0.000
   35       -0.000  -0.000  -0.000  -0.000
   36       -0.000   0.000  -0.000  -0.000
   37        0.000   0.000   0.000   0.000
   38       -0.000  -0.000  -0.000  -0.000
   39       -0.000  -0.000  -0.000  -0.000
   40       -0.000  -0.000  -0.000  -0.000
   41        0.000  -0.000   0.000   0.000
   42       -0.000  -0.000   0.000  -0.000
   43        0.000  -0.000  -0.000  -0.000
   44       -0.000  -0.000  -0.000  -0.000
   45       -0.000   0.000  -0.000  -0.000
   46        0.000  -0.000   0.000   0.000
   47        0.000   0.000   0.000   0.000
   48        0.000  -0.000   0.000   0.000
   49       -0.000   0.000   0.000  -0.000
   50       -0.000   0.000   0.000   0.000
   51        0.000  -0.000   0.000   0.000
   52       -0.000  -0.000  -0.000  -0.000
   53       -0.000  -0.000  -0.000  -0.000
   54        0.000   0.000   0.000   0.000
   55       -0.000  -0.000   0.000  -0.000
   56        0.000  -0.000   0.000   0.000
   57       -0.000   0.000  -0.000  -0.000
   58       -0.000  -0.000  -0.000  -0.000
   59       -0.000   0.000  -0.000  -0.000
   60       -0.000  -0.000  -0.000  -0.000
   61        0.000  -0.000  -0.000  -0.000
   62        0.000  -0.000   0.000   0.000
   63       -0.000  -0.000  -0.000  -0.000
   64       -0.000  -0.000   0.000  -0.000
   65       -0.000  -0.000   0.000  -0.000
   66       -0.000   0.000   0.000  -0.000
   67        0.000  -0.000   0.000  -0.000
   68       -0.000  -0.000   0.000  -0.000
   69        0.000   0.000   0.000   0.000
   70        0.000   0.000   0.000   0.000
   71        0.000   0.000   0.000   0.000
   72        0.000  -0.000   0.000   0.000
   73       -0.000  -0.000   0.000  -0.000
   74        0.000   0.000   0.000   0.000
   75        0.000  -0.000   0.000   0.000
   76        0.000   0.000   0.000   0.000
   77       -0.000   0.000   0.000  -0.000
   78       -0.000   0.000   0.000  -0.000
   79       -0.000  -0.000   0.000  -0.000
   80       -0.000   0.000   0.000  -0.000
   81        0.000   0.000   0.000   0.000
   82       -0.000   0.000   0.000  -0.000
   83        0.000   0.000   0.000   0.000
   84        0.000  -0.000   0.000   0.000
   85        0.000   0.000   0.000   0.000
   86        0.000   0.000   0.000   0.000
   87        0.000   0.000   0.000   0.000
   88       -0.000  -0.000   0.000  -0.000
   89        0.000   0.000   0.000   0.000
   90        0.000   0.000   0.000   0.000
   91        0.000   0.000   0.000   0.000
   92       -0.000   0.000   0.000  -0.000
   93        0.000   0.000   0.000   0.000
   94       -0.000   0.000   0.000  -0.000
   95       -0.000  -0.000   0.000  -0.000
   96        0.000  -0.000   0.000  -0.000
   97        0.000  -0.000   0.000   0.000
   98        0.000  -0.000   0.000   0.000
   99        0.000  -0.000   0.000   0.000
  100       -0.000   0.000   0.000  -0.000
  101       -0.000  -0.000   0.000  -0.000
  102        0.000   0.000   0.000   0.000
  103        0.000   0.000   0.000   0.000
  104       -0.000   0.000   0.000  -0.000
  105       -0.000   0.000   0.000  -0.000
  106       -0.000   0.000   0.000   0.000
  107        0.000   0.000   0.000   0.000
  108       -0.000  -0.000   0.000  -0.000
  109       -0.000   0.000   0.000   0.000
  110        0.000   0.000   0.000   0.000
  111       -0.000  -0.000   0.000  -0.000
  112       -0.000  -0.000   0.000  -0.000
  113       -0.000  -0.000   0.000  -0.000
  114        0.000  -0.000   0.000   0.000
  115        0.000   0.000   0.000   0.000
  116       -0.000   0.000   0.000   0.000
  117        0.000   0.000   0.000   0.000
  118        0.000   0.000   0.000   0.000
  119       -0.000   0.000   0.000  -0.000
  120        0.000  -0.000   0.000  -0.000
  121        0.000  -0.000   0.000   0.000
  122        0.000   0.000   0.000   0.000
  123        0.000  -0.000   0.000   0.000
  124       -0.000   0.000   0.000  -0.000
  125       -0.000   0.000   0.000   0.000
  126        0.000   0.000   0.000   0.000
  127        0.000   0.000   0.000   0.000
  128       -0.000   0.000   0.000  -0.000
  129        0.000   0.000   0.000   0.000
  130        0.000  -0.000   0.000  -0.000
  131        0.000   0.000   0.000   0.000
  132        0.000  -0.000   0.000  -0.000
  133        0.000  -0.000   0.000   0.000
  134        0.000   0.000   0.000   0.000
  135        0.000   0.000   0.000   0.000
  136       -0.000   0.000   0.000  -0.000
  137       -0.000  -0.000   0.000  -0.000
  138        0.000   0.000   0.000   0.000
  139       -0.000   0.000   0.000   0.000
  140        0.000  -0.000   0.000   0.000
  141        0.000   0.000   0.000   0.000
  142        0.000   0.000   0.000   0.000
  143       -0.000   0.000   0.000  -0.000
  144        0.000   0.000   0.000   0.000
  145        0.000  -0.000   0.000   0.000
  146       -0.000   0.000   0.000  -0.000
  147       -0.000   0.000   0.000   0.000
  148        0.000   0.000   0.000   0.000
  149        0.000   0.000   0.000   0.000
  150        0.000   0.000   0.000   0.000
  151        0.000   0.000   0.000   0.000
  152        0.000   0.000   0.000   0.000
  153        0.000   0.000   0.000   0.000
  154        0.000  -0.000   0.000  -0.000
  155       -0.000  -0.000   0.000  -0.000
  156        0.000  -0.000   0.000  -0.000
  157        0.000  -0.000   0.000  -0.000
  158        0.000   0.000   0.000   0.000
  159        0.000  -0.000   0.000  -0.000
  160        0.000  -0.000   0.000   0.000
  161        0.000  -0.000   0.000  -0.000
  162        0.000   0.000   0.000   0.000
  163        0.000  -0.000   0.000  -0.000
  164        0.000   0.000   0.000   0.000
  165       -0.000   0.000   0.000   0.000
  166        0.000  -0.000   0.000   0.000
  167       -0.000   0.000   0.000   0.000
  168        0.000  -0.000   0.000  -0.000
  169        0.000   0.000   0.000   0.000
  170        0.000  -0.000   0.000   0.000
  171        0.000  -0.000   0.000   0.000
  172        0.000  -0.000   0.000  -0.000
  173        0.000   0.000   0.000   0.000
  174        0.000   0.000   0.000   0.000
  175       -0.000  -0.000   0.000  -0.000
  176        0.000   0.000   0.000   0.000
  177        0.000  -0.000   0.000   0.000
  178        0.000   0.000   0.000   0.000
  179        0.000  -0.000   0.000  -0.000
  180        0.000   0.000   0.000   0.000
  181        0.000  -0.000   0.000   0.000
  182        0.000   0.000   0.000   0.000
  183       -0.000   0.000   0.000   0.000
  184        0.000   0.000   0.000   0.000
  185        0.000   0.000   0.000   0.000
  186        0.000  -0.000   0.000  -0.000
  187       -0.000  -0.000   0.000  -0.000
  188       -0.000   0.000   0.000   0.000
  189        0.000  -0.000   0.000   0.000
  190       -0.000  -0.000   0.000  -0.000
  191        0.000  -0.000   0.000   0.000
  192        0.000   0.000   0.000   0.000
  193       -0.000   0.000   0.000   0.000
  194        0.000   0.000   0.000   0.000
  195        0.000   0.000   0.000   0.000
  196        0.000  -0.000   0.000   0.000
  197        0.000   0.000   0.000   0.000
  198        0.000  -0.000   0.000  -0.000
  199        0.000  -0.000   0.000  -0.000
  200        0.000   0.000   0.000   0.000
  201        0.000   0.000   0.000   0.000
  202        0.000   0.000   0.000   0.000
  203        0.000   0.000   0.000   0.000
  204        0.000   0.000   0.000   0.000
  205       -0.000  -0.000   0.000  -0.000
  206        0.000   0.000   0.000   0.000
  207        0.000   0.000   0.000   0.000
  208        0.000  -0.000   0.000   0.000
  209        0.000   0.000   0.000   0.000
  210        0.000   0.000   0.000   0.000
  211       -0.000  -0.000   0.000  -0.000
  212        0.000  -0.000   0.000  -0.000
  213        0.000  -0.000   0.000  -0.000
  214        0.000  -0.000   0.000  -0.000
  215        0.000   0.000   0.000   0.000
  216        0.000  -0.000   0.000   0.000
  217        0.000  -0.000   0.000  -0.000
  218        0.000  -0.000   0.000  -0.000
  219        0.000  -0.000   0.000   0.000
  220       -0.000  -0.000   0.000  -0.000
  221        0.000   0.000   0.000   0.000
  222        0.000  -0.000   0.000  -0.000
  223        0.000  -0.000   0.000   0.000
  224        0.000   0.000   0.000   0.000
  225        0.000   0.000   0.000   0.000
  226        0.000  -0.000   0.000  -0.000
  227        0.000   0.000   0.000   0.000
  228        0.000   0.000   0.000   0.000
  229        0.000  -0.000   0.000  -0.000
  230        0.000   0.000   0.000   0.000
  231        0.000  -0.000   0.000  -0.000
  232        0.000  -0.000   0.000  -0.000
  233        0.000  -0.000   0.000  -0.000
  234        0.000  -0.000   0.000   0.000
  235        0.000   0.000   0.000   0.000
  236        0.000  -0.000   0.000   0.000
  237       -0.000  -0.000   0.000  -0.000
  238       -0.000  -0.000   0.000  -0.000
  239        0.000   0.000   0.000   0.000
  240        0.000   0.000   0.000   0.000
  241        0.000  -0.000   0.000  -0.000
  242        0.000   0.000   0.000   0.000
  243       -0.000   0.000   0.000   0.000
  244        0.000  -0.000   0.000  -0.000
  245        0.000   0.000   0.000   0.000
  246        0.000   0.000   0.000   0.000
  247        0.000  -0.000   0.000   0.000
  248        0.000  -0.000   0.000   0.000
  249        0.000   0.000   0.000   0.000
  250        0.000   0.000   0.000   0.000
  251        0.000   0.000   0.000   0.000
  252        0.000   0.000   0.000   0.000
  253       -0.000   0.000   0.000   0.000
  254        0.000  -0.000   0.000  -0.000
  255       -0.000  -0.000   0.000  -0.000
  256        0.000   0.000   0.000   0.000
--------------------------------------------------
tot          0.000   0.000  -0.000   0.000
 

 total amount of memory used by VASP MPI-rank0   385315. kBytes
=======================================================================

   base      :      30000. kBytes
   nonlr-proj:      71665. kBytes
   fftplans  :      38727. kBytes
   grid      :      49123. kBytes
   one-center:        995. kBytes
   wavefun   :     194805. kBytes
 
  
  
 General timing and accounting informations for this job:
 ========================================================
  
                  Total CPU time used (sec):     1253.940
                            User time (sec):     1179.310
                          System time (sec):       74.631
                         Elapsed time (sec):     1341.297
  
                   Maximum memory used (kb):      706116.
                   Average memory used (kb):           0.
  
                          Minor page faults:        34367
                          Major page faults:            2
                 Voluntary context switches:       644405
