LTO                                     
           1
     7.856696    0.000019    0.000003
     0.000018    7.645222    0.000006
     0.000003    0.000006    7.645258
   Ti   O    F 
   8   8  16
Direct configuration=     1
   0.00000011  0.98871449  0.98871624
   0.00000006  0.98871509  0.51128310
   0.99999994  0.51128465  0.98871737
   0.99999989  0.51128525  0.51128357
   0.50000011  0.98871500  0.98871681
   0.50000006  0.98871539  0.51128274
   0.49999994  0.51128530  0.98871713
   0.49999989  0.51128577  0.51128344
   0.00000003  0.75000035  0.00626042
   0.99999997  0.74999830  0.49373899
   0.50000003  0.75000152  0.00626188
   0.49999997  0.74999974  0.49373756
   0.99999998  0.00626250  0.75000100
   0.00000002  0.49373624  0.74999904
   0.49999998  0.00626246  0.75000099
   0.50000002  0.49373799  0.74999906
   0.25000003  0.00605266  0.00605250
   0.25000003  0.00605268  0.49394771
   0.25000002  0.49394727  0.00605245
   0.24999991  0.49394730  0.49394751
   0.74999995  0.00605266  0.00605250
   0.74999991  0.00605268  0.49394771
   0.75000004  0.49394727  0.00605245
   0.75000010  0.49394730  0.49394751
   0.00000002  0.24999971  0.00876283
   0.99999998  0.25000008  0.49123726
   0.50000002  0.25000008  0.00876268
   0.49999998  0.25000032  0.49123739
   0.99999997  0.00876266  0.24999977
   0.00000003  0.49123686  0.25000034
   0.49999997  0.00876350  0.24999981
   0.50000003  0.49123691  0.25000024
