       N       E                     dE             d eps       ncg     rms          rms(c)
DAV:   1    -0.209940228118E+03   -0.20994E+03   -0.80461E-01  2560   0.590E+00    0.825E-02
DAV:   2    -0.209940342077E+03   -0.11396E-03   -0.37645E-05  2560   0.305E-02    0.461E-02
DAV:   3    -0.209940472001E+03   -0.12992E-03   -0.23761E-05  2560   0.320E-02    0.843E-03
DAV:   4    -0.209940473724E+03   -0.17230E-05   -0.25487E-06  1984   0.113E-02    0.329E-03
DAV:   5    -0.209940473863E+03   -0.13842E-06   -0.54658E-07  1280   0.529E-03
   1 F= -.20994047E+03 E0= -.20994047E+03  d E =-.209940E+03  mag=    -0.0000
