LTO                                     
           1
     7.850808   -0.001813   -0.000066
    -0.001839    7.790772   -0.000061
    -0.000091    0.000096    7.621770
   Ti   O    F 
   8   8  16
Direct configuration=     1
   0.00011863  0.97883181  0.99999478
   0.00062868  0.00197666  0.49999208
   0.00091967  0.49939490  0.00016429
   0.98302863  0.50046847  0.50018821
   0.50015244  0.02484730  0.00000577
   0.50007759  0.97709981  0.50000587
   0.49983179  0.50273515  0.99984624
   0.51003554  0.49749481  0.49981660
   0.75163878  0.49748094  0.49999601
   0.00023913  0.75907194  0.00001571
   0.50016899  0.24465416  0.00000141
   0.49985940  0.75831286  0.49999976
   0.00118641  0.49926638  0.24762897
   0.00118102  0.49929321  0.75230196
   0.49883682  0.50104784  0.24716397
   0.49883480  0.50106079  0.75292280
   0.24847805  0.00174901  0.00000637
   0.24344236  0.00081215  0.49999343
   0.24940071  0.50133175  0.99999635
   0.24715200  0.49686584  0.49999235
   0.75182922  0.00174424  0.99999364
   0.75750114  0.00112229  0.50000716
   0.75119983  0.50125810  0.99999747
   0.00035753  0.23690732  0.99997293
   0.00233365  0.23854365  0.50000578
   0.00199950  0.76437245  0.49996487
   0.49874627  0.23402677  0.50001233
   0.50012299  0.76519249  0.00001601
   0.99982475  0.00584960  0.25445630
   0.99984238  0.00580306  0.74552960
   0.50052362  0.00069574  0.25066794
   0.50050766  0.00068853  0.74934305
