 vasp.5.4.4.18Apr17-6-g9f103f2a35 (build Jul 16 2019 12:12:28) complex          
  
 executed on             LinuxIFC date 2020.01.06  10:15:03
 running on   96 total cores
 distrk:  each k-point on   96 cores,    1 groups
 distr:  one band on NCORES_PER_BAND=   8 cores,   12 groups


--------------------------------------------------------------------------------------------------------


 INCAR:
 POTCAR:    PAW_PBE Li_sv 10Sep2004               
 POTCAR:    PAW_PBE Ti_pv 07Sep2000               
 POTCAR:    PAW_PBE O 08Apr2002                   
 POTCAR:    PAW_PBE F 08Apr2002                   
 POTCAR:    PAW_PBE Li_sv 10Sep2004               
   VRHFIN =Li: 1s2s2p                                                           
   LEXCH  = PE                                                                  
   EATOM  =   202.7858 eV,   14.9043 Ry                                         
                                                                                
   TITEL  = PAW_PBE Li_sv 10Sep2004                                             
   LULTRA =        F    use ultrasoft PP ?                                      
   IUNSCR =        0    unscreen: 0-lin 1-nonlin 2-no                           
   RPACOR =    0.000    partial core radius                                     
   POMASS =    7.010; ZVAL   =    3.000    mass and valenz                      
   RCORE  =    1.700    outmost cutoff radius                                   
   RWIGS  =    2.050; RWIGS  =    1.085    wigner-seitz radius (au A)           
   ENMAX  =  499.034; ENMIN  =  374.276 eV                                      
   ICORE  =        2    local potential                                         
   LCOR   =        T    correct aug charges                                     
   LPAW   =        T    paw PP                                                  
   EAUG   =  628.945                                                            
   RMAX   =    1.732    core radius for proj-oper                               
   RAUG   =    1.300    factor for augmentation sphere                          
   RDEP   =    1.728    radius for radial grids                                 
   RDEPT  =    1.329    core radius for aug-charge                              
                                                                                
   Atomic configuration                                                         
    4 entries                                                                   
     n  l   j            E        occ.                                          
     1  0  0.50       -51.8549   2.0000                                         
     2  0  0.50        -2.8742   1.0000                                         
     2  1  0.50        -1.3606   0.0000                                         
     3  2  1.50        -1.3606   0.0000                                         
   Description                                                                  
     l       E           TYP  RCUT    TYP  RCUT                                 
     0    -51.8548813     23  1.400                                             
     0     -2.8742052     23  1.700                                             
     1     -1.3605826     23  1.400                                             
     2     -1.3605826     23  1.400                                             
  local pseudopotential read in
  atomic valenz-charges read in
  non local Contribution for L=           0  read in
    real space projection operators read in
  non local Contribution for L=           0  read in
    real space projection operators read in
  non local Contribution for L=           1  read in
    real space projection operators read in
    PAW grid and wavefunctions read in
 
   number of l-projection  operators is LMAX  =           3
   number of lm-projection operators is LMMAX =           5
 
 POTCAR:    PAW_PBE Ti_pv 07Sep2000               
   VRHFIN =Ti: d3 s1                                                            
   LEXCH  = PE                                                                  
   EATOM  =  1042.5995 eV,   76.6289 Ry                                         
                                                                                
   TITEL  = PAW_PBE Ti_pv 07Sep2000                                             
   LULTRA =        F    use ultrasoft PP ?                                      
   IUNSCR =        1    unscreen: 0-lin 1-nonlin 2-no                           
   RPACOR =    2.200    partial core radius                                     
   POMASS =   47.880; ZVAL   =   10.000    mass and valenz                      
   RCORE  =    2.500    outmost cutoff radius                                   
   RWIGS  =    2.500; RWIGS  =    1.323    wigner-seitz radius (au A)           
   ENMAX  =  222.335; ENMIN  =  166.751 eV                                      
   RCLOC  =    1.701    cutoff for local pot                                    
   LCOR   =        T    correct aug charges                                     
   LPAW   =        T    paw PP                                                  
   EAUG   =  482.848                                                            
   DEXC   =    0.000                                                            
   RMAX   =    2.564    core radius for proj-oper                               
   RAUG   =    1.300    factor for augmentation sphere                          
   RDEP   =    2.538    radius for radial grids                                 
   RDEPT  =    1.952    core radius for aug-charge                              
                                                                                
   Atomic configuration                                                         
    8 entries                                                                   
     n  l   j            E        occ.                                          
     1  0  0.50     -4865.3608   2.0000                                         
     2  0  0.50      -533.1368   2.0000                                         
     2  1  1.50      -440.5031   6.0000                                         
     3  0  0.50       -59.3186   2.0000                                         
     3  1  1.50       -35.7012   6.0000                                         
     3  2  2.50        -1.9157   3.0000                                         
     4  0  0.50        -3.7291   1.0000                                         
     4  3  2.50        -1.3606   0.0000                                         
   Description                                                                  
     l       E           TYP  RCUT    TYP  RCUT                                 
     1    -35.7012140     23  2.300                                             
     1     -1.3605826     23  2.300                                             
     2     -1.9156996     23  2.500                                             
     2     -0.4063033     23  2.500                                             
     0     -3.7290856     23  2.500                                             
     0     20.4087390     23  2.500                                             
  local pseudopotential read in
  partial core-charges read in
  partial kinetic energy density read in
  atomic valenz-charges read in
  non local Contribution for L=           1  read in
    real space projection operators read in
  non local Contribution for L=           1  read in
    real space projection operators read in
  non local Contribution for L=           2  read in
    real space projection operators read in
  non local Contribution for L=           2  read in
    real space projection operators read in
  non local Contribution for L=           0  read in
    real space projection operators read in
  non local Contribution for L=           0  read in
    real space projection operators read in
    PAW grid and wavefunctions read in
 
   number of l-projection  operators is LMAX  =           6
   number of lm-projection operators is LMMAX =          18
 
 POTCAR:    PAW_PBE O 08Apr2002                   
   VRHFIN =O: s2p4                                                              
   LEXCH  = PE                                                                  
   EATOM  =   432.3788 eV,   31.7789 Ry                                         
                                                                                
   TITEL  = PAW_PBE O 08Apr2002                                                 
   LULTRA =        F    use ultrasoft PP ?                                      
   IUNSCR =        1    unscreen: 0-lin 1-nonlin 2-no                           
   RPACOR =    1.200    partial core radius                                     
   POMASS =   16.000; ZVAL   =    6.000    mass and valenz                      
   RCORE  =    1.520    outmost cutoff radius                                   
   RWIGS  =    1.550; RWIGS  =    0.820    wigner-seitz radius (au A)           
   ENMAX  =  400.000; ENMIN  =  300.000 eV                                      
   ICORE  =        2    local potential                                         
   LCOR   =        T    correct aug charges                                     
   LPAW   =        T    paw PP                                                  
   EAUG   =  605.392                                                            
   DEXC   =    0.000                                                            
   RMAX   =    1.553    core radius for proj-oper                               
   RAUG   =    1.300    factor for augmentation sphere                          
   RDEP   =    1.550    radius for radial grids                                 
   RDEPT  =    1.329    core radius for aug-charge                              
                                                                                
   Atomic configuration                                                         
    4 entries                                                                   
     n  l   j            E        occ.                                          
     1  0  0.50      -514.6923   2.0000                                         
     2  0  0.50       -23.9615   2.0000                                         
     2  1  0.50        -9.0305   4.0000                                         
     3  2  1.50        -9.5241   0.0000                                         
   Description                                                                  
     l       E           TYP  RCUT    TYP  RCUT                                 
     0    -23.9615318     23  1.200                                             
     0     -9.5240782     23  1.200                                             
     1     -9.0304911     23  1.520                                             
     1      8.1634956     23  1.520                                             
     2     -9.5240782      7  1.500                                             
  local pseudopotential read in
  partial core-charges read in
  partial kinetic energy density read in
  kinetic energy density of atom read in
  atomic valenz-charges read in
  non local Contribution for L=           0  read in
    real space projection operators read in
  non local Contribution for L=           0  read in
    real space projection operators read in
  non local Contribution for L=           1  read in
    real space projection operators read in
  non local Contribution for L=           1  read in
    real space projection operators read in
    PAW grid and wavefunctions read in
 
   number of l-projection  operators is LMAX  =           4
   number of lm-projection operators is LMMAX =           8
 
 POTCAR:    PAW_PBE F 08Apr2002                   
   VRHFIN =F: s2p5                                                              
   LEXCH  = PE                                                                  
   EATOM  =   659.6475 eV,   48.4827 Ry                                         
                                                                                
   TITEL  = PAW_PBE F 08Apr2002                                                 
   LULTRA =        F    use ultrasoft PP ?                                      
   IUNSCR =        1    unscreen: 0-lin 1-nonlin 2-no                           
   RPACOR =    1.200    partial core radius                                     
   POMASS =   18.998; ZVAL   =    7.000    mass and valenz                      
   RCORE  =    1.520    outmost cutoff radius                                   
   RWIGS  =    1.500; RWIGS  =    0.794    wigner-seitz radius (au A)           
   ENMAX  =  400.000; ENMIN  =  300.000 eV                                      
   ICORE  =        2    local potential                                         
   LCOR   =        T    correct aug charges                                     
   LPAW   =        T    paw PP                                                  
   EAUG   =  613.614                                                            
   RMAX   =    1.555    core radius for proj-oper                               
   RAUG   =    1.300    factor for augmentation sphere                          
   RDEP   =    1.539    radius for radial grids                                 
   RDEPT  =    1.299    core radius for aug-charge                              
                                                                                
   Atomic configuration                                                         
    4 entries                                                                   
     n  l   j            E        occ.                                          
     1  0  0.50      -663.3661   2.0000                                         
     2  0  0.50       -29.8995   2.0000                                         
     2  1  0.50       -11.1114   5.0000                                         
     3  2  1.50       -10.8847   0.0000                                         
   Description                                                                  
     l       E           TYP  RCUT    TYP  RCUT                                 
     0    -29.8995018     23  1.200                                             
     0     -9.5240782     23  1.200                                             
     1    -11.1113914     23  1.520                                             
     1      1.3605826     23  1.520                                             
     2    -10.8846608      7  1.500                                             
  local pseudopotential read in
  partial core-charges read in
  partial kinetic energy density read in
  atomic valenz-charges read in
  non local Contribution for L=           0  read in
    real space projection operators read in
  non local Contribution for L=           0  read in
    real space projection operators read in
  non local Contribution for L=           1  read in
    real space projection operators read in
  non local Contribution for L=           1  read in
    real space projection operators read in
    PAW grid and wavefunctions read in
 
   number of l-projection  operators is LMAX  =           4
   number of lm-projection operators is LMMAX =           8
 
 Optimization of the real space projectors (new method)

 maximal supplied QI-value         = 22.11
 optimisation between [QCUT,QGAM] = [ 11.28, 22.77] = [ 35.61,145.23] Ry 
 Optimized for a Real-space Cutoff    1.31 Angstroem

   l    n(q)    QCUT    max X(q) W(low)/X(q) W(high)/X(q)  e(spline) 
   0      9    11.276    10.506    0.19E-04    0.17E-04    0.32E-07
   0      9    11.276     8.367    0.38E-04    0.40E-04    0.65E-07
   1      8    11.276     8.983    0.55E-04    0.98E-04    0.20E-06
 Optimization of the real space projectors (new method)

 maximal supplied QI-value         = 15.12
 optimisation between [QCUT,QGAM] = [ 11.34, 22.83] = [ 36.00,145.93] Ry 
 Optimized for a Real-space Cutoff    1.56 Angstroem

   l    n(q)    QCUT    max X(q) W(low)/X(q) W(high)/X(q)  e(spline) 
   1     10    11.338     4.216    0.27E-04    0.12E-04    0.66E-07
   1     10    11.338     5.422    0.81E-04    0.24E-04    0.19E-06
   2     10    11.338    72.084    0.64E-04    0.21E-03    0.51E-06
   2     10    11.338    65.965    0.63E-04    0.21E-03    0.50E-06
   0     11    11.338    41.531    0.33E-04    0.54E-04    0.13E-06
   0     11    11.338    16.290    0.26E-04    0.41E-04    0.11E-06
 Optimization of the real space projectors (new method)

 maximal supplied QI-value         = 24.76
 optimisation between [QCUT,QGAM] = [ 11.39, 22.77] = [ 36.31,145.25] Ry 
 Optimized for a Real-space Cutoff    1.20 Angstroem

   l    n(q)    QCUT    max X(q) W(low)/X(q) W(high)/X(q)  e(spline) 
   0      8    11.387    20.381    0.89E-04    0.31E-03    0.27E-06
   0      8    11.387    15.268    0.93E-04    0.32E-03    0.29E-06
   1      8    11.387     5.964    0.53E-04    0.28E-03    0.29E-06
   1      8    11.387     5.382    0.37E-04    0.22E-03    0.26E-06
 Optimization of the real space projectors (new method)

 maximal supplied QI-value         = 24.76
 optimisation between [QCUT,QGAM] = [ 11.39, 22.77] = [ 36.31,145.25] Ry 
 Optimized for a Real-space Cutoff    1.20 Angstroem

   l    n(q)    QCUT    max X(q) W(low)/X(q) W(high)/X(q)  e(spline) 
   0      8    11.387    14.049    0.69E-04    0.23E-03    0.18E-06
   0      8    11.387     8.945    0.88E-04    0.30E-03    0.26E-06
   1      8    11.387     7.086    0.62E-04    0.27E-03    0.27E-06
   1      8    11.387     6.747    0.46E-04    0.23E-03    0.25E-06

 ----------------------------------------------------------------------------- 
|                                                                             |
|  ADVICE TO THIS USER RUNNING 'VASP/VAMP'   (HEAR YOUR MASTER'S VOICE ...):  |
|                                                                             |
|      You enforced a specific xc-type in the INCAR file,                     |
|      a different type was found on the POTCAR file                          |
|          I HOPE YOU KNOW, WHAT YOU ARE  DOING                               |
|                                                                             |
 ----------------------------------------------------------------------------- 

  PAW_PBE Li_sv 10Sep2004               :
 energy of atom  1       EATOM= -202.7858
 kinetic energy error for atom=    0.0143 (will be added to EATOM!!)
  PAW_PBE Ti_pv 07Sep2000               :
 energy of atom  2       EATOM=-1042.5995
 kinetic energy error for atom=    0.0024 (will be added to EATOM!!)
  PAW_PBE O 08Apr2002                   :
 energy of atom  3       EATOM= -432.3788
 kinetic energy error for atom=    0.0224 (will be added to EATOM!!)
  PAW_PBE F 08Apr2002                   :
 energy of atom  4       EATOM= -659.6475
 kinetic energy error for atom=    0.0354 (will be added to EATOM!!)
 
 
 POSCAR: config 02                               
  positions in direct lattice
  velocities in cartesian coordinates
 exchange correlation table for  LEXCH =       14
   RHO(1)=    0.500       N(1)  =     2000
   RHO(2)=  100.500       N(2)  =     4000

 VTST: version 3.2, (02/03/18)

 CHAIN: initializing optimizer
 
 OPT: Using VASP QUASI-newton optimizer
 CHAIN: Read ICHAIN            0
 
 POSCAR: config 02                               
  positions in direct lattice
  velocities in cartesian coordinates
 


--------------------------------------------------------------------------------------------------------


 ion  position               nearest neighbor table
   1  0.132  0.170  0.372- 167 1.92  74 2.02 188 2.08 184 2.23
   2  0.996  0.996  0.994- 118 1.86  68 1.88 103 1.89 171 2.02 212 2.03 130 2.06
   3  0.999  0.994  0.494- 119 1.82  67 1.84 193 1.95 172 1.96 213 1.99 131 2.02
   4  0.006  0.495  0.997-  89 1.84 117 1.86 138 1.93 132 1.98 214 2.01 194 2.02
   5  0.994  0.502  0.507-  66 1.83 104 1.84 223 1.94 215 1.94 173 2.02 137 2.04
   6  0.495  0.994  0.000- 101 1.84 121 1.84 140 1.95 133 1.97 216 2.02 174 2.02
   7  0.501  0.008  0.500- 112 1.77 191 1.91 134 1.91 139 1.92 175 1.93 225 2.02
   8  0.504  0.496  0.996-  70 1.88  90 1.88 120 1.89 192 2.03 135 2.04 217 2.05
   9  0.491  0.499  0.495- 102 1.81  69 1.86 224 1.97 218 1.98 136 2.01 176 2.05
  10  0.007  0.004  0.256-  91 1.85  67 1.86 219 1.95 227 1.97 130 2.00 197 2.05
  11  0.001  0.008  0.756-  68 1.80 113 1.84 177 1.95 198 1.98 228 2.04 131 2.06
  12  0.994  0.492  0.253- 107 1.83 122 1.85 137 1.92 132 1.97 220 2.03 178 2.03
  13  0.993  0.498  0.742-  66 1.82 108 1.82 226 1.93 221 1.97 138 2.03 179 2.04
  14  0.506  0.009  0.251- 114 1.82  92 1.83 133 1.92 139 1.97 195 2.02 231 2.05
  15  0.493  0.005  0.752- 105 1.81 115 1.83 140 1.93 134 1.99 232 2.01 180 2.03
  16  0.493  0.496  0.257-  69 1.82 106 1.85 229 1.96 222 2.00 135 2.02 181 2.04
  17  0.501  0.504  0.759-  70 1.80 116 1.87 182 1.94 196 1.97 230 2.04 136 2.07
  18  0.996  0.257  0.001- 117 1.82 110 1.88 141 1.95 146 1.97 183 2.00 212 2.02
  19  0.998  0.248  0.495-  74 1.93 202 1.99 142 2.00 213 2.01 223 2.02 184 2.04
  20  0.998  0.759  0.006- 118 1.81  71 1.85 203 1.95 185 1.97 148 2.04 214 2.06
  21  0.998  0.758  0.505- 119 1.83  72 1.84 204 1.94 186 1.96 215 2.02 147 2.03
  22  0.496  0.258  0.001- 120 1.79 109 1.85 150 1.95 143 1.97 187 2.02 216 2.07
  23  0.508  0.245  0.500-  93 1.78 112 1.90 144 1.93 149 1.94 224 1.97 199 2.01
  24  0.507  0.756  0.999-  94 1.82 121 1.84 152 1.94 145 1.99 217 2.01 200 2.02
  25  0.507  0.752  0.509-  73 1.79  95 1.83 218 1.96 225 1.96 201 2.01 151 2.07
  26  1.000  0.257  0.259- 122 1.81  74 1.82 209 1.94 141 2.02 188 2.03 219 2.05
  27  0.006  0.242  0.747- 113 1.81  96 1.84 142 1.96 146 1.96 210 2.04 226 2.05
  28  0.007  0.748  0.243-  71 1.81  97 1.84 220 1.94 227 2.00 147 2.05 211 2.05
  29  0.993  0.751  0.743- 111 1.83  72 1.84 228 1.93 221 1.98 189 2.02 148 2.03
  30  0.508  0.241  0.251-  98 1.81 114 1.83 143 1.93 149 1.96 229 2.02 205 2.04
  31  0.507  0.243  0.750-  99 1.84 115 1.84 150 1.93 144 1.98 230 2.02 206 2.02
  32  0.507  0.751  0.252- 100 1.79 151 1.92 231 1.94 145 1.94 222 1.94 207 2.01
  33  0.502  0.742  0.744- 116 1.80  73 1.84 190 1.93 208 1.97 152 2.02 232 2.06
  34  0.257  0.998  0.005- 101 1.85  75 1.85 246 1.93 233 1.96 171 2.01 157 2.03
  35  0.250  0.992  0.507- 128 1.82  76 1.83 172 1.95 191 1.98 234 2.03 156 2.03
  36  0.244  0.508  0.998- 123 1.82  89 1.84 159 1.93 153 1.98 192 2.02 245 2.04
  37  0.254  0.494  0.506-  77 1.85 102 1.87 127 1.89 173 2.02 235 2.04 158 2.05
  38  0.758  0.000  0.995- 103 1.79  81 1.87 236 1.95 249 1.96 154 2.05 174 2.05
  39  0.750  0.007  0.495- 124 1.83  80 1.84 193 1.92 175 1.98 155 1.99 250 2.02
  40  0.742  0.500  0.005-  90 1.80  78 1.87 237 1.95 247 1.96 161 2.03 194 2.05
  41  0.755  0.498  0.505- 104 1.84  79 1.84 248 1.94 238 1.98 176 2.02 160 2.03
  42  0.245  0.003  0.243-  75 1.82  91 1.86 239 1.95 252 1.96 156 2.05 195 2.05
  43  0.258  0.998  0.744- 105 1.84  76 1.84 253 1.92 240 1.97 177 2.02 157 2.02
  44  0.255  0.492  0.252- 106 1.83 129 1.84 158 1.93 153 1.97 241 2.04 178 2.04
  45  0.247  0.506  0.741-  77 1.79 125 1.83 179 1.94 196 1.97 251 2.03 159 2.06
  46  0.745  0.001  0.256-  80 1.85  92 1.86 256 1.95 242 1.96 154 2.00 197 2.01
  47  0.748  0.006  0.756-  81 1.82 126 1.83 180 1.94 198 1.96 257 2.03 155 2.06
  48  0.756  0.498  0.243-  78 1.82 107 1.85 243 1.96 254 1.96 181 2.03 160 2.04
  49  0.757  0.498  0.743- 108 1.82  79 1.83 255 1.94 244 1.98 182 2.03 161 2.04
  50  0.258  0.252  0.003- 109 1.82  82 1.86 245 1.93 233 1.97 168 1.99 183 2.05
  51  0.254  0.257  0.508- 127 1.80  83 1.83 199 1.95 184 1.96 234 2.07 167 2.12
  52  0.252  0.742  0.994- 123 1.82  86 1.83 200 1.94 185 1.96 246 2.04 162 2.04
  53  0.251  0.754  0.492-  85 1.83 128 1.87 201 1.95 186 1.96 235 1.99 163 2.04
  54  0.758  0.251  0.007- 110 1.80  84 1.86 236 1.94 247 1.94 170 2.03 187 2.04
  55  0.743  0.242  0.499- 124 1.82  93 1.86 169 1.93 202 1.95 164 1.96 248 2.02
  56  0.742  0.749  0.994-  94 1.82  88 1.83 237 1.94 249 1.95 203 2.01 165 2.04
  57  0.741  0.752  0.494-  95 1.81  87 1.86 250 1.94 238 1.95 166 2.01 204 2.02
  58  0.253  0.259  0.240-  82 1.80 129 1.81 205 1.94 188 2.02 239 2.05 167 2.09
  59  0.244  0.252  0.744-  96 1.84  83 1.84 251 1.93 240 1.97 168 2.01 206 2.05
  60  0.244  0.747  0.255-  97 1.82  85 1.84 241 1.94 252 1.99 162 2.02 207 2.06
  61  0.248  0.741  0.756- 125 1.81  86 1.84 189 1.93 208 1.97 163 2.04 253 2.04
  62  0.743  0.250  0.242-  84 1.79  98 1.83 254 1.94 242 1.95 209 2.04 169 2.04
  63  0.744  0.242  0.751- 126 1.82  99 1.84 170 1.94 164 1.99 210 2.02 255 2.04
  64  0.746  0.750  0.257-  87 1.81 100 1.90 243 1.94 256 1.95 211 1.98 165 2.02
  65  0.757  0.750  0.757- 111 1.82  88 1.84 257 1.93 244 1.97 190 2.03 166 2.05
  66  0.007  0.493  0.625-  13 1.82   5 1.83
  67  0.997  0.015  0.376-   3 1.84  10 1.86
  68  0.999  0.010  0.873-  11 1.80   2 1.88
  69  0.500  0.492  0.375-  16 1.82   9 1.86
  70  0.494  0.496  0.875-  17 1.80   8 1.88
  71  0.999  0.754  0.126-  28 1.81  20 1.85
  72  0.001  0.755  0.624-  21 1.84  29 1.84
  73  0.502  0.751  0.625-  25 1.79  33 1.84
  74  0.015  0.229  0.372-  26 1.82  19 1.93   1 2.02
  75  0.254  0.002  0.125-  42 1.82  34 1.85
  76  0.254  0.002  0.625-  35 1.83  43 1.84
  77  0.240  0.492  0.626-  45 1.79  37 1.85
  78  0.751  0.491  0.126-  48 1.82  40 1.87
  79  0.746  0.493  0.625-  49 1.83  41 1.84
  80  0.750  0.001  0.376-  39 1.84  46 1.85
  81  0.747  1.000  0.874-  47 1.82  38 1.87
  82  0.251  0.253  0.124-  58 1.80  50 1.86
  83  0.259  0.252  0.626-  51 1.83  59 1.84
  84  0.749  0.260  0.127-  62 1.79  54 1.86
  85  0.255  0.745  0.374-  53 1.83  60 1.84
  86  0.251  0.750  0.875-  52 1.83  61 1.84
  87  0.752  0.750  0.374-  64 1.81  57 1.86
  88  0.748  0.751  0.876-  56 1.83  65 1.84
  89  0.125  0.504  0.995-  36 1.84   4 1.84
  90  0.626  0.508  0.999-  40 1.80   8 1.88
  91  0.126  0.016  0.254-  10 1.85  42 1.86
  92  0.625  0.008  0.250-  14 1.83  46 1.86
  93  0.623  0.255  0.503-  23 1.78  55 1.86
  94  0.625  0.741  0.003-  56 1.82  24 1.82
  95  0.624  0.760  0.496-  57 1.81  25 1.83
  96  0.125  0.252  0.746-  59 1.84  27 1.84
  97  0.125  0.745  0.252-  60 1.82  28 1.84
  98  0.625  0.237  0.254-  30 1.81  62 1.83
  99  0.625  0.253  0.743-  31 1.84  63 1.84
 100  0.623  0.747  0.251-  32 1.79  64 1.90
 101  0.376  0.999  0.993-   6 1.84  34 1.85
 102  0.375  0.504  0.503-   9 1.81  37 1.87
 103  0.874  0.002  0.001-  38 1.79   2 1.89
 104  0.874  0.501  0.499-  41 1.84   5 1.84
 105  0.376  0.997  0.757-  15 1.81  43 1.84
 106  0.374  0.490  0.249-  44 1.83  16 1.85
 107  0.875  0.490  0.253-  12 1.83  48 1.85
 108  0.875  0.507  0.747-  13 1.82  49 1.82
 109  0.376  0.249  0.998-  50 1.82  22 1.85
 110  0.875  0.248  0.001-  54 1.80  18 1.88
 111  0.875  0.744  0.749-  65 1.82  29 1.83
 112  0.508  0.122  0.494-   7 1.77  23 1.90
 113  0.997  0.126  0.736-  27 1.81  11 1.84
 114  0.488  0.125  0.264-  14 1.82  30 1.83
 115  0.502  0.124  0.749-  15 1.83  31 1.84
 116  0.502  0.625  0.752-  33 1.80  17 1.87
 117  0.001  0.375  0.996-  18 1.82   4 1.86
 118  0.003  0.875  0.994-  20 1.81   2 1.86
 119  0.999  0.876  0.490-   3 1.82  21 1.83
 120  0.504  0.374  0.008-  22 1.79   8 1.89
 121  0.505  0.875  0.006-  24 1.84   6 1.84
 122  0.012  0.373  0.259-  26 1.81  12 1.85
 123  0.256  0.625  0.005-  52 1.82  36 1.82
 124  0.743  0.124  0.506-  55 1.82  39 1.83
 125  0.248  0.624  0.747-  61 1.81  45 1.83
 126  0.751  0.125  0.744-  63 1.82  47 1.83
 127  0.250  0.373  0.490-  51 1.80  37 1.89
 128  0.250  0.875  0.498-  35 1.82  53 1.87
 129  0.237  0.374  0.258-  58 1.81  44 1.84
 130  0.002  0.994  0.127-  10 2.00   2 2.06
 131  0.005  0.988  0.625-   3 2.02  11 2.06
 132  0.000  0.498  0.125-  12 1.97   4 1.98
 133  0.494  0.009  0.127-  14 1.92   6 1.97
 134  0.497  0.997  0.623-   7 1.91  15 1.99
 135  0.501  0.508  0.128-  16 2.02   8 2.04
 136  0.506  0.502  0.625-   9 2.01  17 2.07
 137  0.004  0.511  0.376-  12 1.92   5 2.04
 138  0.996  0.506  0.873-   4 1.93  13 2.03
 139  0.503  0.988  0.377-   7 1.92  14 1.97
 140  0.514  0.998  0.875-  15 1.93   6 1.95
 141  0.004  0.255  0.128-  18 1.95  26 2.02
 142  0.995  0.267  0.623-  27 1.96  19 2.00
 143  0.500  0.238  0.127-  30 1.93  22 1.97
 144  0.488  0.246  0.623-  23 1.93  31 1.98
 145  0.496  0.744  0.127-  32 1.94  24 1.99
 146  1.000  0.241  0.875-  27 1.96  18 1.97
 147  0.994  0.743  0.375-  21 2.03  28 2.05
 148  0.002  0.744  0.874-  29 2.03  20 2.04
 149  0.500  0.264  0.376-  23 1.94  30 1.96
 150  0.505  0.253  0.874-  31 1.93  22 1.95
 151  0.492  0.756  0.376-  32 1.92  25 2.07
 152  0.498  0.754  0.874-  24 1.94  33 2.02
 153  0.245  0.491  0.125-  44 1.97  36 1.98
 154  0.749  0.002  0.127-  46 2.00  38 2.05
 155  0.746  0.994  0.624-  39 1.99  47 2.06
 156  0.251  0.005  0.376-  35 2.03  42 2.05
 157  0.244  0.996  0.874-  43 2.02  34 2.03
 158  0.247  0.513  0.375-  44 1.93  37 2.05
 159  0.259  0.500  0.874-  36 1.93  45 2.06
 160  0.745  0.507  0.375-  41 2.03  48 2.04
 161  0.752  0.506  0.874-  40 2.03  49 2.04
 162  0.252  0.756  0.125-  60 2.02  52 2.04
 163  0.249  0.753  0.625-  61 2.04  53 2.04
 164  0.756  0.262  0.624-  55 1.96  63 1.99
 165  0.752  0.750  0.126-  64 2.02  56 2.04
 166  0.747  0.749  0.625-  57 2.01  65 2.05
 167  0.237  0.236  0.373-   1 1.92  58 2.09  51 2.12
 168  0.249  0.249  0.874-  50 1.99  59 2.01
 169  0.751  0.242  0.374-  55 1.93  62 2.04
 170  0.748  0.244  0.876-  63 1.94  54 2.03
 171  0.127  0.003  0.001-  34 2.01   2 2.02
 172  0.125  0.008  0.497-  35 1.95   3 1.96
 173  0.124  0.503  0.493-  37 2.02   5 2.02
 174  0.625  0.003  0.008-   6 2.02  38 2.05
 175  0.624  0.985  0.503-   7 1.93  39 1.98
 176  0.624  0.496  0.498-  41 2.02   9 2.05
 177  0.127  1.000  0.748-  11 1.95  43 2.02
 178  0.124  0.511  0.248-  12 2.03  44 2.04
 179  0.123  0.493  0.762-  45 1.94  13 2.04
 180  0.624  0.995  0.742-  47 1.94  15 2.03
 181  0.625  0.506  0.249-  48 2.03  16 2.04
 182  0.626  0.493  0.755-  17 1.94  49 2.03
 183  0.126  0.249  0.997-  18 2.00  50 2.05
 184  0.129  0.235  0.501-  51 1.96  19 2.04   1 2.23
 185  0.125  0.745  0.001-  52 1.96  20 1.97
 186  0.124  0.748  0.496-  53 1.96  21 1.96
 187  0.626  0.248  1.000-  22 2.02  54 2.04
 188  0.127  0.225  0.248-  58 2.02  26 2.03   1 2.08
 189  0.123  0.754  0.751-  61 1.93  29 2.02
 190  0.626  0.755  0.751-  33 1.93  65 2.03
 191  0.377  0.004  0.495-   7 1.91  35 1.98
 192  0.373  0.495  0.007-  36 2.02   8 2.03
 193  0.874  0.002  0.508-  39 1.92   3 1.95
 194  0.875  0.497  0.999-   4 2.02  40 2.05
 195  0.377  0.990  0.256-  14 2.02  42 2.05
 196  0.374  0.498  0.741-  17 1.97  45 1.97
 197  0.874  0.992  0.248-  46 2.01  10 2.05
 198  0.874  0.994  0.743-  47 1.96  11 1.98
 199  0.378  0.243  0.488-  51 1.95  23 2.01
 200  0.377  0.758  0.002-  52 1.94  24 2.02
 201  0.377  0.745  0.503-  53 1.95  25 2.01
 202  0.869  0.252  0.496-  55 1.95  19 1.99
 203  0.872  0.755  0.999-  20 1.95  56 2.01
 204  0.872  0.746  0.503-  21 1.94  57 2.02
 205  0.378  0.263  0.254-  58 1.94  30 2.04
 206  0.376  0.249  0.757-  31 2.02  59 2.05
 207  0.377  0.755  0.247-  32 2.01  60 2.06
 208  0.375  0.755  0.749-  33 1.97  61 1.97
 209  0.874  0.262  0.256-  26 1.94  62 2.04
 210  0.874  0.253  0.751-  63 2.02  27 2.04
 211  0.874  0.756  0.249-  64 1.98  28 2.05
 212  0.004  0.127  0.009-  18 2.02   2 2.03
 213  0.995  0.120  0.519-   3 1.99  19 2.01
 214  0.993  0.625  0.002-   4 2.01  20 2.06
 215  0.000  0.627  0.503-   5 1.94  21 2.02
 216  0.504  0.124  0.996-   6 2.02  22 2.07
 217  0.489  0.627  0.998-  24 2.01   8 2.05
 218  0.506  0.626  0.495-  25 1.96   9 1.98
 219  0.984  0.127  0.235-  10 1.95  26 2.05
 220  0.992  0.623  0.247-  28 1.94  12 2.03
 221  0.011  0.624  0.747-  13 1.97  29 1.98
 222  0.494  0.626  0.257-  32 1.94  16 2.00
 223  0.003  0.378  0.485-   5 1.94  19 2.02
 224  0.493  0.372  0.509-  23 1.97   9 1.97
 225  0.489  0.878  0.500-  25 1.96   7 2.02
 226  0.996  0.374  0.760-  13 1.93  27 2.05
 227  0.005  0.877  0.260-  10 1.97  28 2.00
 228  1.000  0.876  0.757-  29 1.93  11 2.04
 229  0.510  0.371  0.239-  16 1.96  30 2.02
 230  0.496  0.373  0.743-  31 2.02  17 2.04
 231  0.503  0.876  0.244-  32 1.94  14 2.05
 232  0.502  0.875  0.752-  15 2.01  33 2.06
 233  0.247  0.125  0.995-  34 1.96  50 1.97
 234  0.253  0.124  0.496-  35 2.03  51 2.07
 235  0.247  0.626  0.507-  53 1.99  37 2.04
 236  0.745  0.126  0.005-  54 1.94  38 1.95
 237  0.762  0.625  0.005-  56 1.94  40 1.95
 238  0.744  0.626  0.503-  57 1.95  41 1.98
 239  0.267  0.127  0.252-  42 1.95  58 2.05
 240  0.251  0.125  0.756-  43 1.97  59 1.97
 241  0.257  0.623  0.239-  60 1.94  44 2.04
 242  0.767  0.126  0.247-  62 1.95  46 1.96
 243  0.755  0.625  0.246-  64 1.94  48 1.96
 244  0.739  0.625  0.747-  65 1.97  49 1.98
 245  0.248  0.376  0.994-  50 1.93  36 2.04
 246  0.245  0.874  0.001-  34 1.93  52 2.04
 247  0.747  0.375  0.987-  54 1.94  40 1.96
 248  0.750  0.373  0.489-  41 1.94  55 2.02
 249  0.745  0.875  0.007-  56 1.95  38 1.96
 250  0.758  0.876  0.502-  57 1.94  39 2.02
 251  0.254  0.376  0.759-  59 1.93  45 2.03
 252  0.245  0.876  0.253-  42 1.96  60 1.99
 253  0.247  0.873  0.748-  43 1.92  61 2.04
 254  0.739  0.374  0.265-  62 1.94  48 1.96
 255  0.754  0.373  0.759-  49 1.94  63 2.04
 256  0.746  0.876  0.245-  46 1.95  64 1.95
 257  0.751  0.875  0.746-  65 1.93  47 2.03
 

IMPORTANT INFORMATION: All symmetrisations will be switched off!
NOSYMM: (Re-)initialisation of all symmetry stuff for point group C_1.

 
 
 KPOINTS: Title                                   

Automatic generation of k-mesh.
Space group operators:
 irot       det(A)        alpha          n_x          n_y          n_z        tau_x        tau_y        tau_z
    1     1.000000     0.000001     1.000000     0.000000     0.000000     0.000000     0.000000     0.000000
 
 Subroutine IBZKPT returns following result:
 ===========================================
 
 Found      4 irreducible k-points:
 
 Following reciprocal coordinates:
            Coordinates               Weight
  0.250000  0.250000  0.250000      2.000000
 -0.250000  0.250000  0.250000      2.000000
  0.250000 -0.250000  0.250000      2.000000
 -0.250000 -0.250000  0.250000      2.000000
 
 Following cartesian coordinates:
            Coordinates               Weight
  0.016206  0.016206  0.016206      2.000000
 -0.016206  0.016206  0.016206      2.000000
  0.016206 -0.016206  0.016206      2.000000
 -0.016206 -0.016206  0.016206      2.000000
 


--------------------------------------------------------------------------------------------------------




 Dimension of arrays:
   k-points           NKPTS =      4   k-points in BZ     NKDIM =      4   number of bands    NBANDS=   1164
   number of dos      NEDOS =   3001   number of ions     NIONS =    257
   non local maximal  LDIM  =      6   non local SUM 2l+1 LMDIM =     18
   total plane-waves  NPLWV = ******
   max r-space proj   IRMAX =   7595   max aug-charges    IRDMAX= 146383
   dimension x,y,z NGX =   120 NGY =  120 NGZ =  120
   dimension x,y,z NGXF=   240 NGYF=  240 NGZF=  240
   support grid    NGXF=   480 NGYF=  480 NGZF=  480
   ions per type =               1  64  64 128
   NGX,Y,Z   is equivalent  to a cutoff of  12.93, 12.93, 12.93 a.u.
   NGXF,Y,Z  is equivalent  to a cutoff of  25.86, 25.86, 25.86 a.u.

 SYSTEM =  LTO                                     
 POSCAR =  config 02                               

 Startparameter for this run:
   NWRITE =      2    write-flag & timer
   PREC   = accura    normal or accurate (medium, high low for compatibility)
   ISTART =      1    job   : 0-new  1-cont  2-samecut
   ICHARG =      0    charge: 1-file 2-atom 10-const
   ISPIN  =      2    spin polarized calculation?
   LNONCOLLINEAR =      F non collinear calculations
   LSORBIT =      F    spin-orbit coupling
   INIWAV =      1    electr: 0-lowe 1-rand  2-diag
   LASPH  =      T    aspherical Exc in radial PAW
   METAGGA=      F    non-selfconsistent MetaGGA calc.

 Electronic Relaxation 1
   ENCUT  =  500.0 eV  36.75 Ry    6.06 a.u.  28.13 28.13 28.13*2*pi/ulx,y,z
   ENINI  =  500.0     initial cutoff
   ENAUG  =  628.9 eV  augmentation charge cutoff
   NELM   =     60;   NELMIN=  2; NELMDL=  0     # of ELM steps 
   EDIFF  = 0.1E-05   stopping-criterion for ELM
   LREAL  =      T    real-space projection
   NLSPLINE    = F    spline interpolate recip. space projectors
   LCOMPAT=      F    compatible to vasp.4.4
   GGA_COMPAT  = T    GGA compatible to vasp.4.4-vasp.4.6
   LMAXPAW     = -100 max onsite density
   LMAXMIX     =    4 max onsite mixed and CHGCAR
   VOSKOWN=      0    Vosko Wilk Nusair interpolation
   ROPT   =   -0.00010  -0.00010  -0.00010  -0.00010
 Ionic relaxation
   EDIFFG = -.5E-01   stopping-criterion for IOM
   NSW    =    100    number of steps for IOM
   NBLOCK =      1;   KBLOCK =    100    inner block; outer block 
   IBRION =      1    ionic relax: 0-MD 1-quasi-New 2-CG
   NFREE  =      0    steps in history (QN), initial steepest desc. (CG)
   ISIF   =      2    stress and relaxation
   IWAVPR =     11    prediction:  0-non 1-charg 2-wave 3-comb
   ISYM   =      0    0-nonsym 1-usesym 2-fastsym
   LCORR  =      T    Harris-Foulkes like correction to forces

   POTIM  = 0.5000    time-step for ionic-motion
   TEIN   =    0.0    initial temperature
   TEBEG  =    0.0;   TEEND  =   0.0 temperature during run
   SMASS  =  -3.00    Nose mass-parameter (am)
   estimated Nose-frequenzy (Omega)   =  0.10E-29 period in steps =****** mass=  -0.544E-26a.u.
   SCALEE = 1.0000    scale energy and forces
   NPACO  =    256;   APACO  = 16.0  distance and # of slots for P.C.
   PSTRESS=    0.0 pullay stress

  Mass of Ions in am
   POMASS =   7.01 47.88 16.00 19.00
  Ionic Valenz
   ZVAL   =   3.00 10.00  6.00  7.00
  Atomic Wigner-Seitz radii
   RWIGS  =  -1.00 -1.00 -1.00 -1.00
  virtual crystal weights 
   VCA    =   1.00  1.00  1.00  1.00
   NELECT =    1923.0000    total number of electrons
   NUPDOWN=       1.0000    fix difference up-down

 DOS related values:
   EMIN   =  10.00;   EMAX   =-10.00  energy-range for DOS
   EFERMI =   0.00
   ISMEAR =     0;   SIGMA  =   0.01  broadening in eV -4-tet -1-fermi 0-gaus

 Electronic relaxation 2 (details)
   IALGO  =     38    algorithm
   LDIAG  =      T    sub-space diagonalisation (order eigenvalues)
   LSUBROT=      F    optimize rotation matrix (better conditioning)
   TURBO    =      0    0=normal 1=particle mesh
   IRESTART =      0    0=no restart 2=restart with 2 vectors
   NREBOOT  =      0    no. of reboots
   NMIN     =      0    reboot dimension
   EREF     =   0.00    reference energy to select bands
   IMIX   =      4    mixing-type and parameters
     AMIX     =   0.40;   BMIX     =  1.00
     AMIX_MAG =   1.60;   BMIX_MAG =  1.00
     AMIN     =   0.10
     WC   =   100.;   INIMIX=   1;  MIXPRE=   1;  MAXMIX= -45

 Intra band minimization:
   WEIMIN = 0.0010     energy-eigenvalue tresh-hold
   EBREAK =  0.21E-09  absolut break condition
   DEPER  =   0.30     relativ break condition  

   TIME   =   0.40     timestep for ELM

  volume/ion in A,a.u.               =      14.28        96.39
  Fermi-wavevector in a.u.,A,eV,Ry     =   1.319690  2.493853 23.695660  1.741582
  Thomas-Fermi vector in A             =   2.449570
 
 Write flags
   LWAVE        =      T    write WAVECAR
   LDOWNSAMPLE  =      F    k-point downsampling of WAVECAR
   LCHARG       =      T    write CHGCAR
   LVTOT        =      F    write LOCPOT, total local potential
   LVHAR        =      F    write LOCPOT, Hartree potential only
   LELF         =      F    write electronic localiz. function (ELF)
   LORBIT       =     11    0 simple, 1 ext, 2 COOP (PROOUT), +10 PAW based schemes


 Dipole corrections
   LMONO  =      F    monopole corrections only (constant potential shift)
   LDIPOL =      F    correct potential (dipole corrections)
   IDIPOL =      0    1-x, 2-y, 3-z, 4-all directions 
   EPSILON=  1.0000000 bulk dielectric constant

 LDA+U is selected, type is set to LDAUTYPE =  2
   angular momentum for each species LDAUL =    -1    2   -1   -1
   U (eV)           for each species LDAUU =   0.0  4.2  0.0  0.0
   J (eV)           for each species LDAUJ =   0.0  0.0  0.0  0.0
 Exchange correlation treatment:
   GGA     =    PS    GGA type
   LEXCH   =    14    internal setting for exchange type
   VOSKOWN=      0    Vosko Wilk Nusair interpolation
   LHFCALC =     F    Hartree Fock is set to
   LHFONE  =     F    Hartree Fock one center treatment
   AEXX    =    0.0000 exact exchange contribution

 Linear response parameters
   LEPSILON=     F    determine dielectric tensor
   LRPA    =     F    only Hartree local field effects (RPA)
   LNABLA  =     F    use nabla operator in PAW spheres
   LVEL    =     F    velocity operator in full k-point grid
   LINTERFAST=   F  fast interpolation
   KINTER  =     0    interpolate to denser k-point grid
   CSHIFT  =0.1000    complex shift for real part using Kramers Kronig
   OMEGAMAX=  -1.0    maximum frequency
   DEG_THRESHOLD= 0.2000000E-02 threshold for treating states as degnerate
   RTIME   =   -0.100 relaxation time in fs
  (WPLASMAI=    0.000 imaginary part of plasma frequency in eV, 0.658/RTIME)
   DFIELD  = 0.0000000 0.0000000 0.0000000 field for delta impulse in time
 
 Orbital magnetization related:
   ORBITALMAG=     F  switch on orbital magnetization
   LCHIMAG   =     F  perturbation theory with respect to B field
   DQ        =  0.001000  dq finite difference perturbation B field
   LLRAUG    =     F  two centre corrections for induced B field



--------------------------------------------------------------------------------------------------------


 quasi-Newton-method for relaxation of ions
 charge density and potential will be updated during run
 spin polarized calculation
 Variant of blocked Davidson
 Davidson routine will perform the subspace rotation
 perform sub-space diagonalisation
    after iterative eigenvector-optimisation
 modified Broyden-mixing scheme, WC =      100.0
 initial mixing is a Kerker type mixing with AMIX =  0.4000 and BMIX =      1.0000
 Hartree-type preconditioning will be used
 using additional bands          202
 real space projection scheme for non local part
 use partial core corrections
 calculate Harris-corrections to forces 
   (improved forces if not selfconsistent)
 use gradient corrections 
 use of overlap-Matrix (Vanderbilt PP)
 Gauss-broadening in eV      SIGMA  =   0.01


--------------------------------------------------------------------------------------------------------


  energy-cutoff  :      500.00
  volume of cell :     3671.03
      direct lattice vectors                 reciprocal lattice vectors
    15.426331000  0.000000000  0.000000000     0.064824228  0.000000000  0.000000000
     0.000000000 15.426331000  0.000000000     0.000000000  0.064824228  0.000000000
     0.000000000  0.000000000 15.426331000     0.000000000  0.000000000  0.064824228

  length of vectors
    15.426331000 15.426331000 15.426331000     0.064824228  0.064824228  0.064824228


 
 old parameters found on file WAVECAR:
  energy-cutoff  :      500.00
  volume of cell :     3671.03
      direct lattice vectors                 reciprocal lattice vectors
    15.426331000  0.000000000  0.000000000     0.064824228  0.000000000  0.000000000
     0.000000000 15.426331000  0.000000000     0.000000000  0.064824228  0.000000000
     0.000000000  0.000000000 15.426331000     0.000000000  0.000000000  0.064824228

  length of vectors

 
 k-points in units of 2pi/SCALE and weight: Title                                   
   0.01620606  0.01620606  0.01620606       0.250
  -0.01620606  0.01620606  0.01620606       0.250
   0.01620606 -0.01620606  0.01620606       0.250
  -0.01620606 -0.01620606  0.01620606       0.250
 
 k-points in reciprocal lattice and weights: Title                                   
   0.25000000  0.25000000  0.25000000       0.250
  -0.25000000  0.25000000  0.25000000       0.250
   0.25000000 -0.25000000  0.25000000       0.250
  -0.25000000 -0.25000000  0.25000000       0.250
 
 position of ions in fractional coordinates (direct lattice) 
   0.13170562  0.16999622  0.37170163
   0.99570457  0.99591627  0.99399035
   0.99930965  0.99361019  0.49358795
   0.00582366  0.49547488  0.99709429
   0.99350392  0.50152107  0.50678828
   0.49471379  0.99417251  0.00005682
   0.50078855  0.00791679  0.49953450
   0.50429675  0.49552647  0.99615237
   0.49138091  0.49885813  0.49524357
   0.00655300  0.00427960  0.25611449
   0.00145199  0.00819952  0.75624984
   0.99413810  0.49190971  0.25265744
   0.99254554  0.49804327  0.74165509
   0.50587258  0.00900811  0.25077564
   0.49286801  0.00509635  0.75202711
   0.49303573  0.49585583  0.25737259
   0.50081089  0.50409680  0.75855588
   0.99639927  0.25733020  0.00145813
   0.99809404  0.24757687  0.49483186
   0.99823619  0.75875456  0.00560766
   0.99762386  0.75807409  0.50537630
   0.49579564  0.25813482  0.00051946
   0.50834375  0.24549765  0.49974866
   0.50737686  0.75636999  0.99940272
   0.50663140  0.75244358  0.50899231
   0.99963766  0.25656572  0.25856402
   0.00637194  0.24228495  0.74737612
   0.00656444  0.74837491  0.24299392
   0.99286894  0.75136003  0.74315389
   0.50820005  0.24100991  0.25127539
   0.50664721  0.24301134  0.74960531
   0.50655939  0.75085353  0.25200228
   0.50173375  0.74191430  0.74374654
   0.25671480  0.99835390  0.00531470
   0.25025833  0.99234392  0.50675174
   0.24368616  0.50794461  0.99778179
   0.25355919  0.49370296  0.50625523
   0.75765199  0.00044154  0.99464732
   0.75001085  0.00679449  0.49506057
   0.74192581  0.50039412  0.00536932
   0.75504854  0.49761748  0.50548827
   0.24509672  0.00270373  0.24295571
   0.25763412  0.99766568  0.74431730
   0.25493297  0.49158130  0.25183324
   0.24692480  0.50577313  0.74079876
   0.74471171  0.00127051  0.25626613
   0.74835128  0.00643936  0.75640300
   0.75610140  0.49793027  0.24313044
   0.75714988  0.49787312  0.74272918
   0.25845572  0.25169072  0.00320628
   0.25447824  0.25718950  0.50751840
   0.25210251  0.74223824  0.99368795
   0.25131613  0.75411537  0.49245943
   0.75845290  0.25099474  0.00693042
   0.74309146  0.24240241  0.49896104
   0.74197661  0.74925264  0.99409966
   0.74141748  0.75184528  0.49409109
   0.25301626  0.25883890  0.24025172
   0.24423406  0.25186234  0.74416440
   0.24357861  0.74710285  0.25545781
   0.24796687  0.74140117  0.75631403
   0.74281564  0.25023414  0.24218213
   0.74391383  0.24204460  0.75057533
   0.74560332  0.74960842  0.25684044
   0.75747294  0.75045100  0.75676942
   0.00675336  0.49277519  0.62466552
   0.99695969  0.01497358  0.37594654
   0.99944465  0.00958733  0.87275230
   0.49980760  0.49168001  0.37510465
   0.49431888  0.49580245  0.87488828
   0.99895833  0.75412840  0.12572767
   0.00121404  0.75505858  0.62437040
   0.50152935  0.75138227  0.62483902
   0.01494100  0.22855780  0.37246662
   0.25377244  0.00179683  0.12525553
   0.25393462  0.00209787  0.62521221
   0.23984906  0.49185464  0.62554675
   0.75067754  0.49062637  0.12573163
   0.74568620  0.49303068  0.62452870
   0.75026160  0.00100056  0.37616199
   0.74677226  0.99957525  0.87404843
   0.25129041  0.25255897  0.12374452
   0.25853308  0.25199719  0.62576438
   0.74922950  0.25968288  0.12657364
   0.25475859  0.74463665  0.37447315
   0.25149341  0.75017185  0.87510629
   0.75213352  0.75040623  0.37413030
   0.74834063  0.75121293  0.87569015
   0.12462037  0.50447396  0.99534520
   0.62560754  0.50807419  0.99891263
   0.12584753  0.01585123  0.25447665
   0.62477760  0.00822988  0.25029163
   0.62343968  0.25516880  0.50251259
   0.62451780  0.74125375  0.00333386
   0.62410732  0.76006203  0.49577577
   0.12515612  0.25195042  0.74598306
   0.12542609  0.74452220  0.25166674
   0.62541456  0.23690558  0.25371728
   0.62518721  0.25277179  0.74329388
   0.62260691  0.74719284  0.25110591
   0.37605202  0.99940391  0.99302715
   0.37464289  0.50370098  0.50319976
   0.87350672  0.00179398  0.00140993
   0.87415675  0.50132622  0.49901919
   0.37598561  0.99705680  0.75655976
   0.37351415  0.49010708  0.24928308
   0.87537564  0.49012228  0.25339312
   0.87498914  0.50702669  0.74691123
   0.37619379  0.24876257  0.99776450
   0.87504177  0.24843301  0.00145325
   0.87472422  0.74404480  0.74928576
   0.50760639  0.12223313  0.49382502
   0.99743984  0.12605880  0.73642403
   0.48818759  0.12495401  0.26402012
   0.50180106  0.12359786  0.74893263
   0.50158366  0.62519439  0.75150200
   0.00137844  0.37490103  0.99590878
   0.00261731  0.87530418  0.99415164
   0.99936301  0.87551152  0.49004540
   0.50375392  0.37390146  0.00830206
   0.50504755  0.87543015  0.00553488
   0.01240660  0.37332324  0.25928377
   0.25634173  0.62515819  0.00453274
   0.74280895  0.12444466  0.50622682
   0.24765670  0.62432766  0.74715769
   0.75099472  0.12463437  0.74373155
   0.25022258  0.37253481  0.48999298
   0.25035622  0.87500317  0.49797305
   0.23654954  0.37365364  0.25842367
   0.00232364  0.99415519  0.12716304
   0.00485756  0.98759668  0.62451637
   0.00007863  0.49843450  0.12536491
   0.49423730  0.00870949  0.12664933
   0.49709849  0.99676708  0.62307756
   0.50114001  0.50799737  0.12751075
   0.50630264  0.50160076  0.62467539
   0.00369024  0.51063125  0.37557655
   0.99595930  0.50645267  0.87288336
   0.50322928  0.98752054  0.37668886
   0.51445413  0.99815744  0.87519030
   0.00423590  0.25511832  0.12791238
   0.99539058  0.26700753  0.62323716
   0.50007980  0.23766714  0.12678502
   0.48798513  0.24550233  0.62289212
   0.49560699  0.74446728  0.12701195
   0.99975198  0.24136193  0.87455086
   0.99421665  0.74282064  0.37494846
   0.00159256  0.74385152  0.87417351
   0.49969564  0.26432921  0.37566042
   0.50541435  0.25323615  0.87429424
   0.49240882  0.75592500  0.37557571
   0.49804714  0.75397372  0.87425724
   0.24509528  0.49127887  0.12474639
   0.74942223  0.00217756  0.12702325
   0.74633446  0.99418622  0.62361371
   0.25142702  0.00474925  0.37550096
   0.24373101  0.99627983  0.87439285
   0.24700370  0.51252359  0.37475527
   0.25876640  0.50038630  0.87356287
   0.74525172  0.50693189  0.37459583
   0.75183791  0.50605107  0.87441307
   0.25209425  0.75641412  0.12517436
   0.24884934  0.75251261  0.62484078
   0.75558925  0.26160003  0.62376728
   0.75241116  0.74952866  0.12612968
   0.74699513  0.74942820  0.62451128
   0.23712271  0.23629758  0.37287627
   0.24866086  0.24900982  0.87442533
   0.75146186  0.24171697  0.37408565
   0.74803988  0.24385003  0.87613477
   0.12653844  0.00274251  0.00119280
   0.12545753  0.00824370  0.49652708
   0.12374649  0.50296575  0.49305424
   0.62532812  0.00271090  0.00775415
   0.62351616  0.98481263  0.50258183
   0.62407536  0.49556209  0.49831935
   0.12705177  0.99991704  0.74798411
   0.12423687  0.51135709  0.24828468
   0.12332085  0.49318011  0.76211774
   0.62368013  0.99458081  0.74183161
   0.62468068  0.50567723  0.24940035
   0.62611399  0.49254601  0.75523119
   0.12594580  0.24876192  0.99737558
   0.12946653  0.23494779  0.50105638
   0.12528531  0.74465244  0.00107664
   0.12418598  0.74769953  0.49588666
   0.62641005  0.24773454  0.99974033
   0.12687704  0.22506236  0.24844396
   0.12347346  0.75405257  0.75105397
   0.62612418  0.75453678  0.75082322
   0.37730354  0.00404823  0.49532366
   0.37339953  0.49467838  0.00731303
   0.87381207  0.00153257  0.50830476
   0.87468888  0.49700406  0.99898534
   0.37669557  0.99020699  0.25586781
   0.37447775  0.49830892  0.74137971
   0.87420617  0.99192782  0.24798325
   0.87438712  0.99418909  0.74263604
   0.37836459  0.24330399  0.48819688
   0.37658092  0.75768714  0.00189819
   0.37675888  0.74464966  0.50251614
   0.86887776  0.25197830  0.49622731
   0.87233327  0.75497434  0.99920863
   0.87218382  0.74554485  0.50324639
   0.37795435  0.26332218  0.25430584
   0.37620618  0.24902897  0.75683669
   0.37651849  0.75509801  0.24730982
   0.37497969  0.75450786  0.74860861
   0.87384726  0.26166553  0.25577035
   0.87435244  0.25313632  0.75084039
   0.87381207  0.75566263  0.24929485
   0.00393226  0.12670991  0.00904286
   0.99495161  0.11970338  0.51942092
   0.99328473  0.62536843  0.00197925
   0.00043785  0.62704974  0.50298612
   0.50401820  0.12444883  0.99594676
   0.48905156  0.62730883  0.99837816
   0.50584023  0.62647083  0.49489841
   0.98362172  0.12678126  0.23526754
   0.99176998  0.62325296  0.24656390
   0.01050709  0.62447027  0.74679661
   0.49362513  0.62576075  0.25682759
   0.00299104  0.37819431  0.48506179
   0.49296607  0.37181998  0.50894652
   0.48918460  0.87772351  0.50042209
   0.99553119  0.37403368  0.76024841
   0.00505115  0.87674142  0.25952840
   0.99969558  0.87577773  0.75675825
   0.51005861  0.37119865  0.23944068
   0.49601314  0.37307628  0.74329902
   0.50286058  0.87619043  0.24442048
   0.50201859  0.87526024  0.75152169
   0.24742427  0.12485792  0.99471656
   0.25309952  0.12353197  0.49601780
   0.24698313  0.62593979  0.50655294
   0.74483227  0.12606956  0.00457497
   0.76175833  0.62537467  0.00481160
   0.74354508  0.62553784  0.50272916
   0.26720945  0.12699916  0.25202217
   0.25081243  0.12457003  0.75553447
   0.25722223  0.62312675  0.23931534
   0.76652799  0.12600582  0.24654071
   0.75514468  0.62484193  0.24581366
   0.73907075  0.62472126  0.74677033
   0.24810423  0.37601009  0.99408012
   0.24488594  0.87395778  0.00121463
   0.74690261  0.37473328  0.98713183
   0.74999250  0.37280265  0.48859250
   0.74479734  0.87488241  0.00703960
   0.75849314  0.87606411  0.50222101
   0.25431755  0.37580424  0.75885226
   0.24523263  0.87616426  0.25340262
   0.24713744  0.87338340  0.74785018
   0.73868813  0.37368072  0.26499602
   0.75449749  0.37343990  0.75912536
   0.74586370  0.87552518  0.24544869
   0.75099148  0.87508345  0.74572327
 
 position of ions in cartesian coordinates  (Angst):
   2.03173455  2.62241789  5.73399236
  15.36006829 15.36333410 15.33362420
  15.41568147 15.32775962  7.61425113
   0.08983773  7.64335954 15.38150663
  15.32612031  7.73663010  7.81788368
   7.63161860 15.33643414  0.00087652
   7.72533000  0.12212709  7.70598448
   7.77944863  7.64415541 15.36697619
   7.58020458  7.69555068  7.63979123
   0.10108878  0.06601854  3.95090692
   0.02239882  0.12648857 11.66616033
  15.33590332  7.58836202  3.89757730
  15.31133606  7.68298035 11.44101693
   7.80375787  0.13896205  3.86854798
   7.60314507  0.07861801 11.60101915
   7.60573234  7.64923609  3.97031472
   7.72567458  7.77636408 11.70173411
  15.37078488  3.96966088  0.02249365
  15.39692905  3.81920282  7.63344013
  15.39912186 11.70479896  0.08650564
  15.38967583 11.69430189  7.79610207
   7.64830758  3.98207321  0.00801331
   7.84187898  3.78712797  7.70928822
   7.82696345 11.66801387 15.41711719
   7.81546367 11.60744367  7.85188392
  15.42074149  3.95786776  3.98869411
   0.09829571  3.73756776 11.52927137
   0.10126527 11.54467912  3.74850467
  15.31632487 11.59072855 11.46413788
   7.83966218  3.71789867  3.87625738
   7.81570748  3.74877329 11.56365963
   7.81435277 11.58291507  3.88747065
   7.73991094 11.44501555 11.47328027
   3.96016741 15.40093772  0.08198629
   3.86056787 15.30822575  7.81732009
   3.75918340  7.83572166 15.39211217
   3.91148802  7.61602524  7.80966082
  11.68779042  0.00681139 15.34375883
  11.56991568  0.10481411  7.63696821
  11.44519316  7.71924537  0.08282895
  11.64762868  7.67641193  7.79782933
   3.78094313  0.04170868  3.74791525
   3.97434923 15.39032101 11.48208497
   3.93268035  7.58329582  3.88486290
   3.80914364  7.80222365 11.42780682
  11.48816928  0.01959924  3.95324617
  11.54431457  0.09933568 11.66852308
  11.66387052  7.68123718  3.75061071
  11.68004462  7.68035558 11.45758621
   3.98702351  3.88266434  0.04946115
   3.92566554  3.96749039  7.82914685
   3.88901674 11.45001273 15.32895918
   3.87688588 11.63323338  7.59684218
  11.70014554  3.87192793  0.10691097
  11.46317482  3.73937980  7.69713810
  11.44597681 11.55821915 15.33531033
  11.43735143 11.59821417  7.62201268
   3.90311255  3.99293462  3.70620256
   3.76763543  3.88531186 11.47972631
   3.75752421 11.52505585  3.94077678
   3.82521904 11.43709983 11.66715053
  11.45891988  3.86019473  3.73598166
  11.47586096  3.73386014 11.57862355
  11.50192363 11.56370759  3.96210565
  11.68502827 11.57670549 11.67417560
   0.10417954  7.60171322  9.63629713
  15.37943024  0.23098737  5.79947581
  15.41776398  0.14789740 13.46336580
   7.71019751  7.58481850  5.78648856
   7.62552672  7.64841271 13.49631623
  15.41026184 11.63343435  1.93951672
   0.01872813 11.64778364  9.63174445
   7.73675770 11.59107156  9.63897358
   0.23048474  3.52580829  5.74579341
   3.91477761  0.02771848  1.93223323
   3.91727954  0.03236238  9.64473051
   3.69999100  7.58751255  9.64989115
  11.58020015  7.56856474  1.93957775
  11.50320215  7.60565452  9.63418644
  11.57378382  0.01543496  5.80279932
  11.51995614 15.41977860 13.48336036
   3.87648905  3.89605829  1.90892394
   3.98821679  3.88739210  9.65324838
  11.55786223  4.00595409  1.95256687
   3.92999032 11.48701145  5.77674673
   3.87962066 11.57239921 13.49967921
  11.60266058 11.57601491  5.77145785
  11.54415024 11.58845936 13.50868605
   1.92243509  7.78218231 15.35452455
   9.65082891  7.83772069 15.40955690
   1.94136565  0.24452632  3.92564098
   9.63802611  0.12695679  3.86108146
   9.61738680  3.93631829  7.75192553
   9.63401834 11.43482578  0.05142918
   9.62768612 11.72496846  7.64800114
   1.93069976  3.88667063 11.50778163
   1.93486438 11.48524595  3.88229442
   9.64785205  3.65458392  3.91392674
   9.64434491  3.89934132 11.46629740
   9.60454028 11.52644410  3.87364296
   5.80110286 15.41713559 15.31876556
   5.77936518  7.77025810  7.76252602
  13.47500375  0.02767449  0.02175005
  13.48503143  7.73362418  7.69803517
   5.80007840 15.38092824 11.67094131
   5.76195297  7.56055397  3.84552327
  13.50383431  7.56078849  3.90892620
  13.49787205  7.82156148 11.52209983
   5.80328999  3.83749376 15.39184547
  13.49868397  3.83240988  0.02241839
  13.49378536 11.47788140 11.55873008
   7.83050417  1.88560868  7.61790822
  15.38683709  1.94462471 11.36032080
   7.53094341  1.92758188  4.07286182
   7.74094921  1.90666142 11.55328271
   7.73759553  9.64445557 11.59291858
   0.02126429  5.78334733 15.36321852
   0.04037545 13.50273196 15.33611223
  15.41650460 13.50593047  7.55960261
   7.77107464  5.76792770  0.12807034
   7.79103075 13.50467525  0.08538288
   0.19138826  5.75900793  3.99979730
   3.95441241  9.64389712  0.06992351
  11.45881671  1.91972453  7.80922246
   3.82043428  9.63108514 11.52590190
  11.58509311  1.92265100 11.47304908
   3.86001633  5.74684536  7.55879395
   3.86207793 13.49808853  7.68189702
   3.64909155  5.76410477  3.98652909
   0.03584526 15.33616704  1.96165909
   0.07493437 15.23499326  9.63399630
   0.00121298  7.68901556  1.93392053
   7.62426817  0.13435545  1.95373454
   7.66840592 15.37645891  9.61180061
   7.73075172  7.83653562  1.96702308
   7.81039204  7.73785932  9.63644941
   0.05692693  7.87716667  5.79376818
  15.36399781  7.81270657 13.46538764
   7.76298151 15.23381868  5.81092707
   7.93613967 15.39790712 13.50097522
   0.06534439  3.93553958  1.97321873
  15.35522454  4.11894656  9.61426267
   7.71439649  3.66633195  1.95582766
   7.52782009  3.78720026  9.60894008
   7.64539747 11.48439866  1.95932837
  15.42250497  3.72332906 13.49111108
  15.33711508 11.45899712  5.78407903
   0.02456740 11.47489977 13.48528990
   7.70847027  4.07762981  5.79506201
   7.79668901  3.90650472 13.48715231
   7.59606150 11.66114933  5.79375523
   7.68304006 11.63104824 13.48658163
   3.78092087  7.57863053  1.92437910
  11.56083543  0.03359169  1.95950265
  11.51320246 15.33664569  9.62007144
   3.87859647  0.07326353  5.79260215
   3.75987517 15.36894235 13.48867357
   3.81036091  7.90635855  5.78109877
   3.99181611  7.71912468 13.47587000
  11.49649975  7.82009916  5.77863929
  11.59810043  7.80651128 13.48898552
   3.88888941 11.66869456  1.93098111
   3.83883231 11.60850856  9.63900076
  11.65596986  4.03552865  9.62244058
  11.60694360 11.56247716  1.94571818
  11.52339406 11.56092744  9.63391774
   3.65793346  3.64520474  5.75211271
   3.83592478  3.84130792 13.48917462
  11.59229936  3.72880603  5.77076910
  11.53951083  3.76171131 13.51554491
   1.95202383  0.04230680  0.01840059
   1.93534939  0.12717012  7.65959105
   1.90895424  7.75891621  7.60601793
   9.64651856  0.04181922  0.11961804
   9.61856665 15.19204560  7.75299374
   9.62719308  7.64470478  7.68723927
   1.95994260 15.42505123 11.53865039
   1.91651908  7.88836370  3.83012166
   1.90238823  7.60795967 11.75668057
   9.62109606 15.34273283 11.44373990
   9.63653089  7.80074434  3.84733229
   9.65864161  7.59817782 11.65044633
   1.94288153  3.83748377 15.38584589
   1.99719357  3.62438242  7.72946158
   1.93269259 11.48725500  0.01660867
   1.91573399 11.53426044  7.64971180
   9.66320871  3.82163500 15.42232521
   1.95724724  3.47188651  3.83257882
   1.90474251 11.63226452 11.58600719
   9.65879886 11.63973406 11.58244756
   5.82040934  0.06244937  7.64102679
   5.76018473  7.63107246  0.11281321
  13.47971415  0.02364197  7.84127754
  13.49324025  7.66694908 15.41067846
   5.81103055 15.27526085  3.94710151
   5.77681766  7.68707830 11.43676873
  13.48579382 15.30180691  3.82547164
  13.48858521 15.33669001 11.45614943
   5.83677742  3.75328782  7.53108664
   5.80926187 11.68833264  0.02928204
   5.81200722 11.48721220  7.75198031
  13.40359587  3.88710059  7.65496675
  13.45690173 11.64648412 15.41412308
  13.45459624 11.50102162  7.76324540
   5.83044892  4.06209507  3.92300600
   5.80348106  3.84160339 11.67521326
   5.80829884 11.64839177  3.81508311
   5.78456080 11.63928806 11.54828426
  13.48025711  4.03653914  3.94559805
  13.48805009  3.90496461 11.58271239
  13.47971416 11.65710188  3.84570490
   0.06066034  1.95466903  0.13949821
  15.34845282  1.84658393  8.01275908
  15.32273909  9.64714035  0.03053253
   0.00675437  9.67307685  7.75923032
   7.77515164  1.91978880 15.36380439
   7.54427118  9.67707363 15.40131197
   7.80325878  9.66414646  7.63446662
  15.17367426  1.95576964  3.62931499
  15.29937196  9.61450643  3.80357632
   0.16208589  9.63328515 11.52033167
   7.61482470  9.65319244  3.96190735
   0.04614080  5.83415067  7.48272368
   7.60465772  5.73581811  7.85117747
   7.54632354 13.54005335  7.71967675
  15.35739371  5.76996729 11.72784356
   0.07792068 13.52490328  4.00357105
  15.42163489 13.51003720 11.67400321
   7.86833302  5.72623324  3.69369118
   7.65166294  5.75519820 11.46637679
   7.75729380 13.51640358  3.77051120
   7.74430490 13.50205420 11.59322228
   3.81684871  1.92609961 15.34482683
   3.90439699  1.90564501  7.65173471
   3.81004354  9.65595446  7.81425325
  11.49002909  1.94479075  0.07057503
  11.75113620  9.64723672  0.07422541
  11.47017252  9.64975374  7.75526639
   4.12206139  1.95913104  3.88777740
   3.86911555  1.92165851 11.65512478
   3.96799520  9.61255943  3.69175761
  11.82471456  1.94380750  3.80321861
  11.64911179  9.63901841  3.79200291
  11.40115009  9.63715697 11.51992628
   3.82733794  5.80045605 15.33500895
   3.77769154 13.48196205  0.01873727
  11.52196690  5.78075962 15.22782235
  11.56963263  5.75097708  7.53718963
  11.48949030 13.49622571  0.10859513
  11.70076623 13.51445495  7.74742754
   3.92318672  5.79728056 11.70630613
   3.78303971 13.51599994  3.90907274
   3.81242395 13.47310145 11.53658435
  11.39524753  5.76452242  4.08791635
  11.63912808  5.76080756 11.71051908
  11.50594026 13.50614115  3.78637278
  11.58504317 13.49932696 11.50377406
 


--------------------------------------------------------------------------------------------------------


 k-point  1 :   0.2500 0.2500 0.2500  plane waves:   93161
 k-point  2 :  -0.2500 0.2500 0.2500  plane waves:   93161
 k-point  3 :   0.2500-0.2500 0.2500  plane waves:   93161
 k-point  4 :  -0.2500-0.2500 0.2500  plane waves:   93161

 maximum and minimum number of plane-waves per node :     11686    11606

 maximum number of plane-waves:     93161
 maximum index in each direction: 
   IXMAX=   28   IYMAX=   28   IZMAX=   27
   IXMIN=  -28   IYMIN=  -28   IZMIN=  -28


 real space projection operators:
  total allocation   :     105564.35 KBytes
  max/ min on nodes  :      13248.45      13144.23


 parallel 3D FFT for wavefunctions:
    minimum data exchange during FFTs selected (reduces bandwidth)
 parallel 3D FFT for charge:
    minimum data exchange during FFTs selected (reduces bandwidth)


 total amount of memory used by VASP MPI-rank0   291473. kBytes
=======================================================================

   base      :      30000. kBytes
   nonlr-proj:      49438. kBytes
   fftplans  :      27976. kBytes
   grid      :      34041. kBytes
   one-center:       1026. kBytes
   wavefun   :     148992. kBytes
 
     INWAV:  cpu time   52.8338: real time   53.3230
 Broyden mixing: mesh for mixing (old mesh)
   NGX = 57   NGY = 57   NGZ = 57
  (NGX  =240   NGY  =240   NGZ  =240)
  gives a total of 185193 points

 charge density for first step will be calculated from the start-wavefunctions


--------------------------------------------------------------------------------------------------------


 Maximum index for non-local projection operator          969
 Maximum index for augmentation-charges         3297 (set IRDMAX)


--------------------------------------------------------------------------------------------------------


 initial charge from wavefunction
 First call to EWALD:  gamma=   0.115
 Maximum number of real-space cells 3x 3x 3
 Maximum number of reciprocal cells 3x 3x 3

    FEWALD:  cpu time    0.0269: real time    0.0279


--------------------------------------- Iteration      1(   1)  ---------------------------------------


    POTLOK:  cpu time    0.2763: real time    0.2879
    SETDIJ:  cpu time    1.2346: real time    1.4159
     EDDAV:  cpu time  130.8979: real time  131.7119
       DOS:  cpu time    0.0035: real time    0.0116
    CHARGE:  cpu time    5.1522: real time    5.2686
    MIXING:  cpu time    0.0221: real time    0.0286
    --------------------------------------------
      LOOP:  cpu time  137.5867: real time  138.7246

 eigenvalue-minimisations  : 22920
 total energy-change (2. order) :-0.1850695E+04  (-0.3702512E+03)
 number of electron    1923.0000030 magnetization       1.0000000
 augmentation part      503.3423186 magnetization       0.8801366

 Broyden mixing:
  rms(total) = 0.75633E+01    rms(broyden)= 0.75603E+01
  rms(prec ) = 0.11667E+02
  weight for this iteration     100.00

 Free energy of the ion-electron system (eV)
  ---------------------------------------------------
  alpha Z        PSCENC =      6118.73324990
  Ewald energy   TEWEN  =   -103279.28069226
  -Hartree energ DENC   =    -65330.79439820
  -exchange      EXHF   =         0.00000000
  -V(xc)+E(xc)   XCENC  =      8959.89633361
  PAW double counting   =    198411.57051036  -199407.26766477
  entropy T*S    EENTRO =        -0.00442969
  eigenvalues    EBANDS =    -25900.80016717
  atomic energy  EATOM  =    178577.25249613
  Solvation  Ediel_sol  =         0.00000000
  ---------------------------------------------------
  free energy    TOTEN  =     -1850.69476210 eV

  energy without entropy =    -1850.69033241  energy(sigma->0) =    -1850.69254725


--------------------------------------------------------------------------------------------------------




--------------------------------------- Iteration      1(   2)  ---------------------------------------


    POTLOK:  cpu time    0.3614: real time    0.3861
    SETDIJ:  cpu time    1.4867: real time    1.5086
     EDDAV:  cpu time  147.8183: real time  148.6586
       DOS:  cpu time    0.0029: real time    0.0029
    CHARGE:  cpu time    5.2735: real time    5.2784
    MIXING:  cpu time    0.0139: real time    0.0179
    --------------------------------------------
      LOOP:  cpu time  154.9567: real time  155.8525

 eigenvalue-minimisations  : 26628
 total energy-change (2. order) : 0.2513539E+02  (-0.2637578E+03)
 number of electron    1923.0000030 magnetization       1.0000000
 augmentation part      502.9204206 magnetization       0.4211941

 Broyden mixing:
  rms(total) = 0.78690E+01    rms(broyden)= 0.78650E+01
  rms(prec ) = 0.11321E+02
  weight for this iteration     100.00

 eigenvalues of (default mixing * dielectric matrix)
  average eigenvalue GAMMA=   0.4702
  0.4702

 Free energy of the ion-electron system (eV)
  ---------------------------------------------------
  alpha Z        PSCENC =      6118.73324990
  Ewald energy   TEWEN  =   -103279.28069226
  -Hartree energ DENC   =    -65374.28251013
  -exchange      EXHF   =         0.00000000
  -V(xc)+E(xc)   XCENC  =      8958.41248943
  PAW double counting   =    199975.70014426  -200947.89830177
  entropy T*S    EENTRO =        -0.00503332
  eigenvalues    EBANDS =    -25854.19121015
  atomic energy  EATOM  =    178577.25249613
  Solvation  Ediel_sol  =         0.00000000
  ---------------------------------------------------
  free energy    TOTEN  =     -1825.55936790 eV

  energy without entropy =    -1825.55433459  energy(sigma->0) =    -1825.55685124


--------------------------------------------------------------------------------------------------------




--------------------------------------- Iteration      1(   3)  ---------------------------------------


    POTLOK:  cpu time    0.2660: real time    0.2685
    SETDIJ:  cpu time    1.4984: real time    1.5223
     EDDAV:  cpu time  150.1314: real time  151.0785
       DOS:  cpu time    0.0022: real time    0.0022
    CHARGE:  cpu time    5.2683: real time    5.2712
    MIXING:  cpu time    0.0092: real time    0.0104
    --------------------------------------------
      LOOP:  cpu time  157.1755: real time  158.1531

 eigenvalue-minimisations  : 26988
 total energy-change (2. order) : 0.5844852E+00  (-0.9177866E+02)
 number of electron    1923.0000030 magnetization       1.0000000
 augmentation part      492.9432167 magnetization       0.6549579

 Broyden mixing:
  rms(total) = 0.51451E+01    rms(broyden)= 0.51432E+01
  rms(prec ) = 0.58967E+01
  weight for this iteration     100.00

 eigenvalues of (default mixing * dielectric matrix)
  average eigenvalue GAMMA=   0.4650
  0.4650  0.4650

 Free energy of the ion-electron system (eV)
  ---------------------------------------------------
  alpha Z        PSCENC =      6118.73324990
  Ewald energy   TEWEN  =   -103279.28069226
  -Hartree energ DENC   =    -65441.23799901
  -exchange      EXHF   =         0.00000000
  -V(xc)+E(xc)   XCENC  =      8961.45274055
  PAW double counting   =    199954.31449805  -200924.81620448
  entropy T*S    EENTRO =        -0.00019509
  eigenvalues    EBANDS =    -25791.39277645
  atomic energy  EATOM  =    178577.25249613
  Solvation  Ediel_sol  =         0.00000000
  ---------------------------------------------------
  free energy    TOTEN  =     -1824.97488267 eV

  energy without entropy =    -1824.97468757  energy(sigma->0) =    -1824.97478512


--------------------------------------------------------------------------------------------------------




--------------------------------------- Iteration      1(   4)  ---------------------------------------


    POTLOK:  cpu time    0.2617: real time    0.2620
    SETDIJ:  cpu time    1.4101: real time    1.4111
     EDDAV:  cpu time  143.9652: real time  145.0162
       DOS:  cpu time    0.0017: real time    0.0017
    CHARGE:  cpu time    5.2126: real time    5.2158
    MIXING:  cpu time    0.0180: real time    0.0184
    --------------------------------------------
      LOOP:  cpu time  150.8692: real time  151.9253

 eigenvalue-minimisations  : 25608
 total energy-change (2. order) : 0.3266872E+02  (-0.2467394E+02)
 number of electron    1923.0000030 magnetization       1.0000000
 augmentation part      494.1796383 magnetization       0.6194029

 Broyden mixing:
  rms(total) = 0.36305E+01    rms(broyden)= 0.36299E+01
  rms(prec ) = 0.42130E+01
  weight for this iteration     100.00

 eigenvalues of (default mixing * dielectric matrix)
  average eigenvalue GAMMA=   0.5953
  0.6370  0.6370  0.5118

 Free energy of the ion-electron system (eV)
  ---------------------------------------------------
  alpha Z        PSCENC =      6118.73324990
  Ewald energy   TEWEN  =   -103279.28069226
  -Hartree energ DENC   =    -65414.14581998
  -exchange      EXHF   =         0.00000000
  -V(xc)+E(xc)   XCENC  =      8966.74039598
  PAW double counting   =    200062.48360471  -201047.36212581
  entropy T*S    EENTRO =        -0.00000000
  eigenvalues    EBANDS =    -25776.72726862
  atomic energy  EATOM  =    178577.25249613
  Solvation  Ediel_sol  =         0.00000000
  ---------------------------------------------------
  free energy    TOTEN  =     -1792.30615996 eV

  energy without entropy =    -1792.30615996  energy(sigma->0) =    -1792.30615996


--------------------------------------------------------------------------------------------------------




--------------------------------------- Iteration      1(   5)  ---------------------------------------


    POTLOK:  cpu time    0.3292: real time    0.3299
    SETDIJ:  cpu time    1.4205: real time    1.4208
     EDDAV:  cpu time  147.3496: real time  148.2847
       DOS:  cpu time    0.0017: real time    0.0017
    CHARGE:  cpu time    5.2995: real time    5.3026
    MIXING:  cpu time    0.0139: real time    0.0142
    --------------------------------------------
      LOOP:  cpu time  154.4144: real time  155.3540

 eigenvalue-minimisations  : 26580
 total energy-change (2. order) : 0.2511730E+02  (-0.8902426E+01)
 number of electron    1923.0000030 magnetization       1.0000000
 augmentation part      494.7898216 magnetization       0.6375132

 Broyden mixing:
  rms(total) = 0.20627E+01    rms(broyden)= 0.20622E+01
  rms(prec ) = 0.23752E+01
  weight for this iteration     100.00

 eigenvalues of (default mixing * dielectric matrix)
  average eigenvalue GAMMA=   0.6194
  0.7488  0.7488  0.4901  0.4901

 Free energy of the ion-electron system (eV)
  ---------------------------------------------------
  alpha Z        PSCENC =      6118.73324990
  Ewald energy   TEWEN  =   -103279.28069226
  -Hartree energ DENC   =    -65417.54346043
  -exchange      EXHF   =         0.00000000
  -V(xc)+E(xc)   XCENC  =      8970.81962972
  PAW double counting   =    199591.61245115  -200588.05490481
  entropy T*S    EENTRO =        -0.00000000
  eigenvalues    EBANDS =    -25740.72762633
  atomic energy  EATOM  =    178577.25249613
  Solvation  Ediel_sol  =         0.00000000
  ---------------------------------------------------
  free energy    TOTEN  =     -1767.18885693 eV

  energy without entropy =    -1767.18885693  energy(sigma->0) =    -1767.18885693


--------------------------------------------------------------------------------------------------------




--------------------------------------- Iteration      1(   6)  ---------------------------------------


    POTLOK:  cpu time    0.2673: real time    0.2697
    SETDIJ:  cpu time    1.3815: real time    1.3827
     EDDAV:  cpu time  150.5271: real time  151.6652
       DOS:  cpu time    0.0018: real time    0.0018
    CHARGE:  cpu time    5.2602: real time    5.2627
    MIXING:  cpu time    0.0105: real time    0.0110
    --------------------------------------------
      LOOP:  cpu time  157.4484: real time  158.5931

 eigenvalue-minimisations  : 27120
 total energy-change (2. order) : 0.6181904E+01  (-0.3142703E+01)
 number of electron    1923.0000030 magnetization       1.0000000
 augmentation part      495.8496613 magnetization       0.5815169

 Broyden mixing:
  rms(total) = 0.13107E+01    rms(broyden)= 0.13104E+01
  rms(prec ) = 0.14516E+01
  weight for this iteration     100.00

 eigenvalues of (default mixing * dielectric matrix)
  average eigenvalue GAMMA=   0.6981
  0.9150  0.9150  0.5867  0.5867  0.4869

 Free energy of the ion-electron system (eV)
  ---------------------------------------------------
  alpha Z        PSCENC =      6118.73324990
  Ewald energy   TEWEN  =   -103279.28069226
  -Hartree energ DENC   =    -65383.69337555
  -exchange      EXHF   =         0.00000000
  -V(xc)+E(xc)   XCENC  =      8971.25384749
  PAW double counting   =    199294.64858735  -200295.72043243
  entropy T*S    EENTRO =        -0.00000000
  eigenvalues    EBANDS =    -25764.20063329
  atomic energy  EATOM  =    178577.25249613
  Solvation  Ediel_sol  =         0.00000000
  ---------------------------------------------------
  free energy    TOTEN  =     -1761.00695267 eV

  energy without entropy =    -1761.00695267  energy(sigma->0) =    -1761.00695267


--------------------------------------------------------------------------------------------------------




--------------------------------------- Iteration      1(   7)  ---------------------------------------


    POTLOK:  cpu time    0.2610: real time    0.2635
    SETDIJ:  cpu time    1.4065: real time    1.4070
     EDDAV:  cpu time  151.4913: real time  152.4198
       DOS:  cpu time    0.0018: real time    0.0018
    CHARGE:  cpu time    5.3083: real time    5.3111
    MIXING:  cpu time    0.0334: real time    0.0334
    --------------------------------------------
      LOOP:  cpu time  158.5025: real time  159.4368

 eigenvalue-minimisations  : 27408
 total energy-change (2. order) : 0.2215677E+01  (-0.8853340E+00)
 number of electron    1923.0000030 magnetization       1.0000000
 augmentation part      496.6452089 magnetization       0.5853791

 Broyden mixing:
  rms(total) = 0.99175E+00    rms(broyden)= 0.99154E+00
  rms(prec ) = 0.10426E+01
  weight for this iteration     100.00

 eigenvalues of (default mixing * dielectric matrix)
  average eigenvalue GAMMA=   0.7990
  1.1671  1.1671  0.6775  0.6775  0.5522  0.5522

 Free energy of the ion-electron system (eV)
  ---------------------------------------------------
  alpha Z        PSCENC =      6118.73324990
  Ewald energy   TEWEN  =   -103279.28069226
  -Hartree energ DENC   =    -65359.21183036
  -exchange      EXHF   =         0.00000000
  -V(xc)+E(xc)   XCENC  =      8971.01456135
  PAW double counting   =    198965.61849065  -199970.66071371
  entropy T*S    EENTRO =        -0.00000000
  eigenvalues    EBANDS =    -25782.25683764
  atomic energy  EATOM  =    178577.25249613
  Solvation  Ediel_sol  =         0.00000000
  ---------------------------------------------------
  free energy    TOTEN  =     -1758.79127594 eV

  energy without entropy =    -1758.79127594  energy(sigma->0) =    -1758.79127594


--------------------------------------------------------------------------------------------------------




--------------------------------------- Iteration      1(   8)  ---------------------------------------


    POTLOK:  cpu time    0.3399: real time    0.3401
    SETDIJ:  cpu time    1.4935: real time    1.4945
     EDDAV:  cpu time  148.0464: real time  148.8482
       DOS:  cpu time    0.0019: real time    0.0019
    CHARGE:  cpu time    5.2877: real time    5.2908
    MIXING:  cpu time    0.0132: real time    0.0132
    --------------------------------------------
      LOOP:  cpu time  155.1826: real time  155.9887

 eigenvalue-minimisations  : 26616
 total energy-change (2. order) :-0.3340734E-02  (-0.8728466E+00)
[...]
   81        1.574   3.461   0.000   5.035
   82        1.575   3.468   0.000   5.044
   83        1.575   3.467   0.000   5.041
   84        1.576   3.473   0.000   5.049
   85        1.575   3.462   0.000   5.038
   86        1.575   3.466   0.000   5.041
   87        1.576   3.463   0.000   5.039
   88        1.575   3.466   0.000   5.041
   89        1.575   3.462   0.000   5.037
   90        1.575   3.458   0.000   5.033
   91        1.572   3.459   0.000   5.031
   92        1.574   3.459   0.000   5.033
   93        1.578   3.474   0.000   5.052
   94        1.577   3.472   0.000   5.049
   95        1.576   3.476   0.000   5.052
   96        1.574   3.464   0.000   5.038
   97        1.575   3.466   0.000   5.041
   98        1.576   3.475   0.000   5.052
   99        1.575   3.463   0.000   5.037
  100        1.576   3.457   0.000   5.033
  101        1.574   3.459   0.000   5.033
  102        1.575   3.461   0.000   5.036
  103        1.576   3.459   0.000   5.035
  104        1.574   3.461   0.000   5.035
  105        1.577   3.472   0.000   5.049
  106        1.574   3.461   0.000   5.035
  107        1.574   3.460   0.000   5.035
  108        1.576   3.473   0.000   5.049
  109        1.575   3.465   0.000   5.040
  110        1.575   3.461   0.000   5.037
  111        1.576   3.473   0.000   5.049
  112        1.577   3.464   0.000   5.041
  113        1.576   3.470   0.000   5.046
  114        1.577   3.471   0.000   5.048
  115        1.574   3.465   0.000   5.040
  116        1.575   3.463   0.000   5.038
  117        1.575   3.461   0.000   5.036
  118        1.576   3.462   0.000   5.037
  119        1.576   3.472   0.000   5.049
  120        1.575   3.460   0.000   5.035
  121        1.575   3.463   0.000   5.038
  122        1.575   3.465   0.000   5.041
  123        1.577   3.474   0.000   5.051
  124        1.576   3.471   0.000   5.047
  125        1.576   3.475   0.000   5.051
  126        1.576   3.470   0.000   5.046
  127        1.574   3.460   0.000   5.034
  128        1.574   3.462   0.000   5.037
  129        1.576   3.468   0.000   5.044
  130        1.737   4.367   0.000   6.104
  131        1.737   4.368   0.000   6.104
  132        1.737   4.379   0.000   6.116
  133        1.738   4.387   0.000   6.125
  134        1.738   4.385   0.000   6.123
  135        1.737   4.368   0.000   6.105
  136        1.736   4.367   0.000   6.103
  137        1.739   4.379   0.000   6.118
  138        1.738   4.379   0.000   6.118
  139        1.739   4.387   0.000   6.127
  140        1.739   4.387   0.000   6.126
  141        1.737   4.378   0.000   6.116
  142        1.737   4.384   0.000   6.121
  143        1.738   4.386   0.000   6.125
  144        1.739   4.385   0.000   6.123
  145        1.738   4.382   0.000   6.120
  146        1.737   4.380   0.000   6.117
  147        1.736   4.367   0.000   6.104
  148        1.736   4.367   0.000   6.104
  149        1.739   4.386   0.000   6.126
  150        1.738   4.388   0.000   6.126
  151        1.738   4.375   0.000   6.114
  152        1.738   4.380   0.000   6.117
  153        1.737   4.381   0.000   6.118
  154        1.737   4.371   0.000   6.108
  155        1.737   4.372   0.000   6.109
  156        1.737   4.370   0.000   6.106
  157        1.737   4.369   0.000   6.106
  158        1.738   4.375   0.000   6.113
  159        1.738   4.376   0.000   6.114
  160        1.737   4.368   0.000   6.104
  161        1.736   4.369   0.000   6.105
  162        1.736   4.369   0.000   6.106
  163        1.736   4.367   0.000   6.103
  164        1.738   4.379   0.000   6.117
  165        1.737   4.369   0.000   6.106
  166        1.736   4.369   0.000   6.106
  167        1.735   4.383   0.000   6.118
  168        1.738   4.376   0.000   6.114
  169        1.738   4.380   0.000   6.118
  170        1.738   4.379   0.000   6.117
  171        1.737   4.370   0.000   6.107
  172        1.738   4.387   0.000   6.125
  173        1.737   4.371   0.000   6.108
  174        1.737   4.369   0.000   6.105
  175        1.739   4.384   0.000   6.123
  176        1.737   4.368   0.000   6.104
  177        1.738   4.380   0.000   6.118
  178        1.737   4.367   0.000   6.103
  179        1.738   4.376   0.000   6.114
  180        1.738   4.379   0.000   6.117
  181        1.736   4.367   0.000   6.103
  182        1.738   4.377   0.000   6.115
  183        1.737   4.369   0.000   6.106
  184        1.736   4.388   0.000   6.125
  185        1.737   4.382   0.000   6.119
  186        1.738   4.382   0.000   6.119
  187        1.737   4.371   0.000   6.107
  188        1.737   4.383   0.000   6.120
  189        1.738   4.381   0.000   6.119
  190        1.738   4.380   0.000   6.119
  191        1.739   4.389   0.000   6.128
  192        1.737   4.370   0.000   6.106
  193        1.739   4.389   0.000   6.128
  194        1.737   4.368   0.000   6.104
  195        1.737   4.368   0.000   6.105
  196        1.737   4.381   0.000   6.119
  197        1.737   4.367   0.000   6.104
  198        1.737   4.380   0.000   6.117
  199        1.738   4.382   0.000   6.120
  200        1.738   4.381   0.000   6.119
  201        1.738   4.381   0.000   6.119
  202        1.737   4.387   0.000   6.124
  203        1.738   4.381   0.000   6.118
  204        1.738   4.378   0.000   6.116
  205        1.737   4.378   0.000   6.115
  206        1.737   4.368   0.000   6.105
  207        1.737   4.368   0.000   6.105
  208        1.737   4.381   0.000   6.119
  209        1.737   4.377   0.000   6.114
  210        1.737   4.369   0.000   6.106
  211        1.737   4.370   0.000   6.107
  212        1.737   4.368   0.000   6.104
  213        1.737   4.380   0.000   6.117
  214        1.736   4.367   0.000   6.103
  215        1.738   4.380   0.000   6.118
  216        1.736   4.368   0.000   6.104
  217        1.737   4.367   0.000   6.104
  218        1.737   4.381   0.000   6.118
  219        1.739   4.373   0.000   6.112
  220        1.738   4.377   0.000   6.115
  221        1.738   4.379   0.000   6.117
  222        1.737   4.378   0.000   6.116
  223        1.737   4.381   0.000   6.118
  224        1.738   4.382   0.000   6.120
  225        1.738   4.381   0.000   6.120
  226        1.738   4.376   0.000   6.114
  227        1.737   4.376   0.000   6.113
  228        1.738   4.377   0.000   6.115
  229        1.738   4.377   0.000   6.114
  230        1.737   4.369   0.000   6.106
  231        1.738   4.376   0.000   6.113
  232        1.737   4.370   0.000   6.106
  233        1.738   4.381   0.000   6.119
  234        1.737   4.372   0.000   6.109
  235        1.737   4.371   0.000   6.108
  236        1.739   4.388   0.000   6.126
  237        1.739   4.386   0.000   6.125
  238        1.737   4.381   0.000   6.118
  239        1.738   4.376   0.000   6.114
  240        1.737   4.381   0.000   6.118
  241        1.738   4.375   0.000   6.113
  242        1.738   4.384   0.000   6.122
  243        1.738   4.386   0.000   6.124
  244        1.738   4.380   0.000   6.117
  245        1.738   4.379   0.000   6.117
  246        1.738   4.378   0.000   6.116
  247        1.738   4.385   0.000   6.124
  248        1.738   4.379   0.000   6.117
  249        1.738   4.386   0.000   6.124
  250        1.738   4.380   0.000   6.118
  251        1.738   4.380   0.000   6.118
  252        1.737   4.379   0.000   6.116
  253        1.738   4.379   0.000   6.117
  254        1.739   4.384   0.000   6.123
  255        1.738   4.377   0.000   6.115
  256        1.738   4.385   0.000   6.124
  257        1.738   4.379   0.000   6.117
--------------------------------------------------
tot        345.5281195.413 112.5011653.442
 


 magnetization (x)
 
# of ion       s       p       d       tot
------------------------------------------
    1       -0.000  -0.000   0.000  -0.000
    2       -0.000  -0.000   0.000   0.000
    3       -0.000  -0.000   0.005   0.005
    4       -0.000   0.000   0.000   0.000
    5       -0.000  -0.000   0.005   0.005
    6        0.000   0.000  -0.000  -0.000
    7        0.000   0.000   0.000   0.000
    8        0.000   0.000   0.000   0.000
    9        0.000   0.000   0.000   0.000
   10       -0.000  -0.000  -0.000  -0.000
   11        0.000  -0.000   0.000   0.000
   12        0.000  -0.000  -0.000  -0.000
   13       -0.000  -0.000   0.000   0.000
   14       -0.000  -0.000  -0.000  -0.000
   15        0.000  -0.000   0.000   0.000
   16       -0.000  -0.000  -0.000  -0.000
   17        0.000  -0.000   0.000   0.000
   18       -0.000  -0.000  -0.000  -0.000
   19        0.005   0.006   0.922   0.934
   20        0.000   0.000   0.000   0.000
   21       -0.000  -0.000   0.000   0.000
   22        0.000  -0.000   0.000   0.000
   23       -0.000   0.000   0.000   0.000
   24        0.000   0.000   0.000   0.000
   25        0.000   0.000   0.000   0.000
   26       -0.000  -0.000  -0.002  -0.003
   27       -0.000  -0.000  -0.000  -0.000
   28        0.000   0.000   0.000   0.000
   29       -0.000  -0.000   0.000   0.000
   30       -0.000  -0.000   0.000   0.000
   31       -0.000  -0.000  -0.000  -0.000
   32        0.000  -0.000  -0.000  -0.000
   33        0.000  -0.000   0.000   0.000
   34        0.000   0.000  -0.000  -0.000
   35        0.000   0.000   0.000   0.000
   36        0.000   0.000   0.000   0.000
   37        0.000   0.000   0.001   0.001
   38       -0.000  -0.000  -0.000  -0.000
   39        0.000   0.000   0.003   0.003
   40        0.000   0.000   0.000   0.000
   41        0.000   0.000   0.002   0.002
   42       -0.000  -0.000  -0.000  -0.000
   43       -0.000  -0.000   0.000   0.000
   44       -0.000  -0.000   0.000   0.000
   45       -0.000  -0.000  -0.000  -0.000
   46       -0.000  -0.000  -0.000  -0.000
   47       -0.000  -0.000   0.000   0.000
   48       -0.000  -0.000   0.000   0.000
   49       -0.000  -0.000  -0.000  -0.000
   50       -0.000  -0.000  -0.000  -0.000
   51        0.000   0.000   0.003   0.003
   52        0.000   0.000   0.000   0.000
   53        0.000   0.000   0.000   0.000
   54       -0.000  -0.000  -0.000  -0.000
   55       -0.000  -0.000   0.007   0.007
   56        0.000   0.000   0.000   0.000
   57        0.000   0.000   0.000   0.000
   58       -0.000  -0.000   0.000   0.000
   59       -0.000  -0.000  -0.000  -0.000
   60        0.000  -0.000   0.000   0.000
   61        0.000   0.000   0.000   0.000
   62        0.000  -0.000   0.000   0.000
   63       -0.000  -0.000   0.000   0.000
   64       -0.000  -0.000  -0.000  -0.000
   65        0.000   0.000   0.000   0.000
   66       -0.000  -0.000   0.000  -0.000
   67       -0.000  -0.000   0.000  -0.000
   68       -0.000  -0.000   0.000  -0.000
   69       -0.000  -0.000   0.000  -0.000
   70       -0.000  -0.000   0.000  -0.000
   71       -0.000  -0.000   0.000  -0.000
   72       -0.000  -0.000   0.000  -0.000
   73       -0.000  -0.000   0.000  -0.000
   74       -0.001  -0.015   0.000  -0.016
   75       -0.000  -0.000   0.000  -0.000
   76       -0.000  -0.000   0.000  -0.000
   77       -0.000  -0.000   0.000  -0.000
   78       -0.000  -0.000   0.000  -0.000
   79       -0.000  -0.000   0.000  -0.000
   80       -0.000  -0.000   0.000  -0.000
   81       -0.000  -0.000   0.000  -0.000
   82       -0.000  -0.000   0.000  -0.000
   83       -0.000  -0.000   0.000  -0.000
   84       -0.000  -0.000   0.000  -0.000
   85       -0.000  -0.000   0.000  -0.000
   86       -0.000  -0.000   0.000  -0.000
   87       -0.000  -0.000   0.000  -0.000
   88       -0.000  -0.000   0.000  -0.000
   89       -0.000  -0.000   0.000  -0.000
   90       -0.000  -0.000   0.000  -0.000
   91       -0.000  -0.000   0.000  -0.000
   92       -0.000  -0.000   0.000  -0.000
   93       -0.000  -0.000   0.000  -0.001
   94       -0.000  -0.000   0.000  -0.000
   95       -0.000  -0.000   0.000  -0.000
   96       -0.000  -0.000   0.000  -0.000
   97       -0.000  -0.000   0.000  -0.000
   98       -0.000  -0.000   0.000  -0.000
   99       -0.000  -0.000   0.000  -0.000
  100       -0.000  -0.000   0.000  -0.000
  101       -0.000  -0.000   0.000  -0.000
  102       -0.000  -0.000   0.000  -0.000
  103       -0.000  -0.000   0.000  -0.000
  104       -0.000  -0.001   0.000  -0.001
  105       -0.000  -0.000   0.000  -0.000
  106       -0.000  -0.000   0.000  -0.000
  107        0.000   0.000   0.000   0.000
  108       -0.000  -0.000   0.000  -0.000
  109       -0.000  -0.000   0.000  -0.000
  110        0.000   0.000   0.000   0.000
  111       -0.000  -0.000   0.000  -0.000
  112       -0.000  -0.000   0.000  -0.000
  113       -0.000  -0.000   0.000  -0.000
  114        0.000   0.000   0.000   0.000
  115       -0.000  -0.000   0.000  -0.000
  116       -0.000  -0.000   0.000  -0.000
  117        0.000   0.000   0.000   0.000
  118       -0.000  -0.000   0.000  -0.000
  119       -0.000  -0.000   0.000  -0.000
  120       -0.000  -0.000   0.000  -0.000
  121       -0.000   0.000   0.000   0.000
  122       -0.000  -0.000   0.000  -0.000
  123       -0.000  -0.000   0.000  -0.000
  124       -0.000  -0.001   0.000  -0.001
  125       -0.000  -0.000   0.000  -0.000
  126       -0.000  -0.000   0.000  -0.000
  127       -0.000  -0.000   0.000  -0.000
  128        0.000  -0.000   0.000  -0.000
  129       -0.000  -0.000   0.000  -0.000
  130       -0.000  -0.000   0.000  -0.000
  131       -0.000  -0.000   0.000  -0.000
  132       -0.000  -0.000   0.000  -0.000
  133       -0.000  -0.000   0.000  -0.000
  134       -0.000  -0.000   0.000  -0.000
  135       -0.000  -0.000   0.000  -0.000
  136       -0.000  -0.000   0.000  -0.000
  137       -0.000  -0.000   0.000  -0.000
  138       -0.000  -0.000   0.000  -0.000
  139       -0.000  -0.000   0.000  -0.000
  140       -0.000  -0.000   0.000  -0.000
  141       -0.000  -0.000   0.000  -0.000
  142       -0.000  -0.006   0.000  -0.006
  143       -0.000  -0.000   0.000  -0.000
  144       -0.000  -0.000   0.000  -0.000
  145       -0.000  -0.000   0.000  -0.000
  146       -0.000  -0.000   0.000  -0.000
  147       -0.000  -0.000   0.000  -0.000
  148       -0.000  -0.000   0.000  -0.000
  149       -0.000  -0.000   0.000  -0.000
  150       -0.000  -0.000   0.000  -0.000
  151       -0.000  -0.000   0.000  -0.000
  152       -0.000  -0.000   0.000  -0.000
  153       -0.000  -0.000   0.000  -0.000
  154       -0.000  -0.000   0.000  -0.000
  155       -0.000  -0.000   0.000  -0.000
  156        0.000  -0.000   0.000  -0.000
  157       -0.000  -0.000   0.000  -0.000
  158       -0.000  -0.000   0.000  -0.000
  159       -0.000  -0.000   0.000  -0.000
  160       -0.000  -0.000   0.000  -0.000
  161       -0.000  -0.000   0.000  -0.000
  162       -0.000  -0.000   0.000  -0.000
  163       -0.000  -0.000   0.000  -0.000
  164       -0.000  -0.000   0.000  -0.000
  165       -0.000  -0.000   0.000  -0.000
  166       -0.000  -0.000   0.000  -0.000
  167       -0.000  -0.000   0.000  -0.000
  168       -0.000  -0.000   0.000  -0.000
  169       -0.000  -0.000   0.000  -0.000
  170       -0.000  -0.000   0.000  -0.000
  171       -0.000  -0.000   0.000  -0.000
  172        0.000   0.000   0.000   0.000
  173        0.000   0.000   0.000   0.000
  174       -0.000  -0.000   0.000  -0.000
  175       -0.000  -0.000   0.000  -0.000
  176       -0.000   0.000   0.000   0.000
  177       -0.000  -0.000   0.000  -0.000
  178        0.000   0.000   0.000   0.000
  179       -0.000  -0.000   0.000  -0.000
  180       -0.000  -0.000   0.000  -0.000
  181       -0.000  -0.000   0.000  -0.000
  182       -0.000  -0.000   0.000  -0.000
  183        0.000  -0.000   0.000  -0.000
  184       -0.000   0.003   0.000   0.003
  185       -0.000  -0.000   0.000  -0.000
  186       -0.000  -0.000   0.000  -0.000
  187       -0.000  -0.000   0.000  -0.000
  188       -0.000  -0.000   0.000  -0.000
  189       -0.000  -0.000   0.000  -0.000
  190        0.000  -0.000   0.000  -0.000
  191        0.000   0.000   0.000   0.000
  192       -0.000  -0.000   0.000  -0.000
  193        0.000  -0.000   0.000  -0.000
  194       -0.000  -0.000   0.000  -0.000
  195       -0.000  -0.000   0.000  -0.000
  196        0.000  -0.000   0.000  -0.000
  197       -0.000  -0.000   0.000  -0.000
  198       -0.000  -0.000   0.000  -0.000
  199        0.000  -0.000   0.000  -0.000
  200       -0.000  -0.000   0.000  -0.000
  201       -0.000   0.000   0.000   0.000
  202       -0.000   0.002   0.000   0.001
  203       -0.000  -0.000   0.000  -0.000
  204       -0.000  -0.000   0.000  -0.000
  205       -0.000  -0.000   0.000  -0.000
  206       -0.000  -0.000   0.000  -0.000
  207       -0.000  -0.000   0.000  -0.000
  208        0.000  -0.000   0.000  -0.000
  209        0.000  -0.000   0.000  -0.000
  210       -0.000  -0.000   0.000  -0.000
  211       -0.000  -0.000   0.000  -0.000
  212       -0.000  -0.000   0.000  -0.000
  213       -0.000   0.003   0.000   0.002
  214       -0.000  -0.000   0.000  -0.000
  215       -0.000  -0.000   0.000  -0.000
  216       -0.000  -0.000   0.000  -0.000
  217        0.000   0.000   0.000   0.000
  218        0.000   0.000   0.000   0.000
  219       -0.000  -0.000   0.000  -0.000
  220        0.000  -0.000   0.000  -0.000
  221       -0.000  -0.000   0.000  -0.000
  222       -0.000  -0.000   0.000  -0.000
  223       -0.000   0.003   0.000   0.003
  224       -0.000  -0.000   0.000  -0.000
  225       -0.000  -0.000   0.000  -0.000
  226       -0.000  -0.000   0.000  -0.000
  227       -0.000  -0.000   0.000  -0.000
  228       -0.000  -0.000   0.000  -0.000
  229       -0.000  -0.000   0.000  -0.000
  230       -0.000  -0.000   0.000  -0.000
  231       -0.000  -0.000   0.000  -0.000
  232       -0.000  -0.000   0.000  -0.000
  233       -0.000   0.000   0.000   0.000
  234        0.000   0.000   0.000   0.000
  235        0.000   0.000   0.000   0.000
  236       -0.000  -0.000   0.000  -0.000
  237       -0.000  -0.000   0.000  -0.000
  238        0.000   0.000   0.000   0.000
  239        0.000   0.000   0.000   0.000
  240        0.000  -0.000   0.000  -0.000
  241       -0.000  -0.000   0.000  -0.000
  242        0.000   0.000   0.000   0.000
  243       -0.000  -0.000   0.000  -0.000
  244       -0.000  -0.000   0.000  -0.000
  245       -0.000  -0.000   0.000  -0.000
  246       -0.000  -0.000   0.000  -0.000
  247       -0.000  -0.000   0.000  -0.000
  248        0.000  -0.000   0.000  -0.000
  249       -0.000  -0.000   0.000  -0.000
  250       -0.000  -0.000   0.000  -0.000
  251        0.000   0.000   0.000   0.000
  252        0.000  -0.000   0.000  -0.000
  253        0.000  -0.000   0.000  -0.000
  254       -0.000  -0.000   0.000  -0.000
  255       -0.000  -0.000   0.000  -0.000
  256       -0.000  -0.000   0.000  -0.000
  257       -0.000  -0.000   0.000  -0.000
--------------------------------------------------
tot          0.002  -0.010   0.948   0.940
 

 total amount of memory used by VASP MPI-rank0   291473. kBytes
=======================================================================

   base      :      30000. kBytes
   nonlr-proj:      49438. kBytes
   fftplans  :      27976. kBytes
   grid      :      34041. kBytes
   one-center:       1026. kBytes
   wavefun   :     148992. kBytes
 
  
  
 General timing and accounting informations for this job:
 ========================================================
  
                  Total CPU time used (sec):     5111.686
                            User time (sec):     4706.633
                          System time (sec):      405.053
                         Elapsed time (sec):     5150.585
  
                   Maximum memory used (kb):      628204.
                   Average memory used (kb):           0.
  
                          Minor page faults:       285360
                          Major page faults:           26
                 Voluntary context switches:        37192
