 vasp.5.4.4.18Apr17-6-g9f103f2a35 (build Jul 16 2019 12:12:28) complex          
  
 executed on             LinuxIFC date 2020.01.06  10:23:20
 running on   96 total cores
 distrk:  each k-point on   96 cores,    1 groups
 distr:  one band on NCORES_PER_BAND=   8 cores,   12 groups


--------------------------------------------------------------------------------------------------------


 INCAR:
 POTCAR:    PAW_PBE Li_sv 10Sep2004               
 POTCAR:    PAW_PBE Ti_pv 07Sep2000               
 POTCAR:    PAW_PBE O 08Apr2002                   
 POTCAR:    PAW_PBE F 08Apr2002                   
 POTCAR:    PAW_PBE Li_sv 10Sep2004               
   VRHFIN =Li: 1s2s2p                                                           
   LEXCH  = PE                                                                  
   EATOM  =   202.7858 eV,   14.9043 Ry                                         
                                                                                
   TITEL  = PAW_PBE Li_sv 10Sep2004                                             
   LULTRA =        F    use ultrasoft PP ?                                      
   IUNSCR =        0    unscreen: 0-lin 1-nonlin 2-no                           
   RPACOR =    0.000    partial core radius                                     
   POMASS =    7.010; ZVAL   =    3.000    mass and valenz                      
   RCORE  =    1.700    outmost cutoff radius                                   
   RWIGS  =    2.050; RWIGS  =    1.085    wigner-seitz radius (au A)           
   ENMAX  =  499.034; ENMIN  =  374.276 eV                                      
   ICORE  =        2    local potential                                         
   LCOR   =        T    correct aug charges                                     
   LPAW   =        T    paw PP                                                  
   EAUG   =  628.945                                                            
   RMAX   =    1.732    core radius for proj-oper                               
   RAUG   =    1.300    factor for augmentation sphere                          
   RDEP   =    1.728    radius for radial grids                                 
   RDEPT  =    1.329    core radius for aug-charge                              
                                                                                
   Atomic configuration                                                         
    4 entries                                                                   
     n  l   j            E        occ.                                          
     1  0  0.50       -51.8549   2.0000                                         
     2  0  0.50        -2.8742   1.0000                                         
     2  1  0.50        -1.3606   0.0000                                         
     3  2  1.50        -1.3606   0.0000                                         
   Description                                                                  
     l       E           TYP  RCUT    TYP  RCUT                                 
     0    -51.8548813     23  1.400                                             
     0     -2.8742052     23  1.700                                             
     1     -1.3605826     23  1.400                                             
     2     -1.3605826     23  1.400                                             
  local pseudopotential read in
  atomic valenz-charges read in
  non local Contribution for L=           0  read in
    real space projection operators read in
  non local Contribution for L=           0  read in
    real space projection operators read in
  non local Contribution for L=           1  read in
    real space projection operators read in
    PAW grid and wavefunctions read in
 
   number of l-projection  operators is LMAX  =           3
   number of lm-projection operators is LMMAX =           5
 
 POTCAR:    PAW_PBE Ti_pv 07Sep2000               
   VRHFIN =Ti: d3 s1                                                            
   LEXCH  = PE                                                                  
   EATOM  =  1042.5995 eV,   76.6289 Ry                                         
                                                                                
   TITEL  = PAW_PBE Ti_pv 07Sep2000                                             
   LULTRA =        F    use ultrasoft PP ?                                      
   IUNSCR =        1    unscreen: 0-lin 1-nonlin 2-no                           
   RPACOR =    2.200    partial core radius                                     
   POMASS =   47.880; ZVAL   =   10.000    mass and valenz                      
   RCORE  =    2.500    outmost cutoff radius                                   
   RWIGS  =    2.500; RWIGS  =    1.323    wigner-seitz radius (au A)           
   ENMAX  =  222.335; ENMIN  =  166.751 eV                                      
   RCLOC  =    1.701    cutoff for local pot                                    
   LCOR   =        T    correct aug charges                                     
   LPAW   =        T    paw PP                                                  
   EAUG   =  482.848                                                            
   DEXC   =    0.000                                                            
   RMAX   =    2.564    core radius for proj-oper                               
   RAUG   =    1.300    factor for augmentation sphere                          
   RDEP   =    2.538    radius for radial grids                                 
   RDEPT  =    1.952    core radius for aug-charge                              
                                                                                
   Atomic configuration                                                         
    8 entries                                                                   
     n  l   j            E        occ.                                          
     1  0  0.50     -4865.3608   2.0000                                         
     2  0  0.50      -533.1368   2.0000                                         
     2  1  1.50      -440.5031   6.0000                                         
     3  0  0.50       -59.3186   2.0000                                         
     3  1  1.50       -35.7012   6.0000                                         
     3  2  2.50        -1.9157   3.0000                                         
     4  0  0.50        -3.7291   1.0000                                         
     4  3  2.50        -1.3606   0.0000                                         
   Description                                                                  
     l       E           TYP  RCUT    TYP  RCUT                                 
     1    -35.7012140     23  2.300                                             
     1     -1.3605826     23  2.300                                             
     2     -1.9156996     23  2.500                                             
     2     -0.4063033     23  2.500                                             
     0     -3.7290856     23  2.500                                             
     0     20.4087390     23  2.500                                             
  local pseudopotential read in
  partial core-charges read in
  partial kinetic energy density read in
  atomic valenz-charges read in
  non local Contribution for L=           1  read in
    real space projection operators read in
  non local Contribution for L=           1  read in
    real space projection operators read in
  non local Contribution for L=           2  read in
    real space projection operators read in
  non local Contribution for L=           2  read in
    real space projection operators read in
  non local Contribution for L=           0  read in
    real space projection operators read in
  non local Contribution for L=           0  read in
    real space projection operators read in
    PAW grid and wavefunctions read in
 
   number of l-projection  operators is LMAX  =           6
   number of lm-projection operators is LMMAX =          18
 
 POTCAR:    PAW_PBE O 08Apr2002                   
   VRHFIN =O: s2p4                                                              
   LEXCH  = PE                                                                  
   EATOM  =   432.3788 eV,   31.7789 Ry                                         
                                                                                
   TITEL  = PAW_PBE O 08Apr2002                                                 
   LULTRA =        F    use ultrasoft PP ?                                      
   IUNSCR =        1    unscreen: 0-lin 1-nonlin 2-no                           
   RPACOR =    1.200    partial core radius                                     
   POMASS =   16.000; ZVAL   =    6.000    mass and valenz                      
   RCORE  =    1.520    outmost cutoff radius                                   
   RWIGS  =    1.550; RWIGS  =    0.820    wigner-seitz radius (au A)           
   ENMAX  =  400.000; ENMIN  =  300.000 eV                                      
   ICORE  =        2    local potential                                         
   LCOR   =        T    correct aug charges                                     
   LPAW   =        T    paw PP                                                  
   EAUG   =  605.392                                                            
   DEXC   =    0.000                                                            
   RMAX   =    1.553    core radius for proj-oper                               
   RAUG   =    1.300    factor for augmentation sphere                          
   RDEP   =    1.550    radius for radial grids                                 
   RDEPT  =    1.329    core radius for aug-charge                              
                                                                                
   Atomic configuration                                                         
    4 entries                                                                   
     n  l   j            E        occ.                                          
     1  0  0.50      -514.6923   2.0000                                         
     2  0  0.50       -23.9615   2.0000                                         
     2  1  0.50        -9.0305   4.0000                                         
     3  2  1.50        -9.5241   0.0000                                         
   Description                                                                  
     l       E           TYP  RCUT    TYP  RCUT                                 
     0    -23.9615318     23  1.200                                             
     0     -9.5240782     23  1.200                                             
     1     -9.0304911     23  1.520                                             
     1      8.1634956     23  1.520                                             
     2     -9.5240782      7  1.500                                             
  local pseudopotential read in
  partial core-charges read in
  partial kinetic energy density read in
  kinetic energy density of atom read in
  atomic valenz-charges read in
  non local Contribution for L=           0  read in
    real space projection operators read in
  non local Contribution for L=           0  read in
    real space projection operators read in
  non local Contribution for L=           1  read in
    real space projection operators read in
  non local Contribution for L=           1  read in
    real space projection operators read in
    PAW grid and wavefunctions read in
 
   number of l-projection  operators is LMAX  =           4
   number of lm-projection operators is LMMAX =           8
 
 POTCAR:    PAW_PBE F 08Apr2002                   
   VRHFIN =F: s2p5                                                              
   LEXCH  = PE                                                                  
   EATOM  =   659.6475 eV,   48.4827 Ry                                         
                                                                                
   TITEL  = PAW_PBE F 08Apr2002                                                 
   LULTRA =        F    use ultrasoft PP ?                                      
   IUNSCR =        1    unscreen: 0-lin 1-nonlin 2-no                           
   RPACOR =    1.200    partial core radius                                     
   POMASS =   18.998; ZVAL   =    7.000    mass and valenz                      
   RCORE  =    1.520    outmost cutoff radius                                   
   RWIGS  =    1.500; RWIGS  =    0.794    wigner-seitz radius (au A)           
   ENMAX  =  400.000; ENMIN  =  300.000 eV                                      
   ICORE  =        2    local potential                                         
   LCOR   =        T    correct aug charges                                     
   LPAW   =        T    paw PP                                                  
   EAUG   =  613.614                                                            
   RMAX   =    1.555    core radius for proj-oper                               
   RAUG   =    1.300    factor for augmentation sphere                          
   RDEP   =    1.539    radius for radial grids                                 
   RDEPT  =    1.299    core radius for aug-charge                              
                                                                                
   Atomic configuration                                                         
    4 entries                                                                   
     n  l   j            E        occ.                                          
     1  0  0.50      -663.3661   2.0000                                         
     2  0  0.50       -29.8995   2.0000                                         
     2  1  0.50       -11.1114   5.0000                                         
     3  2  1.50       -10.8847   0.0000                                         
   Description                                                                  
     l       E           TYP  RCUT    TYP  RCUT                                 
     0    -29.8995018     23  1.200                                             
     0     -9.5240782     23  1.200                                             
     1    -11.1113914     23  1.520                                             
     1      1.3605826     23  1.520                                             
     2    -10.8846608      7  1.500                                             
  local pseudopotential read in
  partial core-charges read in
  partial kinetic energy density read in
  atomic valenz-charges read in
  non local Contribution for L=           0  read in
    real space projection operators read in
  non local Contribution for L=           0  read in
    real space projection operators read in
  non local Contribution for L=           1  read in
    real space projection operators read in
  non local Contribution for L=           1  read in
    real space projection operators read in
    PAW grid and wavefunctions read in
 
   number of l-projection  operators is LMAX  =           4
   number of lm-projection operators is LMMAX =           8
 
 Optimization of the real space projectors (new method)

 maximal supplied QI-value         = 22.11
 optimisation between [QCUT,QGAM] = [ 11.28, 22.77] = [ 35.61,145.23] Ry 
 Optimized for a Real-space Cutoff    1.31 Angstroem

   l    n(q)    QCUT    max X(q) W(low)/X(q) W(high)/X(q)  e(spline) 
   0      9    11.276    10.506    0.19E-04    0.17E-04    0.32E-07
   0      9    11.276     8.367    0.38E-04    0.40E-04    0.65E-07
   1      8    11.276     8.983    0.55E-04    0.98E-04    0.20E-06
 Optimization of the real space projectors (new method)

 maximal supplied QI-value         = 15.12
 optimisation between [QCUT,QGAM] = [ 11.34, 22.83] = [ 36.00,145.93] Ry 
 Optimized for a Real-space Cutoff    1.56 Angstroem

   l    n(q)    QCUT    max X(q) W(low)/X(q) W(high)/X(q)  e(spline) 
   1     10    11.338     4.216    0.27E-04    0.12E-04    0.66E-07
   1     10    11.338     5.422    0.81E-04    0.24E-04    0.19E-06
   2     10    11.338    72.084    0.64E-04    0.21E-03    0.51E-06
   2     10    11.338    65.965    0.63E-04    0.21E-03    0.50E-06
   0     11    11.338    41.531    0.33E-04    0.54E-04    0.13E-06
   0     11    11.338    16.290    0.26E-04    0.41E-04    0.11E-06
 Optimization of the real space projectors (new method)

 maximal supplied QI-value         = 24.76
 optimisation between [QCUT,QGAM] = [ 11.39, 22.77] = [ 36.31,145.25] Ry 
 Optimized for a Real-space Cutoff    1.20 Angstroem

   l    n(q)    QCUT    max X(q) W(low)/X(q) W(high)/X(q)  e(spline) 
   0      8    11.387    20.381    0.89E-04    0.31E-03    0.27E-06
   0      8    11.387    15.268    0.93E-04    0.32E-03    0.29E-06
   1      8    11.387     5.964    0.53E-04    0.28E-03    0.29E-06
   1      8    11.387     5.382    0.37E-04    0.22E-03    0.26E-06
 Optimization of the real space projectors (new method)

 maximal supplied QI-value         = 24.76
 optimisation between [QCUT,QGAM] = [ 11.39, 22.77] = [ 36.31,145.25] Ry 
 Optimized for a Real-space Cutoff    1.20 Angstroem

   l    n(q)    QCUT    max X(q) W(low)/X(q) W(high)/X(q)  e(spline) 
   0      8    11.387    14.049    0.69E-04    0.23E-03    0.18E-06
   0      8    11.387     8.945    0.88E-04    0.30E-03    0.26E-06
   1      8    11.387     7.086    0.62E-04    0.27E-03    0.27E-06
   1      8    11.387     6.747    0.46E-04    0.23E-03    0.25E-06

 ----------------------------------------------------------------------------- 
|                                                                             |
|  ADVICE TO THIS USER RUNNING 'VASP/VAMP'   (HEAR YOUR MASTER'S VOICE ...):  |
|                                                                             |
|      You enforced a specific xc-type in the INCAR file,                     |
|      a different type was found on the POTCAR file                          |
|          I HOPE YOU KNOW, WHAT YOU ARE  DOING                               |
|                                                                             |
 ----------------------------------------------------------------------------- 

  PAW_PBE Li_sv 10Sep2004               :
 energy of atom  1       EATOM= -202.7858
 kinetic energy error for atom=    0.0143 (will be added to EATOM!!)
  PAW_PBE Ti_pv 07Sep2000               :
 energy of atom  2       EATOM=-1042.5995
 kinetic energy error for atom=    0.0024 (will be added to EATOM!!)
  PAW_PBE O 08Apr2002                   :
 energy of atom  3       EATOM= -432.3788
 kinetic energy error for atom=    0.0224 (will be added to EATOM!!)
  PAW_PBE F 08Apr2002                   :
 energy of atom  4       EATOM= -659.6475
 kinetic energy error for atom=    0.0354 (will be added to EATOM!!)
 
 
 POSCAR: config 60                               
  positions in direct lattice
  velocities in cartesian coordinates
 exchange correlation table for  LEXCH =       14
   RHO(1)=    0.500       N(1)  =     2000
   RHO(2)=  100.500       N(2)  =     4000

 VTST: version 3.2, (02/03/18)

 CHAIN: initializing optimizer
 
 OPT: Using VASP QUASI-newton optimizer
 CHAIN: Read ICHAIN            0
 
 POSCAR: config 60                               
  positions in direct lattice
  velocities in cartesian coordinates
 


--------------------------------------------------------------------------------------------------------


 ion  position               nearest neighbor table
   1  0.849  0.626  0.851- 111 2.08 161 2.16  88 2.17 108 2.17  65 2.86
   2  0.995  0.995  0.995- 118 1.87  68 1.88 103 1.89 171 2.03 130 2.04 212 2.05
   3  0.998  0.991  0.494- 119 1.80  67 1.83 172 1.95 193 1.97 131 2.01 213 2.10
   4  0.007  0.496  0.999-  89 1.83 117 1.85 138 1.94 132 1.98 214 2.04 194 2.05
   5  0.994  0.504  0.506-  66 1.83 104 1.85 215 1.93 223 2.00 173 2.00 137 2.03
   6  0.494  0.993  0.000- 101 1.84 121 1.84 140 1.96 133 1.98 174 2.03 216 2.03
   7  0.502  0.009  0.499- 112 1.78 191 1.92 134 1.92 139 1.93 175 1.94 225 2.04
   8  0.505  0.495  0.997-  70 1.88 120 1.88  90 1.89 192 2.03 135 2.04 217 2.06
   9  0.493  0.499  0.496- 102 1.81  69 1.86 224 1.99 218 2.00 136 2.01 176 2.08
  10  0.006  0.003  0.256-  91 1.83  67 1.85 219 1.95 227 1.97 130 2.00 197 2.06
  11  0.003  0.007  0.757-  68 1.79 113 1.86 177 1.96 198 1.99 131 2.06 228 2.06
  12  0.994  0.493  0.251- 107 1.83 122 1.86 137 1.93 132 1.97 220 2.01 178 2.02
  13  0.992  0.501  0.742-  66 1.82 108 1.85 226 1.93 221 1.97 138 2.03 179 2.05
  14  0.505  0.009  0.251- 114 1.83  92 1.84 133 1.93 139 1.98 195 2.00 231 2.06
  15  0.493  0.007  0.753- 105 1.81 115 1.84 140 1.94 134 2.01 232 2.02 180 2.05
  16  0.493  0.496  0.258-  69 1.83 106 1.84 229 1.96 222 2.01 135 2.02 181 2.05
  17  0.503  0.505  0.759-  70 1.80 116 1.87 182 1.98 196 1.98 230 2.05 136 2.07
  18  0.995  0.258  0.002- 117 1.83 110 1.88 141 1.96 146 1.97 183 2.01 212 2.02
  19  0.998  0.248  0.491-  74 1.78 213 1.91 184 1.94 202 1.94 223 1.95 142 2.01
  20  1.000  0.758  0.008- 118 1.80  71 1.85 203 1.95 185 1.97 148 2.04 214 2.09
  21  0.996  0.756  0.508-  72 1.81 119 1.84 204 1.96 186 1.98 215 2.04 147 2.04
  22  0.495  0.258  0.002- 120 1.81 109 1.85 150 1.96 143 1.99 187 2.04 216 2.07
  23  0.509  0.246  0.498-  93 1.81 112 1.91 144 1.93 149 1.95 224 1.98 199 2.01
  24  0.508  0.756  0.000-  94 1.82 121 1.85 152 1.94 145 1.99 217 2.02 200 2.04
  25  0.507  0.753  0.510-  73 1.79  95 1.84 225 1.97 218 1.98 201 2.02 151 2.08
  26  0.999  0.258  0.255- 122 1.80  74 1.88 209 1.95 188 1.96 141 1.99 219 2.02
  27  0.008  0.243  0.748- 113 1.80  96 1.83 142 1.96 146 1.98 210 2.06 226 2.09
  28  0.006  0.748  0.244-  71 1.82  97 1.84 220 1.95 227 1.98 147 2.03 211 2.06
  29  0.991  0.749  0.745- 111 1.77  72 1.88 228 1.96 221 2.02 148 2.03 189 2.08
  30  0.508  0.241  0.252-  98 1.82 114 1.83 143 1.94 149 1.97 229 2.02 205 2.03
  31  0.508  0.245  0.751-  99 1.84 115 1.85 150 1.94 144 1.99 230 2.03 206 2.03
  32  0.506  0.751  0.252- 100 1.79 151 1.92 231 1.94 145 1.94 222 1.95 207 2.00
  33  0.501  0.742  0.745- 116 1.82  73 1.85 190 1.92 208 1.97 152 2.02 232 2.09
  34  0.256  0.998  0.006-  75 1.85 101 1.86 246 1.94 233 1.97 171 2.02 157 2.04
  35  0.251  0.994  0.506- 128 1.83  76 1.84 172 1.95 191 2.00 156 2.02 234 2.03
  36  0.245  0.509  0.999- 123 1.82  89 1.85 159 1.94 153 1.97 192 2.02 245 2.04
  37  0.256  0.494  0.507-  77 1.85 102 1.88 127 1.88 158 2.05 235 2.05 173 2.05
  38  0.756  1.000  0.993- 103 1.79  81 1.87 249 1.98 236 1.98 174 2.05 154 2.05
  39  0.749  0.008  0.494-  80 1.84 124 1.84 193 1.94 155 1.99 175 2.00 250 2.05
  40  0.742  0.499  0.007-  90 1.80  78 1.86 247 1.97 237 1.97 194 2.06 161 2.07
  41  0.757  0.498  0.503- 104 1.84  79 1.87 248 1.97 238 1.99 176 2.01 160 2.01
  42  0.245  0.002  0.244-  75 1.83  91 1.85 239 1.94 252 1.97 156 2.04 195 2.06
  43  0.258  0.999  0.745-  76 1.84 105 1.84 253 1.94 240 1.98 157 2.02 177 2.04
  44  0.255  0.491  0.253- 129 1.83 106 1.84 158 1.93 153 1.97 241 2.04 178 2.05
  45  0.247  0.506  0.741-  77 1.79 125 1.83 179 1.96 196 1.99 251 2.04 159 2.05
  46  0.744  0.002  0.255-  92 1.85  80 1.86 256 1.95 242 1.97 197 2.00 154 2.00
  47  0.747  0.007  0.756-  81 1.82 126 1.86 180 1.96 198 1.98 257 1.98 155 2.08
  48  0.756  0.497  0.243-  78 1.82 107 1.85 243 1.96 254 1.97 181 2.02 160 2.05
  49  0.758  0.497  0.740-  79 1.81 108 1.88 255 1.94 244 1.94 182 2.02 161 2.15
  50  0.257  0.252  0.006- 109 1.83  82 1.86 245 1.94 233 1.97 168 2.02 183 2.06
  51  0.254  0.257  0.505- 127 1.81  83 1.85 199 1.97 184 2.02 167 2.04 234 2.05
  52  0.253  0.742  0.994- 123 1.83  86 1.83 200 1.94 185 1.97 162 2.04 246 2.04
  53  0.252  0.755  0.493-  85 1.83 128 1.86 201 1.96 186 1.98 235 2.01 163 2.04
  54  0.757  0.252  0.007- 110 1.81  84 1.87 236 1.95 247 1.97 187 2.03 170 2.04
  55  0.742  0.243  0.497- 124 1.82  93 1.85 169 1.94 164 1.97 248 2.04 202 2.04
  56  0.742  0.746  0.993-  88 1.80  94 1.84 249 1.96 237 1.98 203 2.04 165 2.07
  57  0.742  0.752  0.492-  95 1.82  87 1.85 250 1.96 238 1.99 166 2.02 204 2.03
  58  0.250  0.258  0.244- 129 1.82  82 1.83 205 1.97 188 2.00 167 2.03 239 2.04
  59  0.244  0.253  0.744-  83 1.84  96 1.85 251 1.94 240 1.99 168 2.03 206 2.06
  60  0.244  0.747  0.256-  97 1.83  85 1.84 241 1.94 252 1.98 162 2.02 207 2.06
  61  0.245  0.742  0.757- 125 1.82  86 1.84 189 1.92 208 1.99 163 2.03 253 2.06
  62  0.741  0.251  0.242-  84 1.80  98 1.83 254 1.95 242 1.96 209 2.05 169 2.09
  63  0.744  0.242  0.750- 126 1.81  99 1.85 170 1.95 164 2.02 210 2.02 255 2.10
  64  0.745  0.749  0.255-  87 1.82 100 1.89 243 1.95 256 1.95 211 1.98 165 2.01
  65  0.753  0.750  0.753-  88 1.97 111 2.01 257 2.02 166 2.02 190 2.05 244 2.07   1 2.86
  66  0.000  0.505  0.624-  13 1.82   5 1.83
  67  0.997  0.004  0.376-   3 1.83  10 1.85
  68  0.002  0.999  0.873-  11 1.79   2 1.88
  69  0.503  0.488  0.376-  16 1.83   9 1.86
  70  0.497  0.493  0.875-  17 1.80   8 1.88
  71  0.997  0.741  0.127-  28 1.82  20 1.85
  72  0.997  0.743  0.624-  21 1.81  29 1.88
  73  0.502  0.748  0.625-  25 1.79  33 1.85
  74  0.990  0.250  0.376-  19 1.78  26 1.88
  75  0.257  0.002  0.125-  42 1.83  34 1.85
  76  0.257  0.003  0.625-  35 1.84  43 1.84
  77  0.244  0.493  0.626-  45 1.79  37 1.85
  78  0.752  0.480  0.126-  48 1.82  40 1.86
  79  0.756  0.484  0.623-  49 1.81  41 1.87
  80  0.748  0.009  0.375-  39 1.84  46 1.86
  81  0.743  0.011  0.874-  47 1.82  38 1.87
  82  0.241  0.251  0.126-  58 1.83  50 1.86
  83  0.249  0.252  0.625-  59 1.84  51 1.85
  84  0.738  0.267  0.126-  62 1.80  54 1.87
  85  0.253  0.744  0.375-  53 1.83  60 1.84
  86  0.248  0.751  0.876-  52 1.83  61 1.84
  87  0.749  0.742  0.373-  64 1.82  57 1.85
  88  0.753  0.725  0.878-  56 1.80  65 1.97   1 2.17
  89  0.125  0.511  0.999-   4 1.83  36 1.85
  90  0.627  0.511  0.000-  40 1.80   8 1.89
  91  0.125  0.007  0.250-  10 1.83  42 1.85
  92  0.624  0.006  0.247-  14 1.84  46 1.85
  93  0.625  0.264  0.489-  23 1.81  55 1.85
  94  0.624  0.736  0.003-  24 1.82  56 1.84
  95  0.625  0.768  0.498-  57 1.82  25 1.84
  96  0.125  0.265  0.753-  27 1.83  59 1.85
  97  0.125  0.747  0.251-  60 1.83  28 1.84
  98  0.625  0.240  0.265-  30 1.82  62 1.83
  99  0.626  0.264  0.753-  31 1.84  63 1.85
 100  0.622  0.749  0.248-  32 1.79  64 1.89
 101  0.376  0.994  0.990-   6 1.84  34 1.86
 102  0.377  0.511  0.502-   9 1.81  37 1.88
 103  0.873  0.996  0.997-  38 1.79   2 1.89
 104  0.876  0.510  0.493-  41 1.84   5 1.85
 105  0.376  0.012  0.760-  15 1.81  43 1.84
 106  0.374  0.491  0.252-  44 1.84  16 1.84
 107  0.875  0.493  0.255-  12 1.83  48 1.85
 108  0.876  0.525  0.757-  13 1.85  49 1.88   1 2.17
 109  0.376  0.254  0.009-  50 1.83  22 1.85
 110  0.874  0.255  0.009-  54 1.81  18 1.88
 111  0.880  0.721  0.761-  29 1.77  65 2.01   1 2.08
 112  0.517  0.123  0.489-   7 1.78  23 1.91
 113  0.013  0.126  0.748-  27 1.80  11 1.86
 114  0.490  0.125  0.268-  14 1.83  30 1.83
 115  0.513  0.125  0.754-  15 1.84  31 1.85
 116  0.514  0.625  0.755-  33 1.82  17 1.87
 117  0.006  0.376  0.008-  18 1.83   4 1.85
 118  0.008  0.875  0.006-  20 1.80   2 1.87
 119  0.985  0.875  0.501-   3 1.80  21 1.84
 120  0.508  0.374  0.013-  22 1.81   8 1.88
 121  0.509  0.875  0.011-   6 1.84  24 1.85
 122  0.011  0.374  0.244-  26 1.80  12 1.86
 123  0.264  0.625  0.004-  36 1.82  52 1.83
 124  0.734  0.126  0.510-  55 1.82  39 1.84
 125  0.234  0.624  0.749-  61 1.82  45 1.83
 126  0.737  0.126  0.735-  63 1.81  47 1.86
 127  0.260  0.373  0.492-  51 1.81  37 1.88
 128  0.261  0.876  0.499-  35 1.83  53 1.86
 129  0.238  0.374  0.259-  58 1.82  44 1.83
 130  0.998  0.006  0.126-  10 2.00   2 2.04
 131  0.002  1.000  0.624-   3 2.01  11 2.06
 132  0.996  0.513  0.125-  12 1.97   4 1.98
 133  0.490  0.015  0.127-  14 1.93   6 1.98
 134  0.495  0.004  0.623-   7 1.92  15 2.01
 135  0.500  0.512  0.128-  16 2.02   8 2.04
 136  0.508  0.505  0.625-   9 2.01  17 2.07
 137  0.008  0.491  0.376-  12 1.93   5 2.03
 138  0.999  0.495  0.873-   4 1.94  13 2.03
 139  0.506  0.983  0.376-   7 1.93  14 1.98
 140  0.517  0.992  0.875-  15 1.94   6 1.96
 141  0.011  0.242  0.127-  18 1.96  26 1.99
 142  0.004  0.256  0.621-  27 1.96  19 2.01
 143  0.512  0.232  0.127-  30 1.94  22 1.99
 144  0.504  0.241  0.622-  23 1.93  31 1.99
 145  0.493  0.739  0.127-  32 1.94  24 1.99
 146  0.991  0.255  0.874-  18 1.97  27 1.98
 147  0.996  0.754  0.375-  28 2.03  21 2.04
 148  0.008  0.753  0.876-  29 2.03  20 2.04
 149  0.487  0.268  0.375-  23 1.95  30 1.97
 150  0.495  0.260  0.875-  31 1.94  22 1.96
 151  0.495  0.761  0.376-  32 1.92  25 2.08
 152  0.497  0.758  0.875-  24 1.94  33 2.02
 153  0.247  0.491  0.125-  44 1.97  36 1.97
 154  0.750  0.991  0.126-  46 2.00  38 2.05
 155  0.749  0.989  0.622-  39 1.99  47 2.08
 156  0.250  0.003  0.376-  35 2.02  42 2.04
 157  0.241  0.995  0.874-  43 2.02  34 2.04
 158  0.244  0.513  0.376-  44 1.93  37 2.05
 159  0.256  0.500  0.874-  36 1.94  45 2.05
 160  0.743  0.513  0.374-  41 2.01  48 2.05
 161  0.757  0.524  0.876-  40 2.07  49 2.15   1 2.16
 162  0.254  0.756  0.126-  60 2.02  52 2.04
 163  0.251  0.752  0.625-  61 2.03  53 2.04
 164  0.748  0.268  0.622-  55 1.97  63 2.02
 165  0.753  0.759  0.126-  64 2.01  56 2.07
 166  0.752  0.758  0.622-  57 2.02  65 2.02
 167  0.258  0.242  0.374-  58 2.03  51 2.04
 168  0.256  0.250  0.875-  50 2.02  59 2.03
 169  0.765  0.235  0.374-  55 1.94  62 2.09
 170  0.757  0.236  0.876-  63 1.95  54 2.04
 171  0.126  0.008  0.004-  34 2.02   2 2.03
 172  0.125  0.992  0.500-  35 1.95   3 1.95
 173  0.123  0.492  0.497-   5 2.00  37 2.05
 174  0.625  0.007  0.011-   6 2.03  38 2.05
 175  0.624  0.979  0.504-   7 1.94  39 2.00
 176  0.627  0.486  0.501-  41 2.01   9 2.08
 177  0.127  0.985  0.744-  11 1.96  43 2.04
 178  0.124  0.511  0.246-  12 2.02  44 2.05
 179  0.123  0.481  0.757-  45 1.96  13 2.05
 180  0.623  0.983  0.739-  47 1.96  15 2.05
 181  0.625  0.503  0.247-  48 2.02  16 2.05
 182  0.629  0.482  0.755-  17 1.98  49 2.02
 183  0.124  0.245  0.991-  18 2.01  50 2.06
 184  0.124  0.256  0.493-  19 1.94  51 2.02
 185  0.126  0.736  0.006-  52 1.97  20 1.97
 186  0.124  0.760  0.499-  21 1.98  53 1.98
 187  0.626  0.244  0.990-  54 2.03  22 2.04
 188  0.124  0.234  0.261-  26 1.96  58 2.00
 189  0.124  0.768  0.747-  61 1.92  29 2.08
 190  0.622  0.771  0.754-  33 1.92  65 2.05
 191  0.378  0.016  0.492-   7 1.92  35 2.00
 192  0.374  0.489  0.006-  36 2.02   8 2.03
 193  0.874  0.018  0.506-  39 1.94   3 1.97
 194  0.875  0.493  0.995-   4 2.05  40 2.06
 195  0.377  0.992  0.259-  14 2.00  42 2.06
 196  0.376  0.512  0.744-  17 1.98  45 1.99
 197  0.873  0.996  0.248-  46 2.00  10 2.06
 198  0.875  0.014  0.745-  47 1.98  11 1.99
 199  0.380  0.234  0.502-  51 1.97  23 2.01
 200  0.376  0.764  0.001-  52 1.94  24 2.04
 201  0.378  0.736  0.501-  53 1.96  25 2.02
 202  0.874  0.240  0.509-  19 1.94  55 2.04
 203  0.874  0.760  0.997-  20 1.95  56 2.04
 204  0.872  0.734  0.499-  21 1.96  57 2.03
 205  0.378  0.261  0.241-  58 1.97  30 2.03
 206  0.377  0.239  0.748-  31 2.03  59 2.06
 207  0.377  0.752  0.250-  32 2.00  60 2.06
 208  0.374  0.738  0.751-  33 1.97  61 1.99
 209  0.873  0.261  0.240-  26 1.95  62 2.05
 210  0.875  0.242  0.743-  63 2.02  27 2.06
 211  0.873  0.751  0.251-  64 1.98  28 2.06
 212  0.997  0.127  0.998-  18 2.02   2 2.05
 213  0.009  0.126  0.506-  19 1.91   3 2.10
 214  0.984  0.625  0.987-   4 2.04  20 2.09
 215  0.012  0.626  0.489-   5 1.93  21 2.04
 216  0.499  0.124  0.991-   6 2.03  22 2.07
 217  0.485  0.627  0.995-  24 2.02   8 2.06
 218  0.516  0.627  0.492-  25 1.98   9 2.00
 219  0.987  0.128  0.249-  10 1.95  26 2.02
 220  0.995  0.623  0.262-  28 1.95  12 2.01
 221  0.025  0.623  0.758-  13 1.97  29 2.02
 222  0.496  0.626  0.263-  32 1.95  16 2.01
 223  0.992  0.374  0.501-  19 1.95   5 2.00
 224  0.487  0.372  0.512-  23 1.98   9 1.99
 225  0.482  0.879  0.506-  25 1.97   7 2.04
 226  0.982  0.376  0.747-  13 1.93  27 2.09
 227  0.999  0.876  0.247-  10 1.97  28 1.98
 228  0.983  0.875  0.746-  29 1.96  11 2.06
 229  0.509  0.371  0.236-  16 1.96  30 2.02
 230  0.488  0.374  0.740-  31 2.03  17 2.05
 231  0.501  0.876  0.239-  32 1.94  14 2.06
 232  0.487  0.877  0.747-  15 2.02  33 2.09
 233  0.252  0.125  0.994-  34 1.97  50 1.97
 234  0.241  0.125  0.498-  35 2.03  51 2.05
 235  0.239  0.626  0.507-  53 2.01  37 2.05
 236  0.751  0.126  0.015-  54 1.95  38 1.98
 237  0.768  0.624  0.021-  40 1.97  56 1.98
 238  0.735  0.625  0.510-  57 1.99  41 1.99
 239  0.264  0.126  0.251-  42 1.94  58 2.04
 240  0.236  0.125  0.756-  43 1.98  59 1.99
 241  0.256  0.623  0.239-  60 1.94  44 2.04
 242  0.762  0.126  0.236-  62 1.96  46 1.97
 243  0.752  0.624  0.235-  64 1.95  48 1.96
 244  0.729  0.620  0.735-  49 1.94  65 2.07
 245  0.242  0.376  0.996-  50 1.94  36 2.04
 246  0.238  0.874  0.003-  34 1.94  52 2.04
 247  0.743  0.375  0.978-  54 1.97  40 1.97
 248  0.764  0.373  0.481-  41 1.97  55 2.04
 249  0.738  0.873  0.989-  56 1.96  38 1.98
 250  0.768  0.877  0.492-  57 1.96  39 2.05
 251  0.267  0.377  0.757-  59 1.94  45 2.04
 252  0.250  0.875  0.253-  42 1.97  60 1.98
 253  0.263  0.874  0.748-  43 1.94  61 2.06
 254  0.742  0.374  0.273-  62 1.95  48 1.97
 255  0.768  0.375  0.766-  49 1.94  63 2.10
 256  0.748  0.875  0.256-  46 1.95  64 1.95
 257  0.768  0.880  0.756-  47 1.98  65 2.02
 

IMPORTANT INFORMATION: All symmetrisations will be switched off!
NOSYMM: (Re-)initialisation of all symmetry stuff for point group C_1.

 
 
 KPOINTS: Title                                   

Automatic generation of k-mesh.
Space group operators:
 irot       det(A)        alpha          n_x          n_y          n_z        tau_x        tau_y        tau_z
    1     1.000000     0.000001     1.000000     0.000000     0.000000     0.000000     0.000000     0.000000
 
 Subroutine IBZKPT returns following result:
 ===========================================
 
 Found      4 irreducible k-points:
 
 Following reciprocal coordinates:
            Coordinates               Weight
  0.250000  0.250000  0.250000      2.000000
 -0.250000  0.250000  0.250000      2.000000
  0.250000 -0.250000  0.250000      2.000000
 -0.250000 -0.250000  0.250000      2.000000
 
 Following cartesian coordinates:
            Coordinates               Weight
  0.016206  0.016206  0.016206      2.000000
 -0.016206  0.016206  0.016206      2.000000
  0.016206 -0.016206  0.016206      2.000000
 -0.016206 -0.016206  0.016206      2.000000
 


--------------------------------------------------------------------------------------------------------




 Dimension of arrays:
   k-points           NKPTS =      4   k-points in BZ     NKDIM =      4   number of bands    NBANDS=   1164
   number of dos      NEDOS =   3001   number of ions     NIONS =    257
   non local maximal  LDIM  =      6   non local SUM 2l+1 LMDIM =     18
   total plane-waves  NPLWV = ******
   max r-space proj   IRMAX =   7595   max aug-charges    IRDMAX= 146383
   dimension x,y,z NGX =   120 NGY =  120 NGZ =  120
   dimension x,y,z NGXF=   240 NGYF=  240 NGZF=  240
   support grid    NGXF=   480 NGYF=  480 NGZF=  480
   ions per type =               1  64  64 128
   NGX,Y,Z   is equivalent  to a cutoff of  12.93, 12.93, 12.93 a.u.
   NGXF,Y,Z  is equivalent  to a cutoff of  25.86, 25.86, 25.86 a.u.

 SYSTEM =  LTO                                     
 POSCAR =  config 60                               

 Startparameter for this run:
   NWRITE =      2    write-flag & timer
   PREC   = accura    normal or accurate (medium, high low for compatibility)
   ISTART =      1    job   : 0-new  1-cont  2-samecut
   ICHARG =      0    charge: 1-file 2-atom 10-const
   ISPIN  =      2    spin polarized calculation?
   LNONCOLLINEAR =      F non collinear calculations
   LSORBIT =      F    spin-orbit coupling
   INIWAV =      1    electr: 0-lowe 1-rand  2-diag
   LASPH  =      T    aspherical Exc in radial PAW
   METAGGA=      F    non-selfconsistent MetaGGA calc.

 Electronic Relaxation 1
   ENCUT  =  500.0 eV  36.75 Ry    6.06 a.u.  28.13 28.13 28.13*2*pi/ulx,y,z
   ENINI  =  500.0     initial cutoff
   ENAUG  =  628.9 eV  augmentation charge cutoff
   NELM   =     60;   NELMIN=  2; NELMDL=  0     # of ELM steps 
   EDIFF  = 0.1E-05   stopping-criterion for ELM
   LREAL  =      T    real-space projection
   NLSPLINE    = F    spline interpolate recip. space projectors
   LCOMPAT=      F    compatible to vasp.4.4
   GGA_COMPAT  = T    GGA compatible to vasp.4.4-vasp.4.6
   LMAXPAW     = -100 max onsite density
   LMAXMIX     =    4 max onsite mixed and CHGCAR
   VOSKOWN=      0    Vosko Wilk Nusair interpolation
   ROPT   =   -0.00010  -0.00010  -0.00010  -0.00010
 Ionic relaxation
   EDIFFG = -.5E-01   stopping-criterion for IOM
   NSW    =    100    number of steps for IOM
   NBLOCK =      1;   KBLOCK =    100    inner block; outer block 
   IBRION =      1    ionic relax: 0-MD 1-quasi-New 2-CG
   NFREE  =      0    steps in history (QN), initial steepest desc. (CG)
   ISIF   =      2    stress and relaxation
   IWAVPR =     11    prediction:  0-non 1-charg 2-wave 3-comb
   ISYM   =      0    0-nonsym 1-usesym 2-fastsym
   LCORR  =      T    Harris-Foulkes like correction to forces

   POTIM  = 0.5000    time-step for ionic-motion
   TEIN   =    0.0    initial temperature
   TEBEG  =    0.0;   TEEND  =   0.0 temperature during run
   SMASS  =  -3.00    Nose mass-parameter (am)
   estimated Nose-frequenzy (Omega)   =  0.10E-29 period in steps =****** mass=  -0.544E-26a.u.
   SCALEE = 1.0000    scale energy and forces
   NPACO  =    256;   APACO  = 16.0  distance and # of slots for P.C.
   PSTRESS=    0.0 pullay stress

  Mass of Ions in am
   POMASS =   7.01 47.88 16.00 19.00
  Ionic Valenz
   ZVAL   =   3.00 10.00  6.00  7.00
  Atomic Wigner-Seitz radii
   RWIGS  =  -1.00 -1.00 -1.00 -1.00
  virtual crystal weights 
   VCA    =   1.00  1.00  1.00  1.00
   NELECT =    1923.0000    total number of electrons
   NUPDOWN=       1.0000    fix difference up-down

 DOS related values:
   EMIN   =  10.00;   EMAX   =-10.00  energy-range for DOS
   EFERMI =   0.00
   ISMEAR =     0;   SIGMA  =   0.01  broadening in eV -4-tet -1-fermi 0-gaus

 Electronic relaxation 2 (details)
   IALGO  =     38    algorithm
   LDIAG  =      T    sub-space diagonalisation (order eigenvalues)
   LSUBROT=      F    optimize rotation matrix (better conditioning)
   TURBO    =      0    0=normal 1=particle mesh
   IRESTART =      0    0=no restart 2=restart with 2 vectors
   NREBOOT  =      0    no. of reboots
   NMIN     =      0    reboot dimension
   EREF     =   0.00    reference energy to select bands
   IMIX   =      4    mixing-type and parameters
     AMIX     =   0.40;   BMIX     =  1.00
     AMIX_MAG =   1.60;   BMIX_MAG =  1.00
     AMIN     =   0.10
     WC   =   100.;   INIMIX=   1;  MIXPRE=   1;  MAXMIX= -45

 Intra band minimization:
   WEIMIN = 0.0010     energy-eigenvalue tresh-hold
   EBREAK =  0.21E-09  absolut break condition
   DEPER  =   0.30     relativ break condition  

   TIME   =   0.40     timestep for ELM

  volume/ion in A,a.u.               =      14.28        96.39
  Fermi-wavevector in a.u.,A,eV,Ry     =   1.319690  2.493853 23.695660  1.741582
  Thomas-Fermi vector in A             =   2.449570
 
 Write flags
   LWAVE        =      T    write WAVECAR
   LDOWNSAMPLE  =      F    k-point downsampling of WAVECAR
   LCHARG       =      T    write CHGCAR
   LVTOT        =      F    write LOCPOT, total local potential
   LVHAR        =      F    write LOCPOT, Hartree potential only
   LELF         =      F    write electronic localiz. function (ELF)
   LORBIT       =     11    0 simple, 1 ext, 2 COOP (PROOUT), +10 PAW based schemes


 Dipole corrections
   LMONO  =      F    monopole corrections only (constant potential shift)
   LDIPOL =      F    correct potential (dipole corrections)
   IDIPOL =      0    1-x, 2-y, 3-z, 4-all directions 
   EPSILON=  1.0000000 bulk dielectric constant

 LDA+U is selected, type is set to LDAUTYPE =  2
   angular momentum for each species LDAUL =    -1    2   -1   -1
   U (eV)           for each species LDAUU =   0.0  4.2  0.0  0.0
   J (eV)           for each species LDAUJ =   0.0  0.0  0.0  0.0
 Exchange correlation treatment:
   GGA     =    PS    GGA type
   LEXCH   =    14    internal setting for exchange type
   VOSKOWN=      0    Vosko Wilk Nusair interpolation
   LHFCALC =     F    Hartree Fock is set to
   LHFONE  =     F    Hartree Fock one center treatment
   AEXX    =    0.0000 exact exchange contribution

 Linear response parameters
   LEPSILON=     F    determine dielectric tensor
   LRPA    =     F    only Hartree local field effects (RPA)
   LNABLA  =     F    use nabla operator in PAW spheres
   LVEL    =     F    velocity operator in full k-point grid
   LINTERFAST=   F  fast interpolation
   KINTER  =     0    interpolate to denser k-point grid
   CSHIFT  =0.1000    complex shift for real part using Kramers Kronig
   OMEGAMAX=  -1.0    maximum frequency
   DEG_THRESHOLD= 0.2000000E-02 threshold for treating states as degnerate
   RTIME   =   -0.100 relaxation time in fs
  (WPLASMAI=    0.000 imaginary part of plasma frequency in eV, 0.658/RTIME)
   DFIELD  = 0.0000000 0.0000000 0.0000000 field for delta impulse in time
 
 Orbital magnetization related:
   ORBITALMAG=     F  switch on orbital magnetization
   LCHIMAG   =     F  perturbation theory with respect to B field
   DQ        =  0.001000  dq finite difference perturbation B field
   LLRAUG    =     F  two centre corrections for induced B field



--------------------------------------------------------------------------------------------------------


 quasi-Newton-method for relaxation of ions
 charge density and potential will be updated during run
 spin polarized calculation
 Variant of blocked Davidson
 Davidson routine will perform the subspace rotation
 perform sub-space diagonalisation
    after iterative eigenvector-optimisation
 modified Broyden-mixing scheme, WC =      100.0
 initial mixing is a Kerker type mixing with AMIX =  0.4000 and BMIX =      1.0000
 Hartree-type preconditioning will be used
 using additional bands          202
 real space projection scheme for non local part
 use partial core corrections
 calculate Harris-corrections to forces 
   (improved forces if not selfconsistent)
 use gradient corrections 
 use of overlap-Matrix (Vanderbilt PP)
 Gauss-broadening in eV      SIGMA  =   0.01


--------------------------------------------------------------------------------------------------------


  energy-cutoff  :      500.00
  volume of cell :     3671.03
      direct lattice vectors                 reciprocal lattice vectors
    15.426331000  0.000000000  0.000000000     0.064824228  0.000000000  0.000000000
     0.000000000 15.426331000  0.000000000     0.000000000  0.064824228  0.000000000
     0.000000000  0.000000000 15.426331000     0.000000000  0.000000000  0.064824228

  length of vectors
    15.426331000 15.426331000 15.426331000     0.064824228  0.064824228  0.064824228


 
 old parameters found on file WAVECAR:
  energy-cutoff  :      500.00
  volume of cell :     3671.03
      direct lattice vectors                 reciprocal lattice vectors
    15.426331000  0.000000000  0.000000000     0.064824228  0.000000000  0.000000000
     0.000000000 15.426331000  0.000000000     0.000000000  0.064824228  0.000000000
     0.000000000  0.000000000 15.426331000     0.000000000  0.000000000  0.064824228

  length of vectors

 
 k-points in units of 2pi/SCALE and weight: Title                                   
   0.01620606  0.01620606  0.01620606       0.250
  -0.01620606  0.01620606  0.01620606       0.250
   0.01620606 -0.01620606  0.01620606       0.250
  -0.01620606 -0.01620606  0.01620606       0.250
 
 k-points in reciprocal lattice and weights: Title                                   
   0.25000000  0.25000000  0.25000000       0.250
  -0.25000000  0.25000000  0.25000000       0.250
   0.25000000 -0.25000000  0.25000000       0.250
  -0.25000000 -0.25000000  0.25000000       0.250
 
 position of ions in fractional coordinates (direct lattice) 
   0.84914718  0.62587182  0.85127619
   0.99544135  0.99478088  0.99463762
   0.99813054  0.99092762  0.49383603
   0.00739039  0.49567365  0.99893616
   0.99434188  0.50392889  0.50598334
   0.49440569  0.99306575  0.00025549
   0.50175651  0.00903115  0.49857959
   0.50494568  0.49487877  0.99701227
   0.49325853  0.49933143  0.49551693
   0.00633354  0.00310736  0.25597647
   0.00265106  0.00672985  0.75687858
   0.99386660  0.49304920  0.25145106
   0.99222242  0.50056228  0.74203970
   0.50509771  0.00904505  0.25057645
   0.49323758  0.00722045  0.75284776
   0.49316306  0.49552303  0.25811451
   0.50285351  0.50474901  0.75919641
   0.99542508  0.25796540  0.00185173
   0.99837409  0.24843759  0.49107199
   0.99969784  0.75808406  0.00799738
   0.99626001  0.75633955  0.50757809
   0.49511704  0.25804675  0.00222421
   0.50934768  0.24608014  0.49775618
   0.50786163  0.75565496  0.00038311
   0.50738971  0.75348557  0.50968938
   0.99927728  0.25836988  0.25473082
   0.00835242  0.24320567  0.74793721
   0.00640680  0.74752589  0.24423769
   0.99058182  0.74857195  0.74545967
   0.50755499  0.24109196  0.25213680
   0.50840149  0.24460801  0.75122356
   0.50630506  0.75109680  0.25182012
   0.50149965  0.74218723  0.74505288
   0.25645281  0.99780717  0.00574978
   0.25110680  0.99351441  0.50638460
   0.24499257  0.50873583  0.99874924
   0.25620051  0.49444858  0.50665661
   0.75644906  0.99989920  0.99319636
   0.74934097  0.00847011  0.49442685
   0.74216924  0.49940857  0.00729719
   0.75716796  0.49792798  0.50290512
   0.24457220  0.00239640  0.24353752
   0.25824968  0.99895782  0.74453924
   0.25490971  0.49141726  0.25274783
   0.24657771  0.50635053  0.74142320
   0.74389828  0.00154964  0.25504992
   0.74697266  0.00737617  0.75561954
   0.75584597  0.49684711  0.24279447
   0.75802687  0.49715865  0.73966285
   0.25680572  0.25211011  0.00629920
   0.25403283  0.25687070  0.50524370
   0.25266168  0.74239392  0.99416055
   0.25244135  0.75527916  0.49336240
   0.75656074  0.25200430  0.00746052
   0.74223829  0.24295937  0.49734145
   0.74210117  0.74605002  0.99256354
   0.74175790  0.75238614  0.49196520
   0.25036838  0.25762720  0.24371295
   0.24408300  0.25324869  0.74394965
   0.24363521  0.74726546  0.25611177
   0.24542949  0.74163981  0.75665260
   0.74118875  0.25137669  0.24159259
   0.74373142  0.24194461  0.75022529
   0.74499955  0.74857402  0.25495047
   0.75348018  0.75043838  0.75301033
   0.00013691  0.50510408  0.62435457
   0.99650836  0.00365625  0.37580126
   0.00231736  0.99890041  0.87294910
   0.50301231  0.48800365  0.37595098
   0.49702637  0.49274296  0.87541438
   0.99689290  0.74076133  0.12657036
   0.99721364  0.74342934  0.62391453
   0.50164974  0.74763198  0.62539049
   0.98996063  0.25028398  0.37608134
   0.25686854  0.00169002  0.12531511
   0.25718275  0.00333502  0.62519424
   0.24398088  0.49335953  0.62589333
   0.75244273  0.48030308  0.12622548
   0.75569054  0.48410792  0.62303865
   0.74816689  0.00853449  0.37547973
   0.74294671  0.01088188  0.87351192
   0.24107795  0.25120319  0.12575332
   0.24913761  0.25155753  0.62480643
   0.73755029  0.26739206  0.12592566
   0.25283658  0.74449201  0.37519237
   0.24831396  0.75054967  0.87579159
   0.74866979  0.74156123  0.37283352
   0.75323764  0.72533775  0.87819599
   0.12487984  0.51129809  0.99855782
   0.62659694  0.51127374  0.00047242
   0.12503861  0.00679167  0.25003501
   0.62413423  0.00646516  0.24733667
   0.62468123  0.26389928  0.48906859
   0.62403740  0.73620667  0.00340324
   0.62496457  0.76843165  0.49778365
   0.12514619  0.26509792  0.75293709
   0.12521267  0.74740238  0.25051716
   0.62513680  0.24020894  0.26457108
   0.62595701  0.26416751  0.75260038
   0.62235626  0.74911285  0.24807794
   0.37581679  0.99385352  0.99040244
   0.37684964  0.51092647  0.50190886
   0.87263804  0.99556099  0.99739088
   0.87557862  0.51019562  0.49324113
   0.37600270  0.01202084  0.75981728
   0.37401050  0.49130304  0.25235336
   0.87535338  0.49288765  0.25543868
   0.87556388  0.52472089  0.75680346
   0.37564890  0.25372628  0.00879485
   0.87385521  0.25501956  0.00922013
   0.88011424  0.72144557  0.76108644
   0.51685149  0.12297370  0.48851433
   0.01269007  0.12632499  0.74764641
   0.49014346  0.12510328  0.26849602
   0.51320743  0.12491512  0.75428901
   0.51425916  0.62547624  0.75531302
   0.00589394  0.37584221  0.00790251
   0.00826463  0.87474089  0.00580012
   0.98510470  0.87514133  0.50082429
   0.50848411  0.37385059  0.01278495
   0.50934997  0.87499492  0.01081219
   0.01050669  0.37384639  0.24358883
   0.26358709  0.62490386  0.00420803
   0.73362220  0.12587236  0.51009858
   0.23380524  0.62432776  0.74892527
   0.73747309  0.12591615  0.73549512
   0.25979722  0.37334577  0.49199590
   0.26122082  0.87568318  0.49893407
   0.23787059  0.37418507  0.25902605
   0.99759037  0.00583002  0.12648311
   0.00176446  0.99989893  0.62369915
   0.99587946  0.51347130  0.12537713
   0.48986012  0.01465028  0.12650520
   0.49455056  0.00444311  0.62271320
   0.49975977  0.51189632  0.12809891
   0.50809088  0.50464896  0.62505568
   0.00787377  0.49126182  0.37583236
   0.99938249  0.49486166  0.87331285
   0.50606036  0.98273091  0.37648389
   0.51737968  0.99235093  0.87530027
   0.01144262  0.24216078  0.12710646
   0.00389819  0.25597618  0.62132923
   0.51240251  0.23187818  0.12708327
   0.50372023  0.24141392  0.62248762
   0.49317496  0.73852423  0.12725676
   0.99112874  0.25478103  0.87428681
   0.99610315  0.75360479  0.37504338
   0.00799296  0.75256953  0.87614112
   0.48715278  0.26787423  0.37537703
   0.49480442  0.25962420  0.87507471
   0.49513315  0.76126150  0.37565711
   0.49693837  0.75781663  0.87513745
   0.24729262  0.49132733  0.12535358
   0.75035023  0.99062340  0.12578903
   0.74896583  0.98884681  0.62198354
   0.25028025  0.00269514  0.37560299
   0.24063274  0.99502351  0.87428309
   0.24444542  0.51345868  0.37566644
   0.25643506  0.49989450  0.87408331
   0.74293100  0.51321374  0.37414144
   0.75672361  0.52413227  0.87633327
   0.25377100  0.75577231  0.12564768
   0.25115328  0.75171173  0.62528298
   0.74751414  0.26836181  0.62227924
   0.75343054  0.75946863  0.12563060
   0.75236006  0.75793502  0.62231593
   0.25811413  0.24193255  0.37412098
   0.25606149  0.25031627  0.87519365
   0.76489323  0.23519406  0.37367988
   0.75651308  0.23588809  0.87598549
   0.12591227  0.00788788  0.00430620
   0.12466867  0.99229213  0.50032119
   0.12343279  0.49202593  0.49718843
   0.62481676  0.00703664  0.01055362
   0.62372819  0.97852616  0.50395947
   0.62729201  0.48627985  0.50148071
   0.12684948  0.98451553  0.74439297
   0.12380842  0.51085295  0.24609434
   0.12294771  0.48065155  0.75716014
   0.62331644  0.98348066  0.73916163
   0.62527915  0.50334870  0.24748596
   0.62888899  0.48154116  0.75521918
   0.12441384  0.24519660  0.99053111
   0.12368748  0.25610287  0.49275323
   0.12567942  0.73563105  0.00556494
   0.12420989  0.76020816  0.49866441
   0.62623716  0.24395121  0.99031072
   0.12403964  0.23369930  0.26130759
   0.12396114  0.76796720  0.74747765
   0.62222523  0.77104640  0.75423130
   0.37800226  0.01618699  0.49186887
   0.37386187  0.48868727  0.00610778
   0.87398875  0.01832133  0.50631469
   0.87482225  0.49329301  0.99520916
   0.37695850  0.99186725  0.25868780
   0.37550939  0.51247224  0.74411973
   0.87291225  0.99594726  0.24806079
   0.87458417  0.01367983  0.74491708
   0.37958500  0.23412282  0.50218546
   0.37618538  0.76381364  0.00059970
   0.37796265  0.73625733  0.50079142
   0.87411516  0.23998236  0.50924211
   0.87352801  0.76017448  0.99689383
   0.87184077  0.73373967  0.49876640
   0.37789915  0.26134970  0.24081501
   0.37669185  0.23921341  0.74772327
   0.37672836  0.75227317  0.24960099
   0.37415708  0.73821346  0.75080881
   0.87349276  0.26074362  0.23996415
   0.87467242  0.24168118  0.74253291
   0.87314685  0.75090554  0.25068827
   0.99727573  0.12734339  0.99790466
   0.00850428  0.12603127  0.50603605
   0.98359673  0.62498214  0.98726315
   0.01166614  0.62641406  0.48892679
   0.49901651  0.12444739  0.99078701
   0.48484386  0.62664685  0.99519367
   0.51588936  0.62673469  0.49184103
   0.98691508  0.12796751  0.24875456
   0.99450328  0.62273994  0.26236302
   0.02547700  0.62284532  0.75800405
   0.49648018  0.62556725  0.26261084
   0.99165367  0.37425203  0.50140066
   0.48675897  0.37156399  0.51240025
   0.48185893  0.87877062  0.50562462
   0.98171149  0.37586702  0.74692860
   0.99898240  0.87580690  0.24727505
   0.98253093  0.87529290  0.74600982
   0.50917989  0.37123831  0.23589549
   0.48772089  0.37426696  0.73976170
   0.50052264  0.87609122  0.23864349
   0.48684112  0.87653370  0.74736357
   0.25220351  0.12489591  0.99436503
   0.24089357  0.12455747  0.49797588
   0.23936218  0.62634709  0.50696332
   0.75088521  0.12605503  0.01495165
   0.76785761  0.62381034  0.02101545
   0.73546901  0.62496834  0.50987431
   0.26361415  0.12645264  0.25129275
   0.23648028  0.12503031  0.75562786
   0.25560408  0.62312264  0.23946950
   0.76166894  0.12641789  0.23588275
   0.75191231  0.62384769  0.23516988
   0.72944803  0.61957702  0.73506313
   0.24198017  0.37629571  0.99566007
   0.23804912  0.87356239  0.00259031
   0.74262165  0.37527916  0.97794967
   0.76355263  0.37251423  0.48147833
   0.73843046  0.87319897  0.98936083
   0.76810555  0.87669532  0.49216911
   0.26664644  0.37651489  0.75695256
   0.24974346  0.87539866  0.25327623
   0.26330023  0.87354695  0.74758419
   0.74233584  0.37357789  0.27296746
   0.76773793  0.37481767  0.76631364
   0.74849369  0.87517502  0.25580340
   0.76760949  0.88049554  0.75632230
 
 position of ions in cartesian coordinates  (Angst):
  13.09922553  9.65490586 13.13206833
  15.35600770 15.34581915 15.34360917
  15.39749205 15.28637743  7.61807809
   0.11400655  7.64642585 15.40991992
  15.33904699  7.77377393  7.80546648
   7.62686583 15.31936102  0.00394129
   7.74026207  0.13931751  7.69125376
   7.78945916  7.63416367 15.38024134
   7.60916940  7.70285189  7.64400825
   0.09770325  0.04793516  3.94877770
   0.04089619  0.10381688 11.67585946
  15.33171512  7.60594011  3.87896734
  15.30635143  7.72183935 11.44694996
   7.79180442  0.13953194  3.86547523
   7.60884617  0.11138505 11.61367877
   7.60769660  7.64410229  3.98175989
   7.75718467  7.78642527 11.71161507
  15.35575672  3.97945969  0.02856545
  15.40124911  3.83248057  7.57543911
  15.42166972 11.69445557  0.12337017
  15.36863671 11.66754420  7.83006765
   7.63783934  3.98071452  0.03431140
   7.85736591  3.79611370  7.67855164
   7.83444159 11.65698352  0.00590995
   7.82716168 11.62351780  7.86263715
  15.41518212  3.98569924  3.92956188
   0.12884724  3.75177124 11.53792700
   0.09883342 11.53158182  3.76769143
  15.28104307 11.54771863 11.49970754
   7.82971126  3.71916433  3.88954576
   7.84276962  3.77340410 11.58862326
   7.81042945 11.58666782  3.88466051
   7.73629965 11.44922586 11.49343230
   3.95612590 15.39250373  0.08869794
   3.87365668 15.32628215  7.81165641
   3.77933645  7.84792724 15.40703642
   3.95223386  7.62752751  7.81585256
  11.66923355 15.42477604 15.32137572
  11.55958187  0.13066274  7.62719221
  11.44894832  7.70404193  0.11256880
  11.68032354  7.68120187  7.75798091
   3.77285167  0.03696761  3.75689047
   3.98384500 15.41025393 11.48550879
   3.93232163  7.58076526  3.89897172
   3.80378930  7.81113085 11.43743976
  11.47562115  0.02390529  3.93448454
  11.52304748  0.11378723 11.65643710
  11.65993017  7.66452803  3.74542788
  11.69357341  7.66933390 11.41028388
   3.96157006  3.88913396  0.09717349
   3.91879445  3.96257252  7.79405656
   3.89764276 11.45241430 15.33624969
   3.89424383 11.65118639  7.61077175
  11.67095642  3.88750176  0.11508849
  11.45001348  3.74797168  7.67215379
  11.44789827 11.50881449 15.31161371
  11.44260288 11.60655766  7.58921797
   3.86226548  3.97424239  3.75959670
   3.76530509  3.90669814 11.47641357
   3.75839737 11.52756436  3.95086495
   3.78607655 11.44078114 11.67237340
  11.43382304  3.87782008  3.72688722
  11.47304702  3.73231761 11.57322361
  11.49260971 11.54775059  3.93295035
  11.62343472 11.57651084 11.61618659
   0.00211203  7.79190267  9.63150029
  15.37246782  0.05640249  5.79723466
   0.03574833 15.40936830 13.46640169
   7.75963436  7.52810578  5.79954428
   7.66729333  7.60121602 13.50443194
  15.37839989 11.42722943  1.95251619
  15.38334773 11.46838713  9.62471203
   7.73861493 11.53321843  9.64748066
  15.27146030  3.86096354  5.80155522
   3.96253918  0.02607088  1.93315244
   3.96738620  0.05144719  9.64445335
   3.76372986  7.61072738  9.65523768
  11.60743066  7.40931431  1.94719603
  11.65753240  7.46800904  9.61120042
  11.54147003  0.13165585  5.79227452
  11.46094181  0.16786746 13.47508407
   3.71894829  3.87514362  1.93991234
   3.84327926  3.88060969  9.63847080
  11.37769489  4.12487838  1.94257085
   3.90034083 11.48478011  5.78784172
   3.83057341 11.57822766 13.51025097
  11.54922803 11.43956904  5.75145329
  11.61969323 11.18930016 13.54734199
   1.92643782  7.88745362 15.40408346
   9.66609177  7.88707788  0.00728767
   1.92888696  0.10477059  3.85712282
   9.62810125  0.09973374  3.81549728
   9.63653940  4.07099763  7.54453400
   9.62660749 11.35696780  0.05249947
   9.64091032 11.85408099  7.67897541
   1.93054658  4.08948824 11.61505678
   1.93157204 11.52967658  3.86456070
   9.64356714  3.70554268  4.08136103
   9.65622003  4.07513549 11.60986257
   9.60067369 11.55606282  3.82693237
   5.79747422 15.33151341 15.27827588
   5.81340729  7.88172077  7.74261214
  13.46160323 15.35785336 15.38608191
  13.50696566  7.87044653  7.60890095
   5.80034214  0.18543748 11.72119281
   5.76960977  7.57900324  3.89288653
  13.50349098  7.60344796  3.94048165
  13.50673821  8.09451806 11.67470067
   5.79488420  3.91406551  0.13567229
  13.48037976  3.93401608  0.14223270
  13.57693357 11.12925815 11.74077132
   7.97312211  1.89703294  7.53598378
   0.19576123  1.94873111 11.53344098
   7.56111520  1.92988455  4.14190841
   7.91690773  1.92698198 11.63591188
   7.93313210  9.64880344 11.65170867
   0.09092187  5.79786639  0.12190675
   0.12749298 13.49404250  0.08947464
  15.19655116 13.50021980  7.72588123
   7.84404424  5.76714288  0.19722486
   7.85740123 13.49796131  0.16679245
   0.16207974  5.76707809  3.75768191
   4.06618169  9.63997385  0.06491443
  11.31709882  1.94174863  7.86894951
   3.60675697  9.63108662 11.55316910
  11.37650393  1.94242423 11.34599124
   4.00771796  5.75935541  7.58969165
   4.02967882 13.50857853  7.69672218
   3.66947038  5.77230276  3.99582157
  15.38915928  0.08993577  1.95117034
   0.02721921 15.42477184  9.62138946
  15.36276617  7.92097827  1.93410910
   7.55674434  0.22599999  1.95151111
   7.62910064  0.06854085  9.60618001
   7.70945962  7.89668210  1.97609611
   7.83797812  7.78488196  9.64231579
   0.12146343  7.57836744  5.79771435
  15.41680504  7.63389976 13.47201311
   7.80665464 15.15993233  5.80776510
   7.98127022 15.30833390 13.50267177
   0.17651770  3.73565241  1.96078636
   0.06013481  3.94877326  9.58483029
   7.90449072  3.57702950  1.96042860
   7.77055502  3.72413104  9.60270005
   7.60788010 11.39271923  1.96310488
  15.28947996  3.93033649 13.48703765
  15.36621685 11.62535689  5.78554328
   0.12330207 11.60938671 13.51564294
   7.51498008  4.13231660  5.79069026
   7.63301681  4.00504879 13.49919217
   7.63808786 11.74347185  5.79501087
   7.66593576 11.69033022 13.50015994
   3.81481780  7.57937804  1.93374575
  11.57515096 15.28168441  1.94046316
  11.55379486 15.25427821  9.59492391
   3.86090592  0.04157608  5.79417607
   3.71208035 15.34956209 13.48698037
   3.77089600  7.92078350  5.79515483
   3.95585205  7.71153797 13.48389846
  11.46069956  7.91700503  5.77162977
  11.67346886  8.08543785 13.51860709
   3.91475546 11.65879376  1.93828272
   3.87437357 11.59615401  9.64582224
  11.53140058  4.13983814  9.59948545
  11.62266888 11.71581443  1.93801920
  11.60615531 11.69215650  9.60005147
   3.98175401  3.73213165  5.77131407
   3.95008926  3.86146158 13.50102698
  11.79949620  3.62818136  5.76450956
  11.67022114  3.63888782 13.51324213
   1.94236429  0.12168099  0.06642891
   1.92318017 15.30742678  7.71812022
   1.90411511  7.59015485  7.66979327
   9.63863021  0.10854956  0.16280364
   9.62183747 15.09506845  7.77424563
   9.67681410  7.50151388  7.73600741
   1.95682213 15.18746247 11.48325228
   1.90990962  7.88058668  3.79633278
   1.89663208  7.41468994 11.68020299
   9.61548570 15.17149820 11.40255191
   9.64576308  7.76482360  3.81780036
   9.70144971  7.42841328 11.65026098
   1.91924904  3.78248390 15.28026084
   1.90804408  3.95072761  7.60137440
   1.93877228 11.34808804  0.08584654
   1.91610290 11.72722269  7.69256220
   9.66054173  3.76327219 15.27686092
   1.91347648  3.60512281  4.03101733
   1.91226556 11.84691630 11.53083757
   9.59865233 11.89441705 11.63502162
   5.83118803  0.24970587  7.58773200
   5.76731699  7.53865161  0.09422061
  13.48243977  0.28263087  7.81057800
  13.49529754  7.60970121 15.35242592
   5.81508664 15.30087257  3.99060357
   5.79273214  7.90556642 11.47903732
  13.46583330 15.36381212  3.82666782
  13.49162484  0.21102960 11.49133742
   5.85560378  3.61165606  7.74687921
   5.80316015 11.78284202  0.00925119
   5.83057702 11.35774922  7.72537419
  13.48438985  3.70204733  7.85573730
  13.47533217 11.72670316 15.37841419
  13.44930435 11.31891094  7.69413562
   5.82959733  4.03166705  3.71489207
   5.81097321  3.69018528 11.53462660
   5.81153637 11.60481492  3.85042748
   5.77187097 11.38792520 11.58222524
  13.47478840  4.02231739  3.70176647
  13.49298630  3.72825394 11.45455840
  13.46945232 11.58371744  3.86720022
  15.38430551  1.96444121 15.39400767
   0.13118985  1.94420005  7.80627960
  15.17328874  9.64118136 15.22984818
   0.17996570  9.66327063  7.54234657
   7.69799392  1.91976662 15.28420829
   7.47936187  9.66686174 15.35218690
   7.95828000  9.66821676  7.58730250
  15.22447870  1.97406924  3.83737014
  15.34153682  9.60659243  4.04729882
   0.39301661  9.60821800 11.69322139
   7.65886755  9.65020739  4.05112174
  15.29757778  5.77333575  7.73477260
   7.50890497  5.73186908  7.90445588
   7.43331530 13.55620639  7.79993269
  15.14420641  5.79824901 11.52236784
  15.41063309 13.51048715  3.81454670
  15.15684737 13.50255800 11.50819441
   7.85477747  5.72684505  3.63900198
   7.52374385  5.77356605 11.41180881
   7.72122796 13.51487311  3.68139353
   7.51017231 13.52169894 11.52907774
   3.89057487  1.92668559 15.33940407
   3.71610391  1.92146478  7.68194068
   3.69248014  9.66223750  7.82058405
  11.58340373  1.94456669  0.23064905
  11.84522562  9.62310485  0.32419128
  11.34558833  9.64096848  7.86548990
   4.06659919  1.95070028  3.87652515
   3.64802314  1.92875894 11.65656547
   3.94303308  9.61249608  3.69413575
  11.74975722  1.95016419  3.63880531
  11.59924819  9.62368098  3.62780848
  11.25270683  9.55780019 11.33932707
   3.73286620  5.80486212 15.35938175
   3.67222453 13.47586258  0.03995902
  11.45592742  5.78918052 15.08617536
  11.77881567  5.74652779  7.42744411
  11.39127268 13.47025639 15.26220759
  11.84905048 13.52419221  7.59236360
   4.11337628  5.80824327 11.67700081
   3.85262529 13.50418942  3.90712292
   4.06175653 13.47562435 11.53248119
  11.45151834  5.76293615  4.21088644
  11.84337935  5.78206140 11.82140780
  11.54651141 13.50073960  3.94610796
  11.84139807 13.58281558 11.66727816
 


--------------------------------------------------------------------------------------------------------


 k-point  1 :   0.2500 0.2500 0.2500  plane waves:   93161
 k-point  2 :  -0.2500 0.2500 0.2500  plane waves:   93161
 k-point  3 :   0.2500-0.2500 0.2500  plane waves:   93161
 k-point  4 :  -0.2500-0.2500 0.2500  plane waves:   93161

 maximum and minimum number of plane-waves per node :     11686    11606

 maximum number of plane-waves:     93161
 maximum index in each direction: 
   IXMAX=   28   IYMAX=   28   IZMAX=   27
   IXMIN=  -28   IYMIN=  -28   IZMIN=  -28


 real space projection operators:
  total allocation   :     105587.20 KBytes
  max/ min on nodes  :      13246.16      13154.64


 parallel 3D FFT for wavefunctions:
    minimum data exchange during FFTs selected (reduces bandwidth)
 parallel 3D FFT for charge:
    minimum data exchange during FFTs selected (reduces bandwidth)


 total amount of memory used by VASP MPI-rank0   291519. kBytes
=======================================================================

   base      :      30000. kBytes
   nonlr-proj:      49484. kBytes
   fftplans  :      27976. kBytes
   grid      :      34041. kBytes
   one-center:       1026. kBytes
   wavefun   :     148992. kBytes
 
     INWAV:  cpu time   52.1595: real time   52.6417
 Broyden mixing: mesh for mixing (old mesh)
   NGX = 57   NGY = 57   NGZ = 57
  (NGX  =240   NGY  =240   NGZ  =240)
  gives a total of 185193 points

 charge density for first step will be calculated from the start-wavefunctions


--------------------------------------------------------------------------------------------------------


 Maximum index for non-local projection operator          970
 Maximum index for augmentation-charges         3291 (set IRDMAX)


--------------------------------------------------------------------------------------------------------


 initial charge from wavefunction
 First call to EWALD:  gamma=   0.115
 Maximum number of real-space cells 3x 3x 3
 Maximum number of reciprocal cells 3x 3x 3

    FEWALD:  cpu time    0.0333: real time    0.0338


--------------------------------------- Iteration      1(   1)  ---------------------------------------


    POTLOK:  cpu time    0.3128: real time    0.3366
    SETDIJ:  cpu time    1.2607: real time    1.4092
     EDDAV:  cpu time  132.5466: real time  133.1194
       DOS:  cpu time    0.0035: real time    0.0223
    CHARGE:  cpu time    5.1580: real time    5.2419
    MIXING:  cpu time    0.0248: real time    0.0276
    --------------------------------------------
      LOOP:  cpu time  139.3064: real time  140.1570

 eigenvalue-minimisations  : 23532
 total energy-change (2. order) :-0.1845178E+04  (-0.3661007E+03)
 number of electron    1923.0000027 magnetization       1.0000000
 augmentation part      502.7439015 magnetization       1.0846767

 Broyden mixing:
  rms(total) = 0.69884E+01    rms(broyden)= 0.69856E+01
  rms(prec ) = 0.11018E+02
  weight for this iteration     100.00

 Free energy of the ion-electron system (eV)
  ---------------------------------------------------
  alpha Z        PSCENC =      6118.73324990
  Ewald energy   TEWEN  =   -103893.75447162
  -Hartree energ DENC   =    -64751.54994005
  -exchange      EXHF   =         0.00000000
  -V(xc)+E(xc)   XCENC  =      8954.74837565
  PAW double counting   =    196743.27141524  -197735.98541677
  entropy T*S    EENTRO =        -0.00486301
  eigenvalues    EBANDS =    -25857.88909461
  atomic energy  EATOM  =    178577.25249613
  Solvation  Ediel_sol  =         0.00000000
  ---------------------------------------------------
  free energy    TOTEN  =     -1845.17824914 eV

  energy without entropy =    -1845.17338613  energy(sigma->0) =    -1845.17581763


--------------------------------------------------------------------------------------------------------




--------------------------------------- Iteration      1(   2)  ---------------------------------------


    POTLOK:  cpu time    0.3379: real time    0.3533
    SETDIJ:  cpu time    1.4230: real time    1.4373
     EDDAV:  cpu time  146.0740: real time  146.8505
       DOS:  cpu time    0.0027: real time    0.0027
    CHARGE:  cpu time    5.2611: real time    5.2619
    MIXING:  cpu time    0.0079: real time    0.0088
    --------------------------------------------
      LOOP:  cpu time  153.1065: real time  153.9145

 eigenvalue-minimisations  : 26628
 total energy-change (2. order) : 0.2534490E+02  (-0.2247061E+03)
 number of electron    1923.0000026 magnetization       1.0000000
 augmentation part      501.2782589 magnetization       0.7714728

 Broyden mixing:
  rms(total) = 0.76888E+01    rms(broyden)= 0.76849E+01
  rms(prec ) = 0.10641E+02
  weight for this iteration     100.00

 eigenvalues of (default mixing * dielectric matrix)
  average eigenvalue GAMMA=   0.4433
  0.4433

 Free energy of the ion-electron system (eV)
  ---------------------------------------------------
  alpha Z        PSCENC =      6118.73324990
  Ewald energy   TEWEN  =   -103893.75447162
  -Hartree energ DENC   =    -64761.43859896
  -exchange      EXHF   =         0.00000000
  -V(xc)+E(xc)   XCENC  =      8953.08329846
  PAW double counting   =    198015.63609181  -198985.50163052
  entropy T*S    EENTRO =        -0.00076076
  eigenvalues    EBANDS =    -25843.84302301
  atomic energy  EATOM  =    178577.25249613
  Solvation  Ediel_sol  =         0.00000000
  ---------------------------------------------------
  free energy    TOTEN  =     -1819.83334856 eV

  energy without entropy =    -1819.83258781  energy(sigma->0) =    -1819.83296818


--------------------------------------------------------------------------------------------------------




--------------------------------------- Iteration      1(   3)  ---------------------------------------


    POTLOK:  cpu time    0.2620: real time    0.2623
    SETDIJ:  cpu time    1.4540: real time    1.4541
     EDDAV:  cpu time  147.2576: real time  148.3320
       DOS:  cpu time    0.0023: real time    0.0023
    CHARGE:  cpu time    5.2530: real time    5.2530
    MIXING:  cpu time    0.0077: real time    0.0077
    --------------------------------------------
      LOOP:  cpu time  154.2367: real time  155.3114

 eigenvalue-minimisations  : 26700
 total energy-change (2. order) :-0.5617553E+01  (-0.1129071E+03)
 number of electron    1923.0000026 magnetization       1.0000000
 augmentation part      493.2324116 magnetization       0.6418601

 Broyden mixing:
  rms(total) = 0.48738E+01    rms(broyden)= 0.48719E+01
  rms(prec ) = 0.56159E+01
  weight for this iteration     100.00

 eigenvalues of (default mixing * dielectric matrix)
  average eigenvalue GAMMA=   0.4743
  0.4743  0.4743

 Free energy of the ion-electron system (eV)
  ---------------------------------------------------
  alpha Z        PSCENC =      6118.73324990
  Ewald energy   TEWEN  =   -103893.75447162
  -Hartree energ DENC   =    -64819.36575660
  -exchange      EXHF   =         0.00000000
  -V(xc)+E(xc)   XCENC  =      8956.09808828
  PAW double counting   =    198183.35479906  -199153.09207841
  entropy T*S    EENTRO =        -0.00228863
  eigenvalues    EBANDS =    -25794.67494015
  atomic energy  EATOM  =    178577.25249613
  Solvation  Ediel_sol  =         0.00000000
  ---------------------------------------------------
  free energy    TOTEN  =     -1825.45090204 eV

  energy without entropy =    -1825.44861341  energy(sigma->0) =    -1825.44975772


--------------------------------------------------------------------------------------------------------




--------------------------------------- Iteration      1(   4)  ---------------------------------------


    POTLOK:  cpu time    0.2610: real time    0.2633
    SETDIJ:  cpu time    1.3831: real time    1.3830
     EDDAV:  cpu time  143.2799: real time  144.3636
       DOS:  cpu time    0.0022: real time    0.0022
    CHARGE:  cpu time    5.2531: real time    5.2537
    MIXING:  cpu time    0.0175: real time    0.0178
    --------------------------------------------
      LOOP:  cpu time  150.1968: real time  151.2837

 eigenvalue-minimisations  : 25944
 total energy-change (2. order) : 0.3583528E+02  (-0.1924785E+02)
 number of electron    1923.0000026 magnetization       1.0000000
 augmentation part      494.3390275 magnetization       0.6316672

 Broyden mixing:
  rms(total) = 0.33960E+01    rms(broyden)= 0.33954E+01
  rms(prec ) = 0.39486E+01
  weight for this iteration     100.00

 eigenvalues of (default mixing * dielectric matrix)
  average eigenvalue GAMMA=   0.5435
  0.5857  0.5857  0.4592

 Free energy of the ion-electron system (eV)
  ---------------------------------------------------
  alpha Z        PSCENC =      6118.73324990
  Ewald energy   TEWEN  =   -103893.75447162
  -Hartree energ DENC   =    -64806.15961943
  -exchange      EXHF   =         0.00000000
  -V(xc)+E(xc)   XCENC  =      8961.61685800
  PAW double counting   =    198268.33858812  -199252.18157728
  entropy T*S    EENTRO =        -0.00061398
  eigenvalues    EBANDS =    -25763.46053655
  atomic energy  EATOM  =    178577.25249613
  Solvation  Ediel_sol  =         0.00000000
  ---------------------------------------------------
  free energy    TOTEN  =     -1789.61562669 eV

  energy without entropy =    -1789.61501271  energy(sigma->0) =    -1789.61531970


--------------------------------------------------------------------------------------------------------




--------------------------------------- Iteration      1(   5)  ---------------------------------------


    POTLOK:  cpu time    0.3053: real time    0.3055
    SETDIJ:  cpu time    1.4517: real time    1.4517
     EDDAV:  cpu time  148.7225: real time  149.7871
       DOS:  cpu time    0.0017: real time    0.0017
    CHARGE:  cpu time    5.2985: real time    5.2988
    MIXING:  cpu time    0.0138: real time    0.0138
    --------------------------------------------
      LOOP:  cpu time  155.7935: real time  156.8586

 eigenvalue-minimisations  : 26964
 total energy-change (2. order) : 0.2208627E+02  (-0.5927462E+01)
 number of electron    1923.0000026 magnetization       1.0000000
 augmentation part      494.7675471 magnetization       0.5946130

 Broyden mixing:
  rms(total) = 0.20680E+01    rms(broyden)= 0.20677E+01
  rms(prec ) = 0.24004E+01
  weight for this iteration     100.00

 eigenvalues of (default mixing * dielectric matrix)
  average eigenvalue GAMMA=   0.6831
  0.8600  0.8600  0.5062  0.5062

 Free energy of the ion-electron system (eV)
  ---------------------------------------------------
  alpha Z        PSCENC =      6118.73324990
  Ewald energy   TEWEN  =   -103893.75447162
  -Hartree energ DENC   =    -64806.88401635
  -exchange      EXHF   =         0.00000000
  -V(xc)+E(xc)   XCENC  =      8964.63537771
  PAW double counting   =    197840.80751717  -198833.29159715
  entropy T*S    EENTRO =        -0.00000000
  eigenvalues    EBANDS =    -25735.02791676
  atomic energy  EATOM  =    178577.25249613
  Solvation  Ediel_sol  =         0.00000000
  ---------------------------------------------------
  free energy    TOTEN  =     -1767.52936095 eV

  energy without entropy =    -1767.52936095  energy(sigma->0) =    -1767.52936095


--------------------------------------------------------------------------------------------------------




--------------------------------------- Iteration      1(   6)  ---------------------------------------


    POTLOK:  cpu time    0.2671: real time    0.2695
    SETDIJ:  cpu time    1.3870: real time    1.3871
     EDDAV:  cpu time  146.7038: real time  147.6231
       DOS:  cpu time    0.0023: real time    0.0023
    CHARGE:  cpu time    5.2609: real time    5.2614
    MIXING:  cpu time    0.0139: real time    0.0139
    --------------------------------------------
      LOOP:  cpu time  153.6350: real time  154.5572

 eigenvalue-minimisations  : 26832
 total energy-change (2. order) : 0.8812587E+01  (-0.4111503E+01)
 number of electron    1923.0000026 magnetization       1.0000000
 augmentation part      495.8263025 magnetization       0.6279288

 Broyden mixing:
  rms(total) = 0.15601E+01    rms(broyden)= 0.15597E+01
  rms(prec ) = 0.16815E+01
  weight for this iteration     100.00

 eigenvalues of (default mixing * dielectric matrix)
  average eigenvalue GAMMA=   0.6398
  0.8584  0.8584  0.4980  0.4920  0.4920

 Free energy of the ion-electron system (eV)
  ---------------------------------------------------
  alpha Z        PSCENC =      6118.73324990
  Ewald energy   TEWEN  =   -103893.75447162
  -Hartree energ DENC   =    -64778.70716742
  -exchange      EXHF   =         0.00000000
  -V(xc)+E(xc)   XCENC  =      8965.81958131
  PAW double counting   =    197440.35250474  -198440.80008374
  entropy T*S    EENTRO =        -0.00000000
  eigenvalues    EBANDS =    -25747.61288314
  atomic energy  EATOM  =    178577.25249613
  Solvation  Ediel_sol  =         0.00000000
  ---------------------------------------------------
  free energy    TOTEN  =     -1758.71677385 eV

  energy without entropy =    -1758.71677385  energy(sigma->0) =    -1758.71677385


--------------------------------------------------------------------------------------------------------




--------------------------------------- Iteration      1(   7)  ---------------------------------------


    POTLOK:  cpu time    0.2684: real time    0.2706
    SETDIJ:  cpu time    1.4379: real time    1.4379
     EDDAV:  cpu time  152.4587: real time  153.2605
       DOS:  cpu time    0.0019: real time    0.0019
    CHARGE:  cpu time    5.2419: real time    5.2419
    MIXING:  cpu time    0.0131: real time    0.0131
    --------------------------------------------
      LOOP:  cpu time  159.4220: real time  160.2260

 eigenvalue-minimisations  : 27864
 total energy-change (2. order) :-0.1430890E-01  (-0.1024419E+01)
 number of electron    1923.0000026 magnetization       1.0000000
 augmentation part      496.2672111 magnetization       0.6130786

 Broyden mixing:
  rms(total) = 0.96122E+00    rms(broyden)= 0.96081E+00
  rms(prec ) = 0.10297E+01
  weight for this iteration     100.00

 eigenvalues of (default mixing * dielectric matrix)
  average eigenvalue GAMMA=   0.7397
  1.0149  1.0149  0.6901  0.6901  0.5142  0.5142

 Free energy of the ion-electron system (eV)
  ---------------------------------------------------
  alpha Z        PSCENC =      6118.73324990
  Ewald energy   TEWEN  =   -103893.75447162
  -Hartree energ DENC   =    -64765.44048980
  -exchange      EXHF   =         0.00000000
  -V(xc)+E(xc)   XCENC  =      8965.59698295
  PAW double counting   =    197268.88830763  -198269.93459084
  entropy T*S    EENTRO =        -0.00000000
  eigenvalues    EBANDS =    -25760.07256709
  atomic energy  EATOM  =    178577.25249613
  Solvation  Ediel_sol  =         0.00000000
  ---------------------------------------------------
  free energy    TOTEN  =     -1758.73108275 eV

  energy without entropy =    -1758.73108275  energy(sigma->0) =    -1758.73108275


--------------------------------------------------------------------------------------------------------




--------------------------------------- Iteration      1(   8)  ---------------------------------------


    POTLOK:  cpu time    0.2707: real time    0.2730
    SETDIJ:  cpu time    1.4211: real time    1.4210
     EDDAV:  cpu time  149.1079: real time  149.9361
       DOS:  cpu time    0.0022: real time    0.0022
    CHARGE:  cpu time    5.2997: real time    5.2999
    MIXING:  cpu time    0.0088: real time    0.0088
    --------------------------------------------
      LOOP:  cpu time  156.1103: real time  156.9410

 eigenvalue-minimisations  : 27276
 total energy-change (2. order) : 0.5663951E+00  (-0.4883607E+00)
[...]
   81        1.574   3.459   0.000   5.033
   82        1.574   3.459   0.000   5.033
   83        1.574   3.458   0.000   5.032
   84        1.576   3.463   0.000   5.039
   85        1.575   3.461   0.000   5.036
   86        1.575   3.464   0.000   5.038
   87        1.576   3.462   0.000   5.038
   88        1.569   3.475   0.000   5.045
   89        1.575   3.460   0.000   5.035
   90        1.575   3.455   0.000   5.030
   91        1.574   3.459   0.000   5.033
   92        1.574   3.458   0.000   5.033
   93        1.578   3.465   0.000   5.043
   94        1.576   3.469   0.000   5.045
   95        1.576   3.469   0.000   5.045
   96        1.575   3.458   0.000   5.032
   97        1.575   3.465   0.000   5.040
   98        1.576   3.469   0.000   5.045
   99        1.575   3.458   0.000   5.032
  100        1.576   3.458   0.000   5.034
  101        1.574   3.455   0.000   5.030
  102        1.575   3.456   0.000   5.031
  103        1.575   3.456   0.000   5.031
  104        1.575   3.458   0.000   5.033
  105        1.576   3.465   0.000   5.042
  106        1.574   3.461   0.000   5.035
  107        1.575   3.459   0.000   5.034
  108        1.570   3.475   0.000   5.045
  109        1.574   3.460   0.000   5.034
  110        1.575   3.457   0.000   5.031
  111        1.571   3.472   0.000   5.043
  112        1.576   3.456   0.000   5.032
  113        1.575   3.466   0.000   5.041
  114        1.577   3.468   0.000   5.045
  115        1.574   3.458   0.000   5.033
  116        1.574   3.457   0.000   5.031
  117        1.575   3.459   0.000   5.034
  118        1.575   3.460   0.000   5.035
  119        1.576   3.472   0.000   5.049
  120        1.575   3.455   0.000   5.030
  121        1.574   3.459   0.000   5.033
  122        1.577   3.465   0.000   5.042
  123        1.577   3.470   0.000   5.047
  124        1.576   3.463   0.000   5.039
  125        1.575   3.469   0.000   5.044
  126        1.576   3.463   0.000   5.039
  127        1.574   3.456   0.000   5.030
  128        1.574   3.457   0.000   5.032
  129        1.576   3.467   0.000   5.044
  130        1.737   4.369   0.000   6.105
  131        1.737   4.370   0.000   6.106
  132        1.737   4.377   0.000   6.115
  133        1.738   4.383   0.000   6.121
  134        1.738   4.381   0.000   6.119
  135        1.737   4.366   0.000   6.102
  136        1.736   4.365   0.000   6.101
  137        1.739   4.379   0.000   6.118
  138        1.738   4.380   0.000   6.118
  139        1.739   4.382   0.000   6.121
  140        1.739   4.383   0.000   6.121
  141        1.738   4.377   0.000   6.115
  142        1.737   4.378   0.000   6.116
  143        1.738   4.381   0.000   6.119
  144        1.738   4.383   0.000   6.121
  145        1.738   4.380   0.000   6.118
  146        1.737   4.379   0.000   6.116
  147        1.736   4.369   0.000   6.105
  148        1.736   4.369   0.000   6.105
  149        1.739   4.379   0.000   6.119
  150        1.738   4.384   0.000   6.122
  151        1.738   4.373   0.000   6.111
  152        1.738   4.379   0.000   6.116
  153        1.737   4.381   0.000   6.118
  154        1.737   4.368   0.000   6.105
  155        1.737   4.367   0.000   6.104
  156        1.737   4.369   0.000   6.105
  157        1.737   4.366   0.000   6.103
  158        1.738   4.374   0.000   6.112
  159        1.738   4.375   0.000   6.113
  160        1.737   4.366   0.000   6.103
  161        1.735   4.365   0.000   6.100
  162        1.737   4.369   0.000   6.105
  163        1.736   4.367   0.000   6.103
  164        1.737   4.372   0.000   6.109
  165        1.737   4.367   0.000   6.103
  166        1.736   4.376   0.000   6.112
  167        1.737   4.368   0.000   6.105
  168        1.737   4.368   0.000   6.105
  169        1.738   4.369   0.000   6.107
  170        1.737   4.373   0.000   6.110
  171        1.737   4.367   0.000   6.104
  172        1.737   4.385   0.000   6.122
  173        1.737   4.368   0.000   6.105
  174        1.737   4.367   0.000   6.103
  175        1.739   4.377   0.000   6.116
  176        1.737   4.363   0.000   6.100
  177        1.737   4.373   0.000   6.110
  178        1.737   4.367   0.000   6.103
  179        1.737   4.370   0.000   6.107
  180        1.738   4.372   0.000   6.109
  181        1.736   4.368   0.000   6.104
  182        1.737   4.371   0.000   6.108
  183        1.737   4.366   0.000   6.102
  184        1.737   4.377   0.000   6.114
  185        1.737   4.379   0.000   6.116
  186        1.737   4.377   0.000   6.114
  187        1.737   4.367   0.000   6.104
  188        1.738   4.374   0.000   6.112
  189        1.739   4.372   0.000   6.111
  190        1.738   4.377   0.000   6.115
  191        1.739   4.381   0.000   6.120
  192        1.737   4.368   0.000   6.105
  193        1.738   4.383   0.000   6.122
  194        1.736   4.367   0.000   6.103
  195        1.737   4.368   0.000   6.105
  196        1.736   4.375   0.000   6.112
  197        1.737   4.368   0.000   6.105
  198        1.737   4.377   0.000   6.114
  199        1.738   4.376   0.000   6.114
  200        1.738   4.377   0.000   6.116
  201        1.738   4.375   0.000   6.113
  202        1.738   4.375   0.000   6.113
  203        1.737   4.377   0.000   6.115
  204        1.738   4.375   0.000   6.113
  205        1.737   4.374   0.000   6.110
  206        1.736   4.363   0.000   6.099
  207        1.737   4.369   0.000   6.106
  208        1.737   4.379   0.000   6.116
  209        1.737   4.373   0.000   6.111
  210        1.736   4.366   0.000   6.102
  211        1.737   4.370   0.000   6.107
  212        1.737   4.367   0.000   6.103
  213        1.739   4.371   0.000   6.110
  214        1.736   4.363   0.000   6.099
  215        1.739   4.376   0.000   6.114
  216        1.736   4.364   0.000   6.100
  217        1.736   4.363   0.000   6.099
  218        1.736   4.374   0.000   6.110
  219        1.738   4.377   0.000   6.115
  220        1.738   4.378   0.000   6.116
  221        1.738   4.371   0.000   6.109
  222        1.737   4.377   0.000   6.114
  223        1.737   4.379   0.000   6.117
  224        1.738   4.375   0.000   6.113
  225        1.737   4.373   0.000   6.111
  226        1.738   4.371   0.000   6.109
  227        1.737   4.378   0.000   6.115
  228        1.736   4.371   0.000   6.108
  229        1.738   4.374   0.000   6.112
  230        1.736   4.363   0.000   6.100
  231        1.738   4.373   0.000   6.110
  232        1.736   4.364   0.000   6.100
  233        1.737   4.379   0.000   6.117
  234        1.736   4.366   0.000   6.103
  235        1.737   4.366   0.000   6.103
  236        1.738   4.381   0.000   6.119
  237        1.739   4.379   0.000   6.117
  238        1.737   4.372   0.000   6.109
  239        1.738   4.376   0.000   6.114
  240        1.737   4.374   0.000   6.111
  241        1.738   4.375   0.000   6.113
  242        1.738   4.381   0.000   6.119
  243        1.738   4.382   0.000   6.120
  244        1.738   4.372   0.000   6.110
  245        1.738   4.376   0.000   6.114
  246        1.738   4.375   0.000   6.113
  247        1.738   4.378   0.000   6.116
  248        1.737   4.371   0.000   6.109
  249        1.737   4.381   0.000   6.117
  250        1.737   4.370   0.000   6.107
  251        1.738   4.374   0.000   6.112
  252        1.737   4.379   0.000   6.117
  253        1.738   4.373   0.000   6.111
  254        1.739   4.381   0.000   6.120
  255        1.738   4.367   0.000   6.105
  256        1.738   4.384   0.000   6.122
  257        1.736   4.377   0.000   6.113
--------------------------------------------------
tot        345.2701194.144 111.7661651.180
 


 magnetization (x)
 
# of ion       s       p       d       tot
------------------------------------------
    1       -0.000  -0.000   0.000  -0.000
    2       -0.000  -0.000  -0.000  -0.000
    3       -0.000  -0.000  -0.000  -0.000
    4       -0.000  -0.000   0.000   0.000
    5       -0.000  -0.000  -0.000  -0.000
    6       -0.000  -0.000   0.000   0.000
    7        0.000   0.000   0.000   0.000
    8       -0.000  -0.000  -0.000  -0.000
    9        0.000  -0.000   0.000   0.000
   10       -0.000  -0.000  -0.000  -0.000
   11       -0.000  -0.000   0.001   0.001
   12       -0.000   0.000   0.000   0.000
   13        0.000   0.000   0.003   0.003
   14        0.000   0.000   0.000   0.000
   15        0.000   0.000   0.000   0.000
   16        0.000   0.000   0.000   0.000
   17        0.000   0.000   0.001   0.001
   18       -0.000  -0.000   0.000   0.000
   19        0.000  -0.000   0.000   0.000
   20       -0.000  -0.000   0.000   0.000
   21       -0.000  -0.000   0.001   0.001
   22       -0.000  -0.000  -0.000  -0.000
   23       -0.000   0.000   0.000   0.000
   24        0.000  -0.000  -0.000  -0.000
   25       -0.000  -0.000   0.000   0.000
   26       -0.000   0.000   0.000   0.000
   27       -0.000  -0.000   0.000   0.000
   28       -0.000  -0.000   0.000   0.000
   29        0.000   0.000   0.045   0.045
   30       -0.000   0.000  -0.000   0.000
   31       -0.000   0.000   0.000   0.000
   32        0.000   0.000   0.000   0.000
   33        0.000   0.000   0.005   0.005
   34       -0.000   0.000  -0.000  -0.000
   35       -0.000  -0.000  -0.000  -0.000
   36       -0.000  -0.000   0.000   0.000
   37       -0.000  -0.000   0.000   0.000
   38       -0.000  -0.000   0.000  -0.000
   39       -0.000  -0.000   0.000   0.000
   40        0.000   0.000  -0.000   0.000
   41       -0.000  -0.000   0.000   0.000
   42       -0.000   0.000  -0.000  -0.000
   43        0.000   0.000   0.000   0.000
   44        0.000   0.000  -0.000  -0.000
   45        0.000   0.000   0.000   0.000
   46       -0.000  -0.000   0.000   0.000
   47       -0.000  -0.000   0.006   0.006
   48       -0.000  -0.000   0.000  -0.000
   49        0.000   0.000   0.004   0.004
   50        0.000   0.000   0.000   0.000
   51       -0.000  -0.000   0.000  -0.000
   52       -0.000  -0.000   0.000   0.000
   53       -0.000  -0.000   0.000   0.000
   54        0.000  -0.000   0.000   0.000
   55        0.000  -0.000   0.000   0.000
   56       -0.000  -0.000  -0.002  -0.003
   57       -0.000  -0.000   0.000   0.000
   58        0.000  -0.000  -0.000  -0.000
   59        0.000   0.000   0.000   0.000
   60        0.000   0.000   0.000   0.000
   61        0.000   0.000   0.001   0.001
   62        0.000  -0.000  -0.000  -0.000
   63       -0.000   0.000   0.000   0.000
   64       -0.000  -0.000  -0.000  -0.000
   65        0.005   0.007   0.905   0.917
   66       -0.000  -0.000   0.000  -0.000
   67       -0.000  -0.000   0.000  -0.000
   68       -0.000  -0.000   0.000  -0.000
   69       -0.000  -0.000   0.000  -0.000
   70       -0.000  -0.000   0.000  -0.000
   71       -0.000  -0.000   0.000  -0.000
   72       -0.000  -0.002   0.000  -0.002
   73       -0.000  -0.000   0.000  -0.000
   74       -0.000  -0.000   0.000  -0.000
   75       -0.000   0.000   0.000   0.000
   76       -0.000  -0.000   0.000  -0.000
   77       -0.000  -0.000   0.000  -0.000
   78       -0.000  -0.000   0.000  -0.000
   79       -0.000  -0.000   0.000  -0.000
   80       -0.000  -0.000   0.000  -0.000
   81       -0.000  -0.000   0.000  -0.000
   82       -0.000  -0.000   0.000  -0.000
   83       -0.000  -0.000   0.000  -0.000
   84       -0.000  -0.000   0.000  -0.000
   85       -0.000  -0.000   0.000  -0.000
   86       -0.000  -0.000   0.000  -0.000
   87       -0.000  -0.000   0.000  -0.000
   88       -0.001  -0.013   0.000  -0.014
   89       -0.000  -0.000   0.000  -0.000
   90       -0.000  -0.000   0.000  -0.000
   91       -0.000   0.000   0.000   0.000
   92       -0.000  -0.000   0.000  -0.000
   93       -0.000  -0.000   0.000  -0.000
   94        0.000  -0.000   0.000  -0.000
   95       -0.000  -0.000   0.000  -0.000
   96       -0.000  -0.000   0.000  -0.000
   97       -0.000  -0.000   0.000  -0.000
   98       -0.000  -0.000   0.000  -0.000
   99       -0.000  -0.000   0.000  -0.000
  100       -0.000  -0.000   0.000  -0.000
  101       -0.000   0.000   0.000   0.000
  102       -0.000  -0.000   0.000  -0.000
  103       -0.000  -0.000   0.000  -0.000
  104       -0.000  -0.000   0.000  -0.000
  105        0.000   0.000   0.000   0.000
  106        0.000  -0.000   0.000  -0.000
  107       -0.000  -0.000   0.000  -0.000
  108       -0.000  -0.001   0.000  -0.001
  109        0.000   0.000   0.000   0.000
  110        0.000  -0.000   0.000  -0.000
  111       -0.001  -0.018   0.000  -0.019
  112       -0.000  -0.000   0.000  -0.000
  113       -0.000  -0.000   0.000  -0.000
  114       -0.000   0.000   0.000   0.000
  115        0.000  -0.000   0.000  -0.000
  116       -0.000  -0.000   0.000  -0.001
  117        0.000  -0.000   0.000  -0.000
  118       -0.000  -0.000   0.000  -0.000
  119       -0.000  -0.000   0.000  -0.000
  120       -0.000  -0.000   0.000  -0.000
  121       -0.000  -0.000   0.000  -0.000
  122        0.000  -0.000   0.000  -0.000
  123       -0.000  -0.000   0.000  -0.000
  124       -0.000  -0.000   0.000  -0.000
  125       -0.000  -0.000   0.000  -0.000
  126       -0.000  -0.001   0.000  -0.001
  127       -0.000  -0.000   0.000  -0.000
  128       -0.000  -0.000   0.000  -0.000
  129        0.000  -0.000   0.000  -0.000
  130       -0.000  -0.000   0.000  -0.000
  131       -0.000  -0.000   0.000  -0.000
  132       -0.000  -0.000   0.000  -0.000
  133       -0.000  -0.000   0.000  -0.000
  134       -0.000  -0.000   0.000  -0.000
  135       -0.000  -0.000   0.000  -0.000
  136       -0.000  -0.000   0.000  -0.000
  137       -0.000  -0.000   0.000  -0.000
  138       -0.000  -0.000   0.000  -0.000
  139       -0.000  -0.000   0.000  -0.000
  140       -0.000  -0.000   0.000  -0.000
  141       -0.000  -0.000   0.000  -0.000
  142       -0.000  -0.000   0.000  -0.000
  143       -0.000  -0.000   0.000  -0.000
  144       -0.000  -0.000   0.000  -0.000
  145       -0.000  -0.000   0.000  -0.000
  146       -0.000  -0.000   0.000  -0.000
  147       -0.000  -0.000   0.000  -0.000
  148       -0.000  -0.000   0.000  -0.000
  149       -0.000  -0.000   0.000  -0.000
  150       -0.000  -0.000   0.000  -0.000
  151       -0.000  -0.000   0.000  -0.000
  152        0.000  -0.000   0.000  -0.000
  153        0.000  -0.000   0.000  -0.000
  154       -0.000  -0.000   0.000  -0.000
  155       -0.000  -0.000   0.000  -0.000
  156       -0.000   0.000   0.000   0.000
  157       -0.000  -0.000   0.000  -0.000
  158       -0.000  -0.000   0.000  -0.000
  159       -0.000  -0.000   0.000  -0.000
  160       -0.000  -0.000   0.000  -0.000
  161       -0.000  -0.000   0.000  -0.000
  162       -0.000  -0.000   0.000  -0.000
  163       -0.000  -0.000   0.000  -0.000
  164       -0.000  -0.000   0.000  -0.000
  165       -0.000  -0.000   0.000  -0.000
  166       -0.000  -0.006   0.000  -0.006
  167        0.000  -0.000   0.000  -0.000
  168        0.000  -0.000   0.000  -0.000
  169       -0.000  -0.000   0.000  -0.000
  170       -0.000  -0.000   0.000  -0.000
  171       -0.000  -0.000   0.000  -0.000
  172       -0.000  -0.000   0.000  -0.000
  173       -0.000  -0.000   0.000  -0.000
  174       -0.000  -0.000   0.000  -0.000
  175        0.000  -0.000   0.000  -0.000
  176       -0.000  -0.000   0.000  -0.000
  177        0.000   0.000   0.000   0.000
  178       -0.000  -0.000   0.000  -0.000
  179        0.000  -0.000   0.000  -0.000
  180        0.000   0.000   0.000   0.000
  181       -0.000  -0.000   0.000  -0.000
  182        0.000  -0.000   0.000  -0.000
  183       -0.000  -0.000   0.000  -0.000
  184       -0.000  -0.000   0.000  -0.000
  185       -0.000  -0.000   0.000  -0.000
  186       -0.000   0.000   0.000   0.000
  187       -0.000  -0.000   0.000  -0.000
  188        0.000   0.000   0.000   0.000
  189        0.000  -0.000   0.000  -0.000
  190       -0.000   0.001   0.000   0.001
  191       -0.000  -0.000   0.000  -0.000
  192       -0.000  -0.000   0.000  -0.000
  193       -0.000  -0.000   0.000  -0.000
  194       -0.000  -0.000   0.000  -0.000
  195       -0.000   0.000   0.000   0.000
  196        0.000   0.000   0.000   0.000
  197       -0.000  -0.000   0.000  -0.000
  198        0.000   0.000   0.000   0.000
  199       -0.000  -0.000   0.000  -0.000
  200        0.000  -0.000   0.000  -0.000
  201       -0.000  -0.000   0.000  -0.000
  202       -0.000  -0.000   0.000  -0.000
  203       -0.000  -0.000   0.000  -0.000
  204       -0.000  -0.000   0.000  -0.000
  205       -0.000  -0.000   0.000  -0.000
  206       -0.000  -0.000   0.000  -0.000
  207       -0.000  -0.000   0.000  -0.000
  208        0.000  -0.000   0.000  -0.000
  209       -0.000  -0.000   0.000  -0.000
  210       -0.000  -0.000   0.000  -0.000
  211       -0.000  -0.000   0.000  -0.000
  212       -0.000  -0.000   0.000  -0.000
  213       -0.000  -0.000   0.000  -0.000
  214        0.000  -0.000   0.000  -0.000
  215       -0.000  -0.000   0.000  -0.000
  216       -0.000  -0.000   0.000  -0.000
  217       -0.000  -0.000   0.000  -0.000
  218       -0.000  -0.000   0.000  -0.000
  219       -0.000  -0.000   0.000  -0.000
  220       -0.000  -0.000   0.000  -0.000
  221        0.000  -0.000   0.000  -0.000
  222       -0.000  -0.000   0.000  -0.000
  223       -0.000  -0.000   0.000  -0.000
  224       -0.000  -0.000   0.000  -0.000
  225       -0.000  -0.000   0.000  -0.000
  226       -0.000  -0.000   0.000  -0.000
  227        0.000   0.000   0.000   0.000
  228       -0.000  -0.000   0.000  -0.000
  229       -0.000  -0.000   0.000  -0.000
  230       -0.000   0.000   0.000   0.000
  231       -0.000  -0.000   0.000  -0.000
  232        0.000   0.000   0.000   0.000
  233       -0.000   0.000   0.000   0.000
  234       -0.000  -0.000   0.000  -0.000
  235       -0.000  -0.000   0.000  -0.000
  236       -0.000  -0.000   0.000  -0.000
  237       -0.000  -0.000   0.000  -0.000
  238        0.000  -0.000   0.000  -0.000
  239       -0.000  -0.000   0.000  -0.000
  240       -0.000  -0.000   0.000  -0.000
  241        0.000   0.000   0.000   0.000
  242       -0.000  -0.000   0.000  -0.000
  243        0.000  -0.000   0.000  -0.000
  244       -0.000   0.001   0.000   0.001
  245       -0.000  -0.000   0.000  -0.000
  246       -0.000  -0.000   0.000  -0.000
  247       -0.000  -0.000   0.000  -0.000
  248       -0.000  -0.000   0.000  -0.000
  249        0.000  -0.000   0.000  -0.000
  250       -0.000  -0.000   0.000  -0.000
  251        0.000  -0.000   0.000  -0.000
  252       -0.000   0.000   0.000   0.000
  253       -0.000  -0.000   0.000  -0.000
  254       -0.000  -0.000   0.000  -0.000
  255        0.000  -0.000   0.000  -0.000
  256        0.000  -0.000   0.000  -0.000
  257       -0.000   0.002   0.000   0.002
--------------------------------------------------
tot          0.002  -0.033   0.971   0.940
 

 total amount of memory used by VASP MPI-rank0   291519. kBytes
=======================================================================

   base      :      30000. kBytes
   nonlr-proj:      49484. kBytes
   fftplans  :      27976. kBytes
   grid      :      34041. kBytes
   one-center:       1026. kBytes
   wavefun   :     148992. kBytes
 
  
  
 General timing and accounting informations for this job:
 ========================================================
  
                  Total CPU time used (sec):     5206.351
                            User time (sec):     4793.347
                          System time (sec):      413.004
                         Elapsed time (sec):     5246.022
  
                   Maximum memory used (kb):      627944.
                   Average memory used (kb):           0.
  
                          Minor page faults:       359463
                          Major page faults:           46
                 Voluntary context switches:        38591
