 vasp.5.4.4.18Apr17-6-g9f103f2a35 (build Jul 16 2019 12:12:28) complex          
  
 executed on             LinuxIFC date 2020.01.06  14:19:59
 running on   96 total cores
 distrk:  each k-point on   96 cores,    1 groups
 distr:  one band on NCORES_PER_BAND=   8 cores,   12 groups


--------------------------------------------------------------------------------------------------------


 INCAR:
 POTCAR:    PAW_PBE Li_sv 10Sep2004               
 POTCAR:    PAW_PBE Ti_pv 07Sep2000               
 POTCAR:    PAW_PBE O 08Apr2002                   
 POTCAR:    PAW_PBE F 08Apr2002                   
 POTCAR:    PAW_PBE Li_sv 10Sep2004               
   VRHFIN =Li: 1s2s2p                                                           
   LEXCH  = PE                                                                  
   EATOM  =   202.7858 eV,   14.9043 Ry                                         
                                                                                
   TITEL  = PAW_PBE Li_sv 10Sep2004                                             
   LULTRA =        F    use ultrasoft PP ?                                      
   IUNSCR =        0    unscreen: 0-lin 1-nonlin 2-no                           
   RPACOR =    0.000    partial core radius                                     
   POMASS =    7.010; ZVAL   =    3.000    mass and valenz                      
   RCORE  =    1.700    outmost cutoff radius                                   
   RWIGS  =    2.050; RWIGS  =    1.085    wigner-seitz radius (au A)           
   ENMAX  =  499.034; ENMIN  =  374.276 eV                                      
   ICORE  =        2    local potential                                         
   LCOR   =        T    correct aug charges                                     
   LPAW   =        T    paw PP                                                  
   EAUG   =  628.945                                                            
   RMAX   =    1.732    core radius for proj-oper                               
   RAUG   =    1.300    factor for augmentation sphere                          
   RDEP   =    1.728    radius for radial grids                                 
   RDEPT  =    1.329    core radius for aug-charge                              
                                                                                
   Atomic configuration                                                         
    4 entries                                                                   
     n  l   j            E        occ.                                          
     1  0  0.50       -51.8549   2.0000                                         
     2  0  0.50        -2.8742   1.0000                                         
     2  1  0.50        -1.3606   0.0000                                         
     3  2  1.50        -1.3606   0.0000                                         
   Description                                                                  
     l       E           TYP  RCUT    TYP  RCUT                                 
     0    -51.8548813     23  1.400                                             
     0     -2.8742052     23  1.700                                             
     1     -1.3605826     23  1.400                                             
     2     -1.3605826     23  1.400                                             
  local pseudopotential read in
  atomic valenz-charges read in
  non local Contribution for L=           0  read in
    real space projection operators read in
  non local Contribution for L=           0  read in
    real space projection operators read in
  non local Contribution for L=           1  read in
    real space projection operators read in
    PAW grid and wavefunctions read in
 
   number of l-projection  operators is LMAX  =           3
   number of lm-projection operators is LMMAX =           5
 
 POTCAR:    PAW_PBE Ti_pv 07Sep2000               
   VRHFIN =Ti: d3 s1                                                            
   LEXCH  = PE                                                                  
   EATOM  =  1042.5995 eV,   76.6289 Ry                                         
                                                                                
   TITEL  = PAW_PBE Ti_pv 07Sep2000                                             
   LULTRA =        F    use ultrasoft PP ?                                      
   IUNSCR =        1    unscreen: 0-lin 1-nonlin 2-no                           
   RPACOR =    2.200    partial core radius                                     
   POMASS =   47.880; ZVAL   =   10.000    mass and valenz                      
   RCORE  =    2.500    outmost cutoff radius                                   
   RWIGS  =    2.500; RWIGS  =    1.323    wigner-seitz radius (au A)           
   ENMAX  =  222.335; ENMIN  =  166.751 eV                                      
   RCLOC  =    1.701    cutoff for local pot                                    
   LCOR   =        T    correct aug charges                                     
   LPAW   =        T    paw PP                                                  
   EAUG   =  482.848                                                            
   DEXC   =    0.000                                                            
   RMAX   =    2.564    core radius for proj-oper                               
   RAUG   =    1.300    factor for augmentation sphere                          
   RDEP   =    2.538    radius for radial grids                                 
   RDEPT  =    1.952    core radius for aug-charge                              
                                                                                
   Atomic configuration                                                         
    8 entries                                                                   
     n  l   j            E        occ.                                          
     1  0  0.50     -4865.3608   2.0000                                         
     2  0  0.50      -533.1368   2.0000                                         
     2  1  1.50      -440.5031   6.0000                                         
     3  0  0.50       -59.3186   2.0000                                         
     3  1  1.50       -35.7012   6.0000                                         
     3  2  2.50        -1.9157   3.0000                                         
     4  0  0.50        -3.7291   1.0000                                         
     4  3  2.50        -1.3606   0.0000                                         
   Description                                                                  
     l       E           TYP  RCUT    TYP  RCUT                                 
     1    -35.7012140     23  2.300                                             
     1     -1.3605826     23  2.300                                             
     2     -1.9156996     23  2.500                                             
     2     -0.4063033     23  2.500                                             
     0     -3.7290856     23  2.500                                             
     0     20.4087390     23  2.500                                             
  local pseudopotential read in
  partial core-charges read in
  partial kinetic energy density read in
  atomic valenz-charges read in
  non local Contribution for L=           1  read in
    real space projection operators read in
  non local Contribution for L=           1  read in
    real space projection operators read in
  non local Contribution for L=           2  read in
    real space projection operators read in
  non local Contribution for L=           2  read in
    real space projection operators read in
  non local Contribution for L=           0  read in
    real space projection operators read in
  non local Contribution for L=           0  read in
    real space projection operators read in
    PAW grid and wavefunctions read in
 
   number of l-projection  operators is LMAX  =           6
   number of lm-projection operators is LMMAX =          18
 
 POTCAR:    PAW_PBE O 08Apr2002                   
   VRHFIN =O: s2p4                                                              
   LEXCH  = PE                                                                  
   EATOM  =   432.3788 eV,   31.7789 Ry                                         
                                                                                
   TITEL  = PAW_PBE O 08Apr2002                                                 
   LULTRA =        F    use ultrasoft PP ?                                      
   IUNSCR =        1    unscreen: 0-lin 1-nonlin 2-no                           
   RPACOR =    1.200    partial core radius                                     
   POMASS =   16.000; ZVAL   =    6.000    mass and valenz                      
   RCORE  =    1.520    outmost cutoff radius                                   
   RWIGS  =    1.550; RWIGS  =    0.820    wigner-seitz radius (au A)           
   ENMAX  =  400.000; ENMIN  =  300.000 eV                                      
   ICORE  =        2    local potential                                         
   LCOR   =        T    correct aug charges                                     
   LPAW   =        T    paw PP                                                  
   EAUG   =  605.392                                                            
   DEXC   =    0.000                                                            
   RMAX   =    1.553    core radius for proj-oper                               
   RAUG   =    1.300    factor for augmentation sphere                          
   RDEP   =    1.550    radius for radial grids                                 
   RDEPT  =    1.329    core radius for aug-charge                              
                                                                                
   Atomic configuration                                                         
    4 entries                                                                   
     n  l   j            E        occ.                                          
     1  0  0.50      -514.6923   2.0000                                         
     2  0  0.50       -23.9615   2.0000                                         
     2  1  0.50        -9.0305   4.0000                                         
     3  2  1.50        -9.5241   0.0000                                         
   Description                                                                  
     l       E           TYP  RCUT    TYP  RCUT                                 
     0    -23.9615318     23  1.200                                             
     0     -9.5240782     23  1.200                                             
     1     -9.0304911     23  1.520                                             
     1      8.1634956     23  1.520                                             
     2     -9.5240782      7  1.500                                             
  local pseudopotential read in
  partial core-charges read in
  partial kinetic energy density read in
  kinetic energy density of atom read in
  atomic valenz-charges read in
  non local Contribution for L=           0  read in
    real space projection operators read in
  non local Contribution for L=           0  read in
    real space projection operators read in
  non local Contribution for L=           1  read in
    real space projection operators read in
  non local Contribution for L=           1  read in
    real space projection operators read in
    PAW grid and wavefunctions read in
 
   number of l-projection  operators is LMAX  =           4
   number of lm-projection operators is LMMAX =           8
 
 POTCAR:    PAW_PBE F 08Apr2002                   
   VRHFIN =F: s2p5                                                              
   LEXCH  = PE                                                                  
   EATOM  =   659.6475 eV,   48.4827 Ry                                         
                                                                                
   TITEL  = PAW_PBE F 08Apr2002                                                 
   LULTRA =        F    use ultrasoft PP ?                                      
   IUNSCR =        1    unscreen: 0-lin 1-nonlin 2-no                           
   RPACOR =    1.200    partial core radius                                     
   POMASS =   18.998; ZVAL   =    7.000    mass and valenz                      
   RCORE  =    1.520    outmost cutoff radius                                   
   RWIGS  =    1.500; RWIGS  =    0.794    wigner-seitz radius (au A)           
   ENMAX  =  400.000; ENMIN  =  300.000 eV                                      
   ICORE  =        2    local potential                                         
   LCOR   =        T    correct aug charges                                     
   LPAW   =        T    paw PP                                                  
   EAUG   =  613.614                                                            
   RMAX   =    1.555    core radius for proj-oper                               
   RAUG   =    1.300    factor for augmentation sphere                          
   RDEP   =    1.539    radius for radial grids                                 
   RDEPT  =    1.299    core radius for aug-charge                              
                                                                                
   Atomic configuration                                                         
    4 entries                                                                   
     n  l   j            E        occ.                                          
     1  0  0.50      -663.3661   2.0000                                         
     2  0  0.50       -29.8995   2.0000                                         
     2  1  0.50       -11.1114   5.0000                                         
     3  2  1.50       -10.8847   0.0000                                         
   Description                                                                  
     l       E           TYP  RCUT    TYP  RCUT                                 
     0    -29.8995018     23  1.200                                             
     0     -9.5240782     23  1.200                                             
     1    -11.1113914     23  1.520                                             
     1      1.3605826     23  1.520                                             
     2    -10.8846608      7  1.500                                             
  local pseudopotential read in
  partial core-charges read in
  partial kinetic energy density read in
  atomic valenz-charges read in
  non local Contribution for L=           0  read in
    real space projection operators read in
  non local Contribution for L=           0  read in
    real space projection operators read in
  non local Contribution for L=           1  read in
    real space projection operators read in
  non local Contribution for L=           1  read in
    real space projection operators read in
    PAW grid and wavefunctions read in
 
   number of l-projection  operators is LMAX  =           4
   number of lm-projection operators is LMMAX =           8
 
 Optimization of the real space projectors (new method)

 maximal supplied QI-value         = 22.11
 optimisation between [QCUT,QGAM] = [ 11.28, 22.77] = [ 35.61,145.23] Ry 
 Optimized for a Real-space Cutoff    1.31 Angstroem

   l    n(q)    QCUT    max X(q) W(low)/X(q) W(high)/X(q)  e(spline) 
   0      9    11.276    10.506    0.19E-04    0.17E-04    0.32E-07
   0      9    11.276     8.367    0.38E-04    0.40E-04    0.65E-07
   1      8    11.276     8.983    0.55E-04    0.98E-04    0.20E-06
 Optimization of the real space projectors (new method)

 maximal supplied QI-value         = 15.12
 optimisation between [QCUT,QGAM] = [ 11.34, 22.83] = [ 36.00,145.93] Ry 
 Optimized for a Real-space Cutoff    1.56 Angstroem

   l    n(q)    QCUT    max X(q) W(low)/X(q) W(high)/X(q)  e(spline) 
   1     10    11.338     4.216    0.27E-04    0.12E-04    0.66E-07
   1     10    11.338     5.422    0.81E-04    0.24E-04    0.19E-06
   2     10    11.338    72.084    0.64E-04    0.21E-03    0.51E-06
   2     10    11.338    65.965    0.63E-04    0.21E-03    0.50E-06
   0     11    11.338    41.531    0.33E-04    0.54E-04    0.13E-06
   0     11    11.338    16.290    0.26E-04    0.41E-04    0.11E-06
 Optimization of the real space projectors (new method)

 maximal supplied QI-value         = 24.76
 optimisation between [QCUT,QGAM] = [ 11.39, 22.77] = [ 36.31,145.25] Ry 
 Optimized for a Real-space Cutoff    1.20 Angstroem

   l    n(q)    QCUT    max X(q) W(low)/X(q) W(high)/X(q)  e(spline) 
   0      8    11.387    20.381    0.89E-04    0.31E-03    0.27E-06
   0      8    11.387    15.268    0.93E-04    0.32E-03    0.29E-06
   1      8    11.387     5.964    0.53E-04    0.28E-03    0.29E-06
   1      8    11.387     5.382    0.37E-04    0.22E-03    0.26E-06
 Optimization of the real space projectors (new method)

 maximal supplied QI-value         = 24.76
 optimisation between [QCUT,QGAM] = [ 11.39, 22.77] = [ 36.31,145.25] Ry 
 Optimized for a Real-space Cutoff    1.20 Angstroem

   l    n(q)    QCUT    max X(q) W(low)/X(q) W(high)/X(q)  e(spline) 
   0      8    11.387    14.049    0.69E-04    0.23E-03    0.18E-06
   0      8    11.387     8.945    0.88E-04    0.30E-03    0.26E-06
   1      8    11.387     7.086    0.62E-04    0.27E-03    0.27E-06
   1      8    11.387     6.747    0.46E-04    0.23E-03    0.25E-06

 ----------------------------------------------------------------------------- 
|                                                                             |
|  ADVICE TO THIS USER RUNNING 'VASP/VAMP'   (HEAR YOUR MASTER'S VOICE ...):  |
|                                                                             |
|      You enforced a specific xc-type in the INCAR file,                     |
|      a different type was found on the POTCAR file                          |
|          I HOPE YOU KNOW, WHAT YOU ARE  DOING                               |
|                                                                             |
 ----------------------------------------------------------------------------- 

  PAW_PBE Li_sv 10Sep2004               :
 energy of atom  1       EATOM= -202.7858
 kinetic energy error for atom=    0.0143 (will be added to EATOM!!)
  PAW_PBE Ti_pv 07Sep2000               :
 energy of atom  2       EATOM=-1042.5995
 kinetic energy error for atom=    0.0024 (will be added to EATOM!!)
  PAW_PBE O 08Apr2002                   :
 energy of atom  3       EATOM= -432.3788
 kinetic energy error for atom=    0.0224 (will be added to EATOM!!)
  PAW_PBE F 08Apr2002                   :
 energy of atom  4       EATOM= -659.6475
 kinetic energy error for atom=    0.0354 (will be added to EATOM!!)
 
 
 POSCAR: config 28                               
  positions in direct lattice
  velocities in cartesian coordinates
 exchange correlation table for  LEXCH =       14
   RHO(1)=    0.500       N(1)  =     2000
   RHO(2)=  100.500       N(2)  =     4000

 VTST: version 3.2, (02/03/18)

 CHAIN: initializing optimizer
 
 OPT: Using VASP QUASI-newton optimizer
 CHAIN: Read ICHAIN            0
 
 POSCAR: config 28                               
  positions in direct lattice
  velocities in cartesian coordinates
 


--------------------------------------------------------------------------------------------------------


 ion  position               nearest neighbor table
   1  0.322  0.627  0.875- 125 1.96 123 2.01  86 2.05 159 2.15  52 2.78  61 2.89
   2  0.996  0.994  0.994- 118 1.87  68 1.88 103 1.90 171 2.03 130 2.04 212 2.05
   3  0.999  0.992  0.494- 119 1.81  67 1.83 172 1.95 193 1.97 131 2.01 213 2.09
   4  0.006  0.496  0.997-  89 1.85 117 1.86 138 1.93 132 1.99 214 2.01 194 2.03
   5  0.995  0.504  0.508-  66 1.83 104 1.84 215 1.93 223 2.00 173 2.02 137 2.04
   6  0.495  0.993  0.999- 101 1.84 121 1.85 140 1.96 133 1.97 216 2.02 174 2.03
   7  0.502  0.008  0.499- 112 1.78 191 1.91 134 1.92 139 1.92 175 1.94 225 2.03
   8  0.504  0.495  0.996- 120 1.88  90 1.89  70 1.89 135 2.03 192 2.04 217 2.07
   9  0.491  0.499  0.496- 102 1.81  69 1.86 224 1.99 218 1.99 136 2.02 176 2.07
  10  0.007  0.003  0.256-  91 1.84  67 1.86 219 1.95 227 1.97 130 2.00 197 2.06
  11  0.001  0.008  0.757-  68 1.79 113 1.85 177 1.96 198 2.00 228 2.04 131 2.06
  12  0.994  0.493  0.251- 107 1.83 122 1.86 137 1.93 132 1.97 220 2.00 178 2.03
  13  0.994  0.498  0.742- 108 1.82  66 1.83 226 1.93 221 1.96 138 2.03 179 2.07
  14  0.506  0.009  0.250- 114 1.82  92 1.84 133 1.93 139 1.98 195 2.00 231 2.05
  15  0.492  0.005  0.752- 105 1.81 115 1.84 140 1.94 134 2.00 232 2.01 180 2.05
  16  0.492  0.496  0.257-  69 1.83 106 1.84 229 1.96 222 2.00 135 2.03 181 2.04
  17  0.499  0.505  0.758-  70 1.82 116 1.88 182 1.95 196 1.98 230 2.04 136 2.07
  18  0.996  0.258  0.002- 117 1.83 110 1.88 141 1.96 146 1.97 183 2.01 212 2.02
  19  0.998  0.248  0.492-  74 1.78 213 1.91 184 1.94 202 1.94 223 1.95 142 2.02
  20  1.000  0.757  0.006- 118 1.81  71 1.86 203 1.97 185 1.99 148 2.04 214 2.06
  21  0.998  0.757  0.506-  72 1.84 119 1.84 204 1.96 186 1.98 215 2.03 147 2.03
  22  0.496  0.258  0.002- 120 1.81 109 1.85 150 1.96 143 1.98 187 2.04 216 2.06
  23  0.509  0.246  0.498-  93 1.80 112 1.91 144 1.92 149 1.94 224 1.98 199 2.01
  24  0.508  0.756  0.999-  94 1.83 121 1.84 152 1.95 145 1.99 217 2.03 200 2.03
  25  0.509  0.753  0.508-  73 1.79  95 1.84 225 1.97 218 1.97 201 2.03 151 2.08
  26  1.000  0.258  0.255- 122 1.79  74 1.88 209 1.95 188 1.97 141 1.99 219 2.03
  27  0.006  0.241  0.748- 113 1.81  96 1.84 142 1.96 146 1.97 226 2.05 210 2.06
  28  0.008  0.748  0.244-  71 1.82  97 1.84 220 1.95 227 1.98 147 2.05 211 2.07
  29  0.995  0.752  0.742- 111 1.85  72 1.85 228 1.94 189 1.96 221 1.98 148 2.04
  30  0.508  0.241  0.252-  98 1.82 114 1.83 143 1.93 149 1.97 229 2.02 205 2.03
  31  0.507  0.242  0.751-  99 1.84 115 1.85 150 1.93 144 1.98 206 2.02 230 2.02
  32  0.507  0.751  0.253- 100 1.80 151 1.93 231 1.94 222 1.95 145 1.95 207 2.01
  33  0.502  0.743  0.743- 116 1.83  73 1.85 208 1.93 190 1.94 152 2.06 232 2.07
  34  0.257  0.998  0.005-  75 1.84 101 1.86 246 1.94 233 1.97 171 2.02 157 2.04
  35  0.251  0.994  0.506- 128 1.82  76 1.85 172 1.95 191 2.00 234 2.03 156 2.03
  36  0.243  0.507  1.000- 123 1.83  89 1.84 153 1.95 159 1.97 245 2.02 192 2.04
  37  0.254  0.496  0.507-  77 1.85 102 1.88 127 1.89 158 2.04 235 2.04 173 2.05
  38  0.757  0.999  0.994- 103 1.79  81 1.87 236 1.96 249 1.96 154 2.04 174 2.06
  39  0.750  0.008  0.495-  80 1.83 124 1.84 193 1.94 155 1.99 175 2.00 250 2.04
  40  0.741  0.501  0.004-  90 1.81  78 1.87 237 1.96 247 1.97 161 2.03 194 2.07
  41  0.755  0.498  0.506-  79 1.85 104 1.86 248 1.96 238 1.99 176 2.02 160 2.03
  42  0.245  0.003  0.243-  75 1.84  91 1.85 239 1.94 252 1.96 156 2.04 195 2.06
  43  0.258  0.999  0.744-  76 1.84 105 1.85 253 1.94 240 1.97 157 2.03 177 2.03
  44  0.255  0.491  0.252- 129 1.83 106 1.84 158 1.92 153 1.97 241 2.03 178 2.05
  45  0.248  0.507  0.740-  77 1.79 125 1.82 179 1.96 196 2.00 251 2.03 159 2.12
  46  0.745  0.001  0.255-  92 1.85  80 1.86 256 1.95 242 1.96 154 1.99 197 2.00
  47  0.749  0.007  0.756-  81 1.82 126 1.84 180 1.95 198 1.97 257 2.04 155 2.06
  48  0.755  0.498  0.242-  78 1.82 107 1.86 243 1.95 254 1.96 181 2.02 160 2.06
  49  0.757  0.497  0.742- 108 1.83  79 1.84 255 1.94 244 1.98 161 2.04 182 2.05
  50  0.257  0.251  0.007- 109 1.84  82 1.86 245 1.94 233 1.97 168 2.02 183 2.06
  51  0.254  0.257  0.506- 127 1.81  83 1.85 199 1.97 184 2.02 167 2.04 234 2.05
  52  0.254  0.745  0.993-  86 1.77 123 1.89 200 1.97 185 1.99 246 2.02 162 2.06   1 2.78
  53  0.253  0.756  0.491-  85 1.83 128 1.87 201 1.97 163 1.99 186 2.00 235 2.01
  54  0.757  0.252  0.008- 110 1.81  84 1.86 236 1.94 247 1.95 170 2.04 187 2.04
  55  0.742  0.243  0.498- 124 1.82  93 1.85 169 1.94 164 1.96 248 2.03 202 2.04
  56  0.742  0.749  0.993-  88 1.83  94 1.84 237 1.95 249 1.96 203 2.03 165 2.05
  57  0.742  0.753  0.493-  95 1.82  87 1.86 250 1.95 238 1.97 166 2.02 204 2.05
  58  0.251  0.257  0.244- 129 1.82  82 1.83 205 1.97 188 2.00 167 2.03 239 2.04
  59  0.244  0.251  0.745-  83 1.84  96 1.85 251 1.94 240 1.98 168 2.03 206 2.05
  60  0.244  0.748  0.256-  97 1.84  85 1.84 241 1.94 252 1.98 162 2.00 207 2.08
  61  0.250  0.746  0.750- 125 1.94 189 2.02 253 2.03  86 2.03 163 2.05 208 2.06   1 2.89
  62  0.742  0.251  0.243-  84 1.80  98 1.83 254 1.94 242 1.95 209 2.05 169 2.07
  63  0.746  0.241  0.751- 126 1.82  99 1.84 170 1.94 164 2.01 210 2.02 255 2.05
  64  0.746  0.749  0.257-  87 1.82 100 1.90 243 1.94 256 1.95 211 1.98 165 2.03
  65  0.759  0.752  0.755- 111 1.81  88 1.85 257 1.94 244 1.97 166 2.06 190 2.06
  66  0.015  0.503  0.625-   5 1.83  13 1.83
  67  0.997  0.006  0.376-   3 1.83  10 1.86
  68  0.002  0.002  0.873-  11 1.79   2 1.88
  69  0.494  0.490  0.375-  16 1.83   9 1.86
  70  0.486  0.497  0.875-  17 1.82   8 1.89
  71  0.008  0.744  0.126-  28 1.82  20 1.86
  72  0.011  0.746  0.623-  21 1.84  29 1.85
  73  0.517  0.750  0.624-  25 1.79  33 1.85
  74  0.991  0.248  0.377-  19 1.78  26 1.88
  75  0.257  0.007  0.125-  42 1.84  34 1.84
  76  0.258  0.008  0.625-  43 1.84  35 1.85
  77  0.232  0.504  0.625-  45 1.79  37 1.85
  78  0.744  0.489  0.125-  48 1.82  40 1.87
  79  0.740  0.491  0.624-  49 1.84  41 1.85
  80  0.749  0.002  0.376-  39 1.83  46 1.86
  81  0.745  0.002  0.873-  47 1.82  38 1.87
  82  0.243  0.245  0.126-  58 1.83  50 1.86
  83  0.250  0.246  0.626-  59 1.84  51 1.85
  84  0.738  0.262  0.127-  62 1.80  54 1.86
  85  0.265  0.751  0.373-  53 1.83  60 1.84
  86  0.271  0.749  0.880-  52 1.77  61 2.03   1 2.05
  87  0.761  0.749  0.374-  64 1.82  57 1.86
  88  0.759  0.751  0.875-  56 1.83  65 1.85
  89  0.125  0.511  0.989-  36 1.84   4 1.85
  90  0.625  0.514  0.993-  40 1.81   8 1.89
  91  0.126  0.007  0.250-  10 1.84  42 1.85
  92  0.625  0.005  0.248-  14 1.84  46 1.85
  93  0.625  0.263  0.490-  23 1.80  55 1.85
  94  0.624  0.734  0.991-  24 1.83  56 1.84
  95  0.625  0.768  0.484-  57 1.82  25 1.84
  96  0.125  0.240  0.753-  27 1.84  59 1.85
  97  0.126  0.749  0.261-  28 1.84  60 1.84
  98  0.626  0.241  0.266-  30 1.82  62 1.83
  99  0.626  0.242  0.751-  31 1.84  63 1.84
 100  0.623  0.751  0.261-  32 1.80  64 1.90
 101  0.376  0.992  0.990-   6 1.84  34 1.86
 102  0.376  0.510  0.511-   9 1.81  37 1.88
 103  0.873  0.993  0.999-  38 1.79   2 1.90
 104  0.875  0.508  0.507-   5 1.84  41 1.86
 105  0.376  0.986  0.759-  15 1.81  43 1.85
 106  0.374  0.491  0.243-  44 1.84  16 1.84
 107  0.875  0.493  0.246-  12 1.83  48 1.86
 108  0.875  0.495  0.739-  13 1.82  49 1.83
 109  0.376  0.255  0.008-  50 1.84  22 1.85
 110  0.874  0.257  0.009-  54 1.81  18 1.88
 111  0.875  0.756  0.738-  65 1.81  29 1.85
 112  0.517  0.123  0.493-   7 1.78  23 1.91
 113  0.986  0.126  0.744-  27 1.81  11 1.85
 114  0.491  0.125  0.265-  14 1.82  30 1.83
 115  0.491  0.124  0.750-  15 1.84  31 1.85
 116  0.488  0.626  0.752-  33 1.83  17 1.88
 117  0.008  0.376  0.005-  18 1.83   4 1.86
 118  0.010  0.874  0.002-  20 1.81   2 1.87
 119  0.988  0.875  0.499-   3 1.81  21 1.84
 120  0.510  0.374  0.009-  22 1.81   8 1.88
 121  0.512  0.875  0.005-  24 1.84   6 1.85
 122  0.011  0.374  0.247-  26 1.79  12 1.86
 123  0.268  0.623  0.994-  36 1.83  52 1.89   1 2.01
 124  0.735  0.125  0.506-  55 1.82  39 1.84
 125  0.268  0.622  0.760-  45 1.82  61 1.94   1 1.96
 126  0.762  0.125  0.741-  63 1.82  47 1.84
 127  0.258  0.374  0.500-  51 1.81  37 1.89
 128  0.259  0.877  0.503-  35 1.82  53 1.87
 129  0.238  0.374  0.252-  58 1.82  44 1.83
 130  0.999  0.003  0.127-  10 2.00   2 2.04
 131  0.003  0.998  0.624-   3 2.01  11 2.06
 132  0.007  0.510  0.125-  12 1.97   4 1.99
 133  0.491  0.010  0.126-  14 1.93   6 1.97
 134  0.494  0.998  0.623-   7 1.92  15 2.00
 135  0.507  0.511  0.127-  16 2.03   8 2.03
 136  0.513  0.503  0.625-   9 2.02  17 2.07
 137  0.996  0.494  0.376-  12 1.93   5 2.04
 138  0.989  0.496  0.873-   4 1.93  13 2.03
 139  0.506  0.986  0.377-   7 1.92  14 1.98
 140  0.518  0.999  0.875-  15 1.94   6 1.96
 141  0.012  0.245  0.127-  18 1.96  26 1.99
 142  0.003  0.258  0.622-  27 1.96  19 2.02
 143  0.513  0.235  0.127-  30 1.93  22 1.98
 144  0.501  0.245  0.623-  23 1.92  31 1.98
 145  0.510  0.741  0.127-  32 1.95  24 1.99
 146  0.992  0.251  0.875-  18 1.97  27 1.97
 147  0.985  0.751  0.375-  21 2.03  28 2.05
 148  0.988  0.753  0.875-  20 2.04  29 2.04
 149  0.487  0.266  0.376-  23 1.94  30 1.97
 150  0.497  0.254  0.875-  31 1.93  22 1.96
 151  0.483  0.758  0.376-  32 1.93  25 2.08
 152  0.484  0.754  0.875-  24 1.95  33 2.06
 153  0.236  0.500  0.126-  36 1.95  44 1.97
 154  0.751  0.000  0.126-  46 1.99  38 2.04
 155  0.749  0.993  0.623-  39 1.99  47 2.06
 156  0.251  0.998  0.375-  35 2.03  42 2.04
 157  0.241  0.992  0.874-  43 2.03  34 2.04
 158  0.255  0.505  0.376-  44 1.92  37 2.04
 159  0.271  0.497  0.875-  36 1.97  45 2.12   1 2.15
 160  0.752  0.509  0.375-  41 2.03  48 2.06
 161  0.759  0.508  0.874-  40 2.03  49 2.04
 162  0.241  0.747  0.126-  60 2.00  52 2.06
 163  0.235  0.745  0.618-  53 1.99  61 2.05
 164  0.748  0.264  0.623-  55 1.96  63 2.01
 165  0.742  0.750  0.126-  64 2.03  56 2.05
 166  0.736  0.752  0.624-  57 2.02  65 2.06
 167  0.257  0.248  0.375-  58 2.03  51 2.04
 168  0.255  0.256  0.876-  50 2.02  59 2.03
 169  0.766  0.240  0.374-  55 1.94  62 2.07
 170  0.757  0.241  0.876-  63 1.94  54 2.04
 171  0.127  0.009  0.004-  34 2.02   2 2.03
 172  0.125  0.996  0.500-  35 1.95   3 1.95
 173  0.123  0.494  0.486-   5 2.02  37 2.05
 174  0.625  0.010  0.010-   6 2.03  38 2.06
 175  0.624  0.978  0.504-   7 1.94  39 2.00
 176  0.625  0.488  0.493-  41 2.02   9 2.07
 177  0.127  0.014  0.745-  11 1.96  43 2.03
 178  0.124  0.510  0.257-  12 2.03  44 2.05
 179  0.124  0.506  0.769-  45 1.96  13 2.07
 180  0.624  0.008  0.738-  47 1.95  15 2.05
 181  0.625  0.503  0.255-  48 2.02  16 2.04
 182  0.626  0.504  0.762-  17 1.95  49 2.05
 183  0.125  0.243  0.992-  18 2.01  50 2.06
 184  0.124  0.254  0.494-  19 1.94  51 2.02
 185  0.126  0.736  0.989-  52 1.99  20 1.99
 186  0.124  0.759  0.482-  21 1.98  53 2.00
 187  0.627  0.241  0.991-  54 2.04  22 2.04
 188  0.125  0.233  0.261-  26 1.97  58 2.00
 189  0.120  0.742  0.765-  29 1.96  61 2.02
 190  0.626  0.742  0.764-  33 1.94  65 2.06
 191  0.378  0.015  0.492-   7 1.91  35 2.00
 192  0.373  0.487  0.015-   8 2.04  36 2.04
 193  0.874  0.016  0.507-  39 1.94   3 1.97
 194  0.875  0.491  0.005-   4 2.03  40 2.07
 195  0.377  0.992  0.258-  14 2.00  42 2.06
 196  0.375  0.485  0.733-  17 1.98  45 2.00
 197  0.874  0.996  0.248-  46 2.00  10 2.06
 198  0.874  0.983  0.745-  47 1.97  11 2.00
 199  0.379  0.235  0.501-  51 1.97  23 2.01
 200  0.378  0.764  0.019-  52 1.97  24 2.03
 201  0.378  0.739  0.513-  53 1.97  25 2.03
 202  0.874  0.241  0.510-  19 1.94  55 2.04
 203  0.872  0.763  0.011-  20 1.97  56 2.03
 204  0.872  0.737  0.513-  21 1.96  57 2.05
 205  0.378  0.261  0.242-  58 1.97  30 2.03
 206  0.377  0.259  0.750-  31 2.02  59 2.05
 207  0.378  0.751  0.237-  32 2.01  60 2.08
 208  0.380  0.769  0.733-  33 1.93  61 2.06
 209  0.874  0.260  0.240-  26 1.95  62 2.05
 210  0.875  0.264  0.745-  63 2.02  27 2.06
 211  0.873  0.750  0.240-  64 1.98  28 2.07
 212  0.996  0.127  0.001-  18 2.02   2 2.05
 213  0.007  0.126  0.509-  19 1.91   3 2.09
 214  0.987  0.625  0.994-   4 2.01  20 2.06
 215  0.009  0.627  0.491-   5 1.93  21 2.03
 216  0.497  0.124  0.995-   6 2.02  22 2.06
 217  0.480  0.627  0.995-  24 2.03   8 2.07
 218  0.513  0.627  0.493-  25 1.97   9 1.99
 219  0.988  0.128  0.246-  10 1.95  26 2.03
 220  0.995  0.623  0.259-  28 1.95  12 2.00
 221  0.996  0.624  0.756-  13 1.96  29 1.98
 222  0.497  0.625  0.260-  32 1.95  16 2.00
 223  0.994  0.374  0.500-  19 1.95   5 2.00
 224  0.487  0.372  0.511-  23 1.98   9 1.99
 225  0.483  0.878  0.503-  25 1.97   7 2.03
 226  0.008  0.374  0.751-  13 1.93  27 2.05
 227  0.999  0.876  0.250-  10 1.97  28 1.98
 228  0.011  0.877  0.747-  29 1.94  11 2.04
 229  0.509  0.371  0.237-  16 1.96  30 2.02
 230  0.507  0.373  0.744-  31 2.02  17 2.04
 231  0.500  0.876  0.242-  32 1.94  14 2.05
 232  0.514  0.876  0.752-  15 2.01  33 2.07
 233  0.255  0.125  0.988-  34 1.97  50 1.97
 234  0.243  0.125  0.493-  35 2.03  51 2.05
 235  0.241  0.627  0.496-  53 2.01  37 2.04
 236  0.754  0.126  0.007-  54 1.94  38 1.96
 237  0.768  0.625  0.007-  56 1.95  40 1.96
 238  0.736  0.626  0.504-  57 1.97  41 1.99
 239  0.264  0.126  0.257-  42 1.94  58 2.04
 240  0.264  0.125  0.763-  43 1.97  59 1.98
 241  0.255  0.623  0.247-  60 1.94  44 2.03
 242  0.763  0.126  0.244-  62 1.95  46 1.96
 243  0.750  0.624  0.244-  64 1.94  48 1.95
 244  0.750  0.625  0.744-  65 1.97  49 1.98
 245  0.240  0.376  0.002-  50 1.94  36 2.02
 246  0.237  0.874  0.006-  34 1.94  52 2.02
 247  0.739  0.375  0.984-  54 1.95  40 1.97
 248  0.762  0.372  0.487-  41 1.96  55 2.03
 249  0.735  0.875  0.005-  56 1.96  38 1.96
 250  0.768  0.877  0.501-  57 1.95  39 2.04
 251  0.242  0.376  0.753-  59 1.94  45 2.03
 252  0.251  0.876  0.245-  42 1.96  60 1.98
 253  0.234  0.876  0.743-  43 1.94  61 2.03
 254  0.743  0.374  0.269-  62 1.94  48 1.96
 255  0.745  0.373  0.762-  49 1.94  63 2.05
 256  0.751  0.875  0.246-  46 1.95  64 1.95
 257  0.738  0.876  0.747-  65 1.94  47 2.04
 

IMPORTANT INFORMATION: All symmetrisations will be switched off!
NOSYMM: (Re-)initialisation of all symmetry stuff for point group C_1.

 
 
 KPOINTS: Title                                   

Automatic generation of k-mesh.
Space group operators:
 irot       det(A)        alpha          n_x          n_y          n_z        tau_x        tau_y        tau_z
    1     1.000000     0.000001     1.000000     0.000000     0.000000     0.000000     0.000000     0.000000
 
 Subroutine IBZKPT returns following result:
 ===========================================
 
 Found      4 irreducible k-points:
 
 Following reciprocal coordinates:
            Coordinates               Weight
  0.250000  0.250000  0.250000      2.000000
 -0.250000  0.250000  0.250000      2.000000
  0.250000 -0.250000  0.250000      2.000000
 -0.250000 -0.250000  0.250000      2.000000
 
 Following cartesian coordinates:
            Coordinates               Weight
  0.016206  0.016206  0.016206      2.000000
 -0.016206  0.016206  0.016206      2.000000
  0.016206 -0.016206  0.016206      2.000000
 -0.016206 -0.016206  0.016206      2.000000
 


--------------------------------------------------------------------------------------------------------




 Dimension of arrays:
   k-points           NKPTS =      4   k-points in BZ     NKDIM =      4   number of bands    NBANDS=   1164
   number of dos      NEDOS =   3001   number of ions     NIONS =    257
   non local maximal  LDIM  =      6   non local SUM 2l+1 LMDIM =     18
   total plane-waves  NPLWV = ******
   max r-space proj   IRMAX =   7595   max aug-charges    IRDMAX= 146383
   dimension x,y,z NGX =   120 NGY =  120 NGZ =  120
   dimension x,y,z NGXF=   240 NGYF=  240 NGZF=  240
   support grid    NGXF=   480 NGYF=  480 NGZF=  480
   ions per type =               1  64  64 128
   NGX,Y,Z   is equivalent  to a cutoff of  12.93, 12.93, 12.93 a.u.
   NGXF,Y,Z  is equivalent  to a cutoff of  25.86, 25.86, 25.86 a.u.

 SYSTEM =  LTO                                     
 POSCAR =  config 28                               

 Startparameter for this run:
   NWRITE =      2    write-flag & timer
   PREC   = accura    normal or accurate (medium, high low for compatibility)
   ISTART =      1    job   : 0-new  1-cont  2-samecut
   ICHARG =      0    charge: 1-file 2-atom 10-const
   ISPIN  =      2    spin polarized calculation?
   LNONCOLLINEAR =      F non collinear calculations
   LSORBIT =      F    spin-orbit coupling
   INIWAV =      1    electr: 0-lowe 1-rand  2-diag
   LASPH  =      T    aspherical Exc in radial PAW
   METAGGA=      F    non-selfconsistent MetaGGA calc.

 Electronic Relaxation 1
   ENCUT  =  500.0 eV  36.75 Ry    6.06 a.u.  28.13 28.13 28.13*2*pi/ulx,y,z
   ENINI  =  500.0     initial cutoff
   ENAUG  =  628.9 eV  augmentation charge cutoff
   NELM   =     60;   NELMIN=  2; NELMDL=  0     # of ELM steps 
   EDIFF  = 0.1E-05   stopping-criterion for ELM
   LREAL  =      T    real-space projection
   NLSPLINE    = F    spline interpolate recip. space projectors
   LCOMPAT=      F    compatible to vasp.4.4
   GGA_COMPAT  = T    GGA compatible to vasp.4.4-vasp.4.6
   LMAXPAW     = -100 max onsite density
   LMAXMIX     =    4 max onsite mixed and CHGCAR
   VOSKOWN=      0    Vosko Wilk Nusair interpolation
   ROPT   =   -0.00010  -0.00010  -0.00010  -0.00010
 Ionic relaxation
   EDIFFG = -.5E-01   stopping-criterion for IOM
   NSW    =    100    number of steps for IOM
   NBLOCK =      1;   KBLOCK =    100    inner block; outer block 
   IBRION =      1    ionic relax: 0-MD 1-quasi-New 2-CG
   NFREE  =      0    steps in history (QN), initial steepest desc. (CG)
   ISIF   =      2    stress and relaxation
   IWAVPR =     11    prediction:  0-non 1-charg 2-wave 3-comb
   ISYM   =      0    0-nonsym 1-usesym 2-fastsym
   LCORR  =      T    Harris-Foulkes like correction to forces

   POTIM  = 0.5000    time-step for ionic-motion
   TEIN   =    0.0    initial temperature
   TEBEG  =    0.0;   TEEND  =   0.0 temperature during run
   SMASS  =  -3.00    Nose mass-parameter (am)
   estimated Nose-frequenzy (Omega)   =  0.10E-29 period in steps =****** mass=  -0.544E-26a.u.
   SCALEE = 1.0000    scale energy and forces
   NPACO  =    256;   APACO  = 16.0  distance and # of slots for P.C.
   PSTRESS=    0.0 pullay stress

  Mass of Ions in am
   POMASS =   7.01 47.88 16.00 19.00
  Ionic Valenz
   ZVAL   =   3.00 10.00  6.00  7.00
  Atomic Wigner-Seitz radii
   RWIGS  =  -1.00 -1.00 -1.00 -1.00
  virtual crystal weights 
   VCA    =   1.00  1.00  1.00  1.00
   NELECT =    1923.0000    total number of electrons
   NUPDOWN=       1.0000    fix difference up-down

 DOS related values:
   EMIN   =  10.00;   EMAX   =-10.00  energy-range for DOS
   EFERMI =   0.00
   ISMEAR =     0;   SIGMA  =   0.01  broadening in eV -4-tet -1-fermi 0-gaus

 Electronic relaxation 2 (details)
   IALGO  =     38    algorithm
   LDIAG  =      T    sub-space diagonalisation (order eigenvalues)
   LSUBROT=      F    optimize rotation matrix (better conditioning)
   TURBO    =      0    0=normal 1=particle mesh
   IRESTART =      0    0=no restart 2=restart with 2 vectors
   NREBOOT  =      0    no. of reboots
   NMIN     =      0    reboot dimension
   EREF     =   0.00    reference energy to select bands
   IMIX   =      4    mixing-type and parameters
     AMIX     =   0.40;   BMIX     =  1.00
     AMIX_MAG =   1.60;   BMIX_MAG =  1.00
     AMIN     =   0.10
     WC   =   100.;   INIMIX=   1;  MIXPRE=   1;  MAXMIX= -45

 Intra band minimization:
   WEIMIN = 0.0010     energy-eigenvalue tresh-hold
   EBREAK =  0.21E-09  absolut break condition
   DEPER  =   0.30     relativ break condition  

   TIME   =   0.40     timestep for ELM

  volume/ion in A,a.u.               =      14.28        96.39
  Fermi-wavevector in a.u.,A,eV,Ry     =   1.319690  2.493853 23.695660  1.741582
  Thomas-Fermi vector in A             =   2.449570
 
 Write flags
   LWAVE        =      T    write WAVECAR
   LDOWNSAMPLE  =      F    k-point downsampling of WAVECAR
   LCHARG       =      T    write CHGCAR
   LVTOT        =      F    write LOCPOT, total local potential
   LVHAR        =      F    write LOCPOT, Hartree potential only
   LELF         =      F    write electronic localiz. function (ELF)
   LORBIT       =     11    0 simple, 1 ext, 2 COOP (PROOUT), +10 PAW based schemes


 Dipole corrections
   LMONO  =      F    monopole corrections only (constant potential shift)
   LDIPOL =      F    correct potential (dipole corrections)
   IDIPOL =      0    1-x, 2-y, 3-z, 4-all directions 
   EPSILON=  1.0000000 bulk dielectric constant

 LDA+U is selected, type is set to LDAUTYPE =  2
   angular momentum for each species LDAUL =    -1    2   -1   -1
   U (eV)           for each species LDAUU =   0.0  4.2  0.0  0.0
   J (eV)           for each species LDAUJ =   0.0  0.0  0.0  0.0
 Exchange correlation treatment:
   GGA     =    PS    GGA type
   LEXCH   =    14    internal setting for exchange type
   VOSKOWN=      0    Vosko Wilk Nusair interpolation
   LHFCALC =     F    Hartree Fock is set to
   LHFONE  =     F    Hartree Fock one center treatment
   AEXX    =    0.0000 exact exchange contribution

 Linear response parameters
   LEPSILON=     F    determine dielectric tensor
   LRPA    =     F    only Hartree local field effects (RPA)
   LNABLA  =     F    use nabla operator in PAW spheres
   LVEL    =     F    velocity operator in full k-point grid
   LINTERFAST=   F  fast interpolation
   KINTER  =     0    interpolate to denser k-point grid
   CSHIFT  =0.1000    complex shift for real part using Kramers Kronig
   OMEGAMAX=  -1.0    maximum frequency
   DEG_THRESHOLD= 0.2000000E-02 threshold for treating states as degnerate
   RTIME   =   -0.100 relaxation time in fs
  (WPLASMAI=    0.000 imaginary part of plasma frequency in eV, 0.658/RTIME)
   DFIELD  = 0.0000000 0.0000000 0.0000000 field for delta impulse in time
 
 Orbital magnetization related:
   ORBITALMAG=     F  switch on orbital magnetization
   LCHIMAG   =     F  perturbation theory with respect to B field
   DQ        =  0.001000  dq finite difference perturbation B field
   LLRAUG    =     F  two centre corrections for induced B field



--------------------------------------------------------------------------------------------------------


 quasi-Newton-method for relaxation of ions
 charge density and potential will be updated during run
 spin polarized calculation
 Variant of blocked Davidson
 Davidson routine will perform the subspace rotation
 perform sub-space diagonalisation
    after iterative eigenvector-optimisation
 modified Broyden-mixing scheme, WC =      100.0
 initial mixing is a Kerker type mixing with AMIX =  0.4000 and BMIX =      1.0000
 Hartree-type preconditioning will be used
 using additional bands          202
 real space projection scheme for non local part
 use partial core corrections
 calculate Harris-corrections to forces 
   (improved forces if not selfconsistent)
 use gradient corrections 
 use of overlap-Matrix (Vanderbilt PP)
 Gauss-broadening in eV      SIGMA  =   0.01


--------------------------------------------------------------------------------------------------------


  energy-cutoff  :      500.00
  volume of cell :     3671.03
      direct lattice vectors                 reciprocal lattice vectors
    15.426331000  0.000000000  0.000000000     0.064824228  0.000000000  0.000000000
     0.000000000 15.426331000  0.000000000     0.000000000  0.064824228  0.000000000
     0.000000000  0.000000000 15.426331000     0.000000000  0.000000000  0.064824228

  length of vectors
    15.426331000 15.426331000 15.426331000     0.064824228  0.064824228  0.064824228


 
 old parameters found on file WAVECAR:
  energy-cutoff  :      500.00
  volume of cell :     3671.03
      direct lattice vectors                 reciprocal lattice vectors
    15.426331000  0.000000000  0.000000000     0.064824228  0.000000000  0.000000000
     0.000000000 15.426331000  0.000000000     0.000000000  0.064824228  0.000000000
     0.000000000  0.000000000 15.426331000     0.000000000  0.000000000  0.064824228

  length of vectors

 
 k-points in units of 2pi/SCALE and weight: Title                                   
   0.01620606  0.01620606  0.01620606       0.250
  -0.01620606  0.01620606  0.01620606       0.250
   0.01620606 -0.01620606  0.01620606       0.250
  -0.01620606 -0.01620606  0.01620606       0.250
 
 k-points in reciprocal lattice and weights: Title                                   
   0.25000000  0.25000000  0.25000000       0.250
  -0.25000000  0.25000000  0.25000000       0.250
   0.25000000 -0.25000000  0.25000000       0.250
  -0.25000000 -0.25000000  0.25000000       0.250
 
 position of ions in fractional coordinates (direct lattice) 
   0.32156374  0.62652277  0.87528546
   0.99611372  0.99417418  0.99447268
   0.99882753  0.99179848  0.49357486
   0.00595393  0.49571247  0.99718284
   0.99456044  0.50360640  0.50806924
   0.49507835  0.99329594  0.99948668
   0.50209822  0.00843520  0.49914897
   0.50405987  0.49500690  0.99623778
   0.49147546  0.49942675  0.49592981
   0.00684916  0.00323083  0.25586595
   0.00108984  0.00808276  0.75662370
   0.99364555  0.49320414  0.25126009
   0.99356870  0.49829523  0.74152491
   0.50572181  0.00859760  0.25037461
   0.49200816  0.00451159  0.75231396
   0.49228158  0.49584342  0.25722704
   0.49922180  0.50463366  0.75827835
   0.99605310  0.25769817  0.00197440
   0.99847768  0.24825468  0.49155763
   0.99956522  0.75745928  0.00608493
   0.99788223  0.75679787  0.50559921
   0.49588118  0.25797725  0.00197103
   0.50919444  0.24603832  0.49819787
   0.50791860  0.75581555  0.99882486
   0.50884628  0.75348919  0.50793675
   0.99988436  0.25821486  0.25528840
   0.00600297  0.24121598  0.74783599
   0.00773026  0.74792468  0.24372697
   0.99478127  0.75205567  0.74230908
   0.50822183  0.24136063  0.25221825
   0.50663153  0.24228561  0.75079710
   0.50696562  0.75100841  0.25296101
   0.50179785  0.74289058  0.74254668
   0.25698529  0.99833077  0.00539510
   0.25144014  0.99431720  0.50646794
   0.24334719  0.50695488  0.99990900
   0.25440643  0.49567619  0.50737989
   0.75718962  0.99943456  0.99405466
   0.74980021  0.00757199  0.49470077
   0.74099283  0.50101223  0.00429021
   0.75520693  0.49822678  0.50600146
   0.24523443  0.00272944  0.24315423
   0.25804211  0.99898877  0.74429488
   0.25498164  0.49133207  0.25208538
   0.24783421  0.50737630  0.74009936
   0.74463019  0.00105778  0.25546669
   0.74896174  0.00700276  0.75573806
   0.75505444  0.49789007  0.24208337
   0.75680145  0.49678417  0.74217226
   0.25735893  0.25097570  0.00650528
   0.25396845  0.25672907  0.50636085
   0.25429089  0.74456052  0.99343683
   0.25309972  0.75609129  0.49141357
   0.75716740  0.25200268  0.00793413
   0.74236125  0.24302612  0.49764672
   0.74243628  0.74850593  0.99261845
   0.74205631  0.75293935  0.49303654
   0.25084780  0.25679139  0.24350331
   0.24386106  0.25069376  0.74455178
   0.24448704  0.74787281  0.25587941
   0.24971250  0.74568862  0.75027824
   0.74181647  0.25098604  0.24276554
   0.74556216  0.24105135  0.75097308
   0.74625001  0.74944889  0.25719008
   0.75868645  0.75192455  0.75542245
   0.01471039  0.50348872  0.62489179
   0.99666240  0.00598391  0.37595604
   0.00172863  0.00209507  0.87274226
   0.49352385  0.48995083  0.37548471
   0.48556846  0.49679368  0.87490878
   0.00820156  0.74407164  0.12570891
   0.01113993  0.74598415  0.62337836
   0.51686230  0.75017885  0.62381525
   0.99075836  0.24751245  0.37664614
   0.25742929  0.00694591  0.12467673
   0.25784725  0.00780158  0.62544529
   0.23212654  0.50383090  0.62511396
   0.74444028  0.48872513  0.12509768
   0.73981453  0.49068958  0.62440160
   0.74935056  0.00206702  0.37604589
   0.74461288  0.00190764  0.87345773
   0.24276686  0.24491579  0.12572134
   0.25048524  0.24575133  0.62578492
   0.73806447  0.26184651  0.12671625
   0.26496257  0.75121442  0.37335851
   0.27083624  0.74939771  0.87989420
   0.76127945  0.74879348  0.37417837
   0.75943551  0.75056759  0.87529331
   0.12492718  0.51089085  0.98866533
   0.62511575  0.51387390  0.99276963
   0.12572139  0.00651980  0.25028672
   0.62479768  0.00547703  0.24811272
   0.62459665  0.26322535  0.49005491
   0.62436577  0.73406594  0.99088690
   0.62501520  0.76772882  0.48446225
   0.12487469  0.24000631  0.75259103
   0.12550254  0.74856717  0.26141216
   0.62561624  0.24051992  0.26590328
   0.62600646  0.24230781  0.75078122
   0.62303270  0.75106086  0.26140152
   0.37642664  0.99193557  0.99005428
   0.37563083  0.51006836  0.51055949
   0.87310563  0.99278723  0.99850133
   0.87514648  0.50792243  0.50684743
   0.37613006  0.98610670  0.75912318
   0.37366107  0.49148850  0.24281645
   0.87529012  0.49313530  0.24628666
   0.87541908  0.49538640  0.73944845
   0.37625292  0.25515485  0.00779482
   0.87439378  0.25661160  0.00948099
   0.87480946  0.75606741  0.73822820
   0.51669259  0.12265160  0.49265971
   0.98550061  0.12601084  0.74390201
   0.49093558  0.12495261  0.26544709
   0.49101871  0.12366085  0.75019289
   0.48816875  0.62563175  0.75202529
   0.00780260  0.37552045  0.00490394
   0.01037171  0.87434826  0.00193519
   0.98832158  0.87525809  0.49886053
   0.51046067  0.37396965  0.00880346
   0.51215630  0.87489327  0.00509377
   0.01118105  0.37366894  0.24689199
   0.26845466  0.62271474  0.99385780
   0.73467196  0.12542434  0.50619739
   0.26818498  0.62170897  0.76023845
   0.76208922  0.12469848  0.74123064
   0.25781489  0.37358742  0.49957284
   0.25940834  0.87657101  0.50315692
   0.23794614  0.37378700  0.25224461
   0.99899725  0.00284082  0.12651727
   0.00281857  0.99792964  0.62361477
   0.00684091  0.50981118  0.12518930
   0.49096069  0.00975403  0.12623109
   0.49430398  0.99793445  0.62275030
   0.50675201  0.51085501  0.12715769
   0.51349270  0.50299839  0.62469559
   0.99563976  0.49410484  0.37647423
   0.98924541  0.49571260  0.87299776
   0.50640879  0.98557125  0.37668606
   0.51816489  0.99892627  0.87493291
   0.01193949  0.24462499  0.12746973
   0.00333860  0.25793470  0.62175756
   0.51308917  0.23528288  0.12717785
   0.50096761  0.24504668  0.62267503
   0.51017047  0.74097353  0.12719755
   0.99234153  0.25101323  0.87464593
   0.98468393  0.75108108  0.37471648
   0.98816793  0.75263014  0.87452350
   0.48745676  0.26575904  0.37564372
   0.49739180  0.25421723  0.87514410
   0.48317432  0.75750322  0.37550353
   0.48377710  0.75367309  0.87461345
   0.23638036  0.50019897  0.12597292
   0.75065691  0.00019537  0.12637840
   0.74873662  0.99318215  0.62283694
   0.25115576  0.99766811  0.37517109
   0.24080776  0.99152495  0.87425408
   0.25510216  0.50546757  0.37578437
   0.27100558  0.49665697  0.87536375
   0.75160037  0.50883752  0.37498607
   0.75873385  0.50808664  0.87421563
   0.24145328  0.74735759  0.12614345
   0.23455053  0.74467264  0.61826909
   0.74764129  0.26362138  0.62298565
   0.74162565  0.74988106  0.12574702
   0.73641672  0.75183962  0.62392774
   0.25730711  0.24770267  0.37463128
   0.25494690  0.25580637  0.87580778
   0.76615594  0.24005438  0.37444300
   0.75667030  0.24104982  0.87641138
   0.12662180  0.00926911  0.00368527
   0.12515590  0.99599334  0.49994296
   0.12331594  0.49396135  0.48643152
   0.62501845  0.00979590  0.00983720
   0.62408037  0.97828302  0.50433857
   0.62517886  0.48779287  0.49268809
   0.12722152  0.01428689  0.74534276
   0.12383424  0.51039330  0.25681417
   0.12433274  0.50583252  0.76916474
   0.62384649  0.00792906  0.73821791
   0.62464844  0.50251891  0.25503600
   0.62557747  0.50362417  0.76243912
   0.12511234  0.24290584  0.99163512
   0.12389346  0.25351587  0.49449874
   0.12573364  0.73607313  0.98912703
   0.12386051  0.75858432  0.48245284
   0.62652613  0.24131762  0.99136612
   0.12464992  0.23297118  0.26106632
   0.11958251  0.74172103  0.76541635
   0.62571057  0.74239746  0.76410200
   0.37842062  0.01526756  0.49195926
   0.37333734  0.48650427  0.01509294
   0.87442618  0.01642024  0.50724878
   0.87471980  0.49078598  0.00490684
   0.37741812  0.99227513  0.25826314
   0.37508395  0.48479906  0.73276129
   0.87375294  0.99604402  0.24777787
   0.87436248  0.98348243  0.74535050
   0.37948112  0.23501700  0.50109124
   0.37797005  0.76422471  0.01925210
   0.37788319  0.73886983  0.51257598
   0.87420509  0.24146620  0.50952426
   0.87226537  0.76256222  0.01051063
   0.87248539  0.73699483  0.51275059
   0.37832294  0.26105977  0.24181579
   0.37666590  0.25935944  0.74954985
   0.37784379  0.75100165  0.23731567
   0.37977938  0.76874938  0.73271220
   0.87419195  0.26049922  0.24039766
   0.87455668  0.26373792  0.74453133
   0.87338468  0.75019593  0.23956048
   0.99607099  0.12685715  0.00092044
   0.00654055  0.12591298  0.50902976
   0.98678026  0.62485672  0.99370632
   0.00854644  0.62668337  0.49052724
   0.49703295  0.12438472  0.99482355
   0.47985614  0.62713107  0.99535633
   0.51338831  0.62677799  0.49260124
   0.98763146  0.12773466  0.24636460
   0.99473642  0.62294905  0.25874745
   0.99628910  0.62443499  0.75621631
   0.49700098  0.62546682  0.25980006
   0.99441225  0.37400105  0.49991185
   0.48702718  0.37165912  0.51059466
   0.48258377  0.87824018  0.50251691
   0.00810596  0.37424045  0.75050813
   0.99867926  0.87593809  0.25017416
   0.01137486  0.87658559  0.74650938
   0.50925661  0.37136412  0.23742602
   0.50681923  0.37331342  0.74400885
   0.50003282  0.87593021  0.24183143
   0.51436627  0.87594820  0.75172212
   0.25494731  0.12464290  0.98828504
   0.24299976  0.12470393  0.49334832
   0.24086673  0.62650324  0.49601163
   0.75383231  0.12603670  0.00724988
   0.76769984  0.62516616  0.00669329
   0.73625740  0.62576495  0.50399547
   0.26429718  0.12623312  0.25702815
   0.26386143  0.12504576  0.76260635
   0.25489334  0.62291055  0.24665805
   0.76284579  0.12638890  0.24404503
   0.75002959  0.62438853  0.24389702
   0.75042891  0.62476885  0.74388135
   0.24028650  0.37577175  0.00187989
   0.23718258  0.87382765  0.00647469
   0.73942476  0.37500744  0.98440108
   0.76224808  0.37247229  0.48723114
   0.73472978  0.87454405  0.00460944
   0.76774903  0.87671922  0.50082016
   0.24241226  0.37623089  0.75276126
   0.25110187  0.87558483  0.24529432
   0.23377588  0.87576212  0.74258933
   0.74305227  0.37396667  0.26864619
   0.74458534  0.37342236  0.76190868
   0.75050805  0.87532339  0.24638402
   0.73847014  0.87561070  0.74692102
 
 position of ions in cartesian coordinates  (Angst):
   4.96054871  9.66494770 13.50244329
  15.36637995 15.33645991 15.34106476
  15.40824408 15.29981170  7.61404915
   0.09184737  7.64702461 15.38287255
  15.34241856  7.76879907  7.83764428
   7.63724245 15.32291192 15.41841243
   7.74553327  0.13012417  7.70003726
   7.77579443  7.63614036 15.36829368
   7.58166311  7.70432235  7.65037746
   0.10565746  0.04983981  3.94707282
   0.01681225  0.12468740 11.67192768
  15.32830512  7.60833037  3.87602125
  15.32711965  7.68686715 11.43900865
   7.80143210  0.13262939  3.86236162
   7.58988069  0.06959722 11.60544411
   7.59409856  7.64904476  3.96806951
   7.70116077  7.78464590 11.69745285
  15.36544478  3.97533724  0.03045782
  15.40284712  3.82965880  7.58293072
  15.41962387 11.68481764  0.09386814
  15.39366163 11.67461438  7.79954079
   7.64962718  3.97964244  0.03040580
   7.85500194  3.79546859  7.68536522
   7.83532037 11.65946085 15.40820296
   7.84963120 11.62357363  7.83560045
  15.42454707  3.98330792  3.93816331
   0.09260380  3.72107750 11.53636549
   0.11924959 11.53773369  3.75981285
  15.34582507 11.60145977 11.45110552
   7.83999819  3.72330892  3.89080219
   7.81546575  3.73757809 11.58204465
   7.82061943 11.58530426  3.90226021
   7.74089973 11.46007593 11.45477082
   3.96434009 15.40058097  0.08322663
   3.87879879 15.33866624  7.81294206
   3.75395424  7.82045380 15.42492726
   3.92455783  7.64646494  7.82701013
  11.68065765 15.41760839 15.33461618
  11.56666617  0.11680802  7.63141785
  11.43080063  7.72878050  0.06618227
  11.65007207  7.68581122  7.80574604
   3.78306747  0.04210531  3.75097756
   3.98064299 15.41073150 11.48173920
   3.93343120  7.57945113  3.88875251
   3.82317257  7.82695480 11.41701774
  11.48691182  0.01631763  3.94091377
  11.55373167  0.10802697 11.65826550
  11.64771969  7.68061707  3.73445820
  11.67466973  7.66355710 11.44899487
   3.97010409  3.87163423  0.10035254
   3.91780135  3.96038754  7.81129013
   3.92277538 11.48583698 15.32508538
   3.90440012 11.66371450  7.58070833
  11.68031493  3.88747676  0.12239445
  11.45191035  3.74900132  7.67686300
  11.45306782 11.54670028 15.31246076
  11.44720630 11.61509168  7.60574482
   3.86966115  3.96134897  3.75636263
   3.76188149  3.86728490 11.48570213
   3.77153800 11.53693355  3.94728051
   3.85214764 11.50323950 11.57404053
  11.44350647  3.87179368  3.74498164
  11.50128865  3.71853793 11.58475931
  11.51189964 11.56124665  3.96749930
  11.70374828 11.59943695 11.65339675
   0.22692730  7.76698363  9.63978752
  15.37484412  0.09230972  5.79962233
   0.02666649  0.03231928 13.46321102
   7.61326227  7.55814362  5.79235147
   7.49053974  7.66370374 13.49663245
   0.12652003 11.47829542  1.93922722
   0.17184821 11.50779842  9.61644085
   7.97328893 11.57250720  9.62318046
  15.28376639  3.81820897  5.81026801
   3.97118947  0.10714991  1.92330458
   3.97763706  0.12034981  9.64832601
   3.58086091  7.77226216  9.64321491
  11.48398221  7.53923564  1.92979815
  11.41262383  7.56953983  9.63222577
  11.55972977  0.03188648  5.80100831
  11.48664469  0.02942787 13.47424805
   3.74500186  3.77815198  1.93941894
   3.86406821  3.79104129  9.65356531
  11.38562676  4.03933099  1.95476687
   4.08740031 11.58848234  5.75955192
   4.17800951 11.56045719 13.57353911
  11.74374870 11.55113610  5.77219941
  11.71530357 11.57850402 13.50256430
   1.92716804  7.88117138 15.25147863
   9.64324246  7.92718893 15.31479299
   1.93941984  0.10057663  3.86100583
   9.63833576  0.08449054  3.82746893
   9.63523465  4.06060145  7.55974925
   9.63167297 11.32394412 15.28574923
   9.64169138 11.84323887  7.47347507
   1.92635825  3.70241672 11.60971829
   1.93604367 11.54764490  4.03263057
   9.65096321  3.71033992  4.10191207
   9.65698285  3.73792055 11.58179961
   9.61110860 11.58611349  4.03246639
   5.80688190 15.30192641 15.27290502
   5.79460556  7.86848332  7.87605962
  13.46881648 15.31506446 15.40321205
  13.50029933  7.83537947  7.81879619
   5.80230686 15.21200834 11.71048545
   5.76421941  7.58186429  3.74576695
  13.50251512  7.60726837  3.79929954
  13.50450448  7.64199458 11.40697659
   5.80420210  3.93610310  0.12024549
  13.48868781  3.95857546  0.14625695
  13.49510033 11.66334608 11.38815252
   7.97067092  1.89206413  7.59993170
  15.20265862  1.94388500 11.47567862
   7.57333483  1.92756029  4.09487470
   7.57461716  1.90763319 11.57272385
   7.53065273  9.65120241 11.60099112
   0.12036553  5.79290282  0.07564977
   0.15999742 13.48798573  0.02985287
  15.24617579 13.50202097  7.69558773
   7.87453532  5.76897966  0.13580509
   7.90069263 13.49639325  0.07857813
   0.17248261  5.76434071  3.80863756
   4.14127052  9.60620376 15.33157941
  11.33329284  1.93483742  7.80876848
   4.13711021  9.59068834 11.72769001
  11.75624053  1.92363999 11.43446915
   3.97713780  5.76308326  7.70657600
   4.00171893 13.52227455  7.76186525
   3.67063588  5.76616206  3.89120884
  15.41086229  0.04382337  1.95169727
   0.04348020 15.39439298  9.62008785
   0.10553009  7.86451605  1.93121157
   7.57372209  0.15046897  1.94728260
   7.62529681 15.39446707  9.60675225
   7.81732431  7.88061849  1.96157665
   7.92130841  7.75941962  9.63676087
  15.35906844  7.62222481  5.80761608
  15.26042719  7.64702670 13.46715245
   7.81202958 15.20374839  5.81088388
   7.99338304 15.40976734 13.49700473
   0.18418254  3.77366604  1.96639019
   0.05150238  3.97898601  9.59143796
   7.91508340  3.62955152  1.96188759
   7.72809210  3.78017123  9.60559113
   7.87005857 11.43050299  1.96219145
  15.30818888  3.87221310 13.49257764
  15.19006021 11.58642538  5.78050051
  15.24380564 11.61032163 13.49068905
   7.51966926  4.09968695  5.79480437
   7.67293056  3.92163915 13.50026250
   7.45360701 11.68549538  5.79264180
   7.46290566 11.62641050 13.49207654
   3.64648167  7.71623482  1.94329995
  11.57988196  0.00301384  1.94955504
  11.55025888 15.32115663  9.60808872
   3.87441195 15.39035855  5.78751338
   3.71478020 15.29559201 13.48653277
   3.93529034  7.79751001  5.79697414
   4.18062172  7.66159489 13.50365101
  11.59443614  7.84949601  5.78465930
  11.70447946  7.83791261 13.48593965
   3.72473824 11.52898557  1.94593066
   3.61825415 11.48756656  9.53762362
  11.53336203  4.06671061  9.61038291
  11.44056277 11.56791342  1.93981514
  11.36020807 11.59812687  9.62491583
   3.96930467  3.82114344  5.77918614
   3.93289528  3.94615377 13.51050068
  11.81897505  3.70315836  5.77628159
  11.67264651  3.71851424 13.51981204
   1.95330976  0.14298842  0.05685019
   1.93069637 15.36452301  7.71228553
   1.90231244  7.62001121  7.50385356
   9.64174145  0.15111482  0.15175193
   9.62727035 15.09131772  7.78009379
   9.64421600  7.52485426  7.60036948
   1.96256121  0.22039431 11.49790408
   1.91030797  7.87349595  3.96170041
   1.91799797  7.80313990 11.86538980
   9.62366238  0.12231633 11.38799389
   9.63603360  7.75202299  3.93426973
   9.65036508  7.76907310 11.76163824
   1.93002431  3.74714582 15.29729161
   1.91122152  3.91081976  7.62830121
   1.93960877 11.35490769 15.25860094
   1.91071318 11.70217279  7.44247714
   9.66499953  3.72264549 15.29314188
   1.92289091  3.59389051  4.02729549
   1.84471942 11.44203411 11.80756593
   9.65241830 11.45246894 11.78729040
   5.83764175  0.23552249  7.58912632
   5.75922543  7.50497586  0.23282862
  13.48918774  0.25330412  7.82498760
  13.49371716  7.57102692  0.07569454
   5.82217681 15.30716457  3.98405264
   5.78616924  7.47867076 11.30381817
  13.47880213 15.36530477  3.82230347
  13.48820496 15.17152544 11.49802355
   5.85400138  3.62545000  7.72999937
   5.83069105 11.78918330  0.29698929
   5.82935114 11.39805061  7.90716681
  13.48577711  3.72493745  7.86008991
  13.45585427 11.76353719  0.16214046
  13.45924847 11.36912612  7.90986027
   5.83613496  4.02719448  3.73033042
   5.81057278  4.00096458 11.56280410
   5.82874344 11.58519998  3.66091003
   5.85860246 11.85898234 11.30306097
  13.48557438  4.01854716  3.70845388
  13.49120086  4.06850850 11.48538675
  13.47312123 11.57277079  3.69553923
  15.36572083  1.95694036  0.01419898
   0.10089673  1.94237529  7.85246164
  15.22239891  9.63924666 15.32924262
   0.13184017  9.66742515  7.56703556
   7.66739486  1.91879987 15.34647743
   7.40241959  9.67433153 15.35469625
   7.91969802  9.66888480  7.59902981
  15.23552982  1.97047712  3.80050193
  15.34513328  9.60981822  3.99152379
  15.36908549  9.63274077 11.66564305
   7.66690165  9.64865823  4.00776177
  15.34013255  5.76946406  7.71180566
   7.51304250  5.73333655  7.87660231
   7.44449695 13.54802368  7.75199220
   0.12504515  5.77315711 11.57758690
  15.40595681 13.51251097  3.85926945
   0.17547230 13.52249948 11.51590081
   7.85596097  5.72878581  3.66261235
   7.81836123  5.75885645 11.47732677
   7.71367183 13.51238933  3.73057175
   7.93478433 13.51266688 11.59631418
   3.93290153  1.92278262 15.24561215
   3.74859468  1.92372416  7.61055456
   3.71568992  9.66464635  7.65163953
  11.62886666  1.94428381  0.11183911
  11.84279180  9.64402009  0.10325294
  11.35775040  9.65325722  7.77480087
   4.07713577  1.94731386  3.96500132
   4.07041378  1.92899723 11.76421802
   3.93206909  9.60922437  3.80502868
  11.76791164  1.94971697  3.76471935
  11.57020468  9.63202417  3.76243615
  11.57636482  9.63789109 11.47535998
   3.70673901  5.79677937  0.02899988
   3.65885696 13.47995451  0.09988064
  11.40661113  5.78498886 15.18569683
  11.75869126  5.74588079  7.51618884
  11.33418476 13.49100603  0.07110681
  11.84355060 13.52456092  7.72581758
   3.73953169  5.80386221 11.61234430
   3.87358057 13.50706146  3.78399138
   3.60630417 13.50979630 11.45542881
  11.46257033  5.76893369  4.14422500
  11.48621998  5.76053690 11.75345546
  11.57758562 13.50302837  3.80080152
  11.39188477 13.50746044 11.52225095
 


--------------------------------------------------------------------------------------------------------


 k-point  1 :   0.2500 0.2500 0.2500  plane waves:   93161
 k-point  2 :  -0.2500 0.2500 0.2500  plane waves:   93161
 k-point  3 :   0.2500-0.2500 0.2500  plane waves:   93161
 k-point  4 :  -0.2500-0.2500 0.2500  plane waves:   93161

 maximum and minimum number of plane-waves per node :     11686    11606

 maximum number of plane-waves:     93161
 maximum index in each direction: 
   IXMAX=   28   IYMAX=   28   IZMAX=   27
   IXMIN=  -28   IYMIN=  -28   IZMIN=  -28


 real space projection operators:
  total allocation   :     105575.59 KBytes
  max/ min on nodes  :      13241.30      13162.62


 parallel 3D FFT for wavefunctions:
    minimum data exchange during FFTs selected (reduces bandwidth)
 parallel 3D FFT for charge:
    minimum data exchange during FFTs selected (reduces bandwidth)


 total amount of memory used by VASP MPI-rank0   291472. kBytes
=======================================================================

   base      :      30000. kBytes
   nonlr-proj:      49437. kBytes
   fftplans  :      27976. kBytes
   grid      :      34041. kBytes
   one-center:       1026. kBytes
   wavefun   :     148992. kBytes
 
     INWAV:  cpu time   57.7954: real time   59.2426
 Broyden mixing: mesh for mixing (old mesh)
   NGX = 57   NGY = 57   NGZ = 57
  (NGX  =240   NGY  =240   NGZ  =240)
  gives a total of 185193 points

 charge density for first step will be calculated from the start-wavefunctions


--------------------------------------------------------------------------------------------------------


 Maximum index for non-local projection operator          969
 Maximum index for augmentation-charges         3296 (set IRDMAX)


--------------------------------------------------------------------------------------------------------


 initial charge from wavefunction
 First call to EWALD:  gamma=   0.115
 Maximum number of real-space cells 3x 3x 3
 Maximum number of reciprocal cells 3x 3x 3

    FEWALD:  cpu time    0.0431: real time    0.0431


--------------------------------------- Iteration      1(   1)  ---------------------------------------


    POTLOK:  cpu time    0.3882: real time    0.3981
    SETDIJ:  cpu time    1.4440: real time    1.4450
     EDDAV:  cpu time  116.9623: real time  117.6790
       DOS:  cpu time    0.0020: real time    0.0020
    CHARGE:  cpu time    5.2333: real time    5.2372
    MIXING:  cpu time    0.0135: real time    0.0136
    --------------------------------------------
      LOOP:  cpu time  124.0434: real time  124.7750

 eigenvalue-minimisations  : 19428
 total energy-change (2. order) :-0.1757809E+04  (-0.4678312E-06)
 number of electron    1923.0000027 magnetization       1.0000000
 augmentation part      496.7403797 magnetization       0.5850683

 Broyden mixing:
  rms(total) = 0.48338E-03    rms(broyden)= 0.45662E-03
  rms(prec ) = 0.55129E-03
  weight for this iteration     100.00

 Free energy of the ion-electron system (eV)
  ---------------------------------------------------
  alpha Z        PSCENC =      6118.73324990
  Ewald energy   TEWEN  =   -103807.38999522
  -Hartree energ DENC   =    -64828.41235709
  -exchange      EXHF   =         0.00000000
  -V(xc)+E(xc)   XCENC  =      8966.07907913
  PAW double counting   =    196481.26448683  -197485.22478931
  entropy T*S    EENTRO =        -0.00000000
  eigenvalues    EBANDS =    -25780.11089993
  atomic energy  EATOM  =    178577.25249613
  Solvation  Ediel_sol  =         0.00000000
  ---------------------------------------------------
  free energy    TOTEN  =     -1757.80872956 eV

  energy without entropy =    -1757.80872956  energy(sigma->0) =    -1757.80872956


--------------------------------------------------------------------------------------------------------




--------------------------------------- Iteration      1(   2)  ---------------------------------------


    POTLOK:  cpu time    0.2868: real time    0.2870
    SETDIJ:  cpu time    1.4173: real time    1.4183
     EDDAV:  cpu time  113.8043: real time  114.5611
       DOS:  cpu time    0.0019: real time    0.0019
    --------------------------------------------
      LOOP:  cpu time  115.5103: real time  116.2682

 eigenvalue-minimisations  : 18528
 total energy-change (2. order) : 0.2114975E-06  (-0.4423042E-06)
 number of electron    1923.0000027 magnetization       1.0000000
 augmentation part      496.7403797 magnetization       0.5850683

 Free energy of the ion-electron system (eV)
  ---------------------------------------------------
  alpha Z        PSCENC =      6118.73324990
  Ewald energy   TEWEN  =   -103807.38999522
  -Hartree energ DENC   =    -64828.41295710
  -exchange      EXHF   =         0.00000000
  -V(xc)+E(xc)   XCENC  =      8966.07935237
  PAW double counting   =    196481.26854809  -197485.22942578
  entropy T*S    EENTRO =        -0.00000000
  eigenvalues    EBANDS =    -25780.10999775
  atomic energy  EATOM  =    178577.25249613
  Solvation  Ediel_sol  =         0.00000000
  ---------------------------------------------------
  free energy    TOTEN  =     -1757.80872935 eV

  energy without entropy =    -1757.80872935  energy(sigma->0) =    -1757.80872935


--------------------------------------------------------------------------------------------------------




 average (electrostatic) potential at core
  the test charge radii are     0.7079  1.0397  0.7215  0.7167
  (the norm of the test charge is              1.0000)
       1 -62.5350       2 -58.4697       3 -58.8281       4 -58.8734       5 -58.8896
       6 -58.8546       7 -59.8207       8 -58.5469       9 -58.7492      10 -58.8960
      11 -58.6267      12 -58.9732      13 -58.8612      14 -59.1342      15 -58.9223
      16 -58.8022      17 -58.7641      18 -58.9084      19 -59.5491      20 -58.6186
      21 -58.8759      22 -58.7082      23 -59.4909      24 -58.8461      25 -58.9066
      26 -59.1452      27 -58.7287      28 -58.6769      29 -58.8638      30 -59.1590
      31 -58.9894      32 -59.4517      33 -58.8058      34 -58.8484      35 -58.8559
      36 -58.7387      37 -58.4743      38 -58.7094      39 -59.1878      40 -58.7694
      41 -58.9492      42 -58.8536      43 -58.8991      44 -58.7848      45 -58.4863
      46 -59.1933      47 -58.8359      48 -58.8822      49 -58.8768      50 -58.8004
      51 -58.7015      52 -58.3928      53 -58.7891      54 -58.9622      55 -59.2808
      56 -58.8557      57 -59.0501      58 -58.8041      59 -58.7876      60 -58.7251
      61 -56.6995      62 -59.0533      63 -58.9256      64 -59.1416      65 -58.8306
      66 -74.1434      67 -73.9967      68 -73.8228      69 -73.8924      70 -73.8374
      71 -73.8105      72 -73.9572      73 -74.2190      74 -74.5796      75 -73.9638
      76 -74.0122      77 -73.9444      78 -73.9896      79 -73.9997      80 -74.2903
      81 -74.0185      82 -73.9612      83 -73.9130      84 -74.3572      85 -73.8727
      86 -73.5682      87 -74.1846      88 -74.0248      89 -73.9209      90 -73.8468
      91 -74.0314      92 -74.2599      93 -74.6412      94 -74.0832      95 -74.2223
      96 -73.9538      97 -73.9193      98 -74.4056      99 -74.0617     100 -74.3112
     101 -73.9456     102 -73.8309     103 -73.8361     104 -73.9753     105 -74.1965
     106 -73.9548     107 -74.0507     108 -74.1175     109 -73.9326     110 -74.0541
     111 -74.0526     112 -74.8394     113 -74.0409     114 -74.4483     115 -74.0802
     116 -73.9651     117 -73.9506     118 -73.7538     119 -74.2097     120 -73.8699
     121 -73.9870     122 -74.3261     123 -73.9617     124 -74.4842     125 -73.6881
     126 -74.1667     127 -73.8334     128 -73.9502     129 -74.1009     130 -78.3755
     131 -78.3804     132 -79.1286     133 -79.5877     134 -79.8471     135 -78.3138
     136 -78.2945     137 -78.9656     138 -78.9349     139 -79.8863     140 -79.5000
     141 -79.1439     142 -79.0830     143 -79.5337     144 -79.6800     145 -79.3060
     146 -79.1764     147 -78.2849     148 -78.2417     149 -79.7524     150 -79.4346
     151 -79.1668     152 -78.9996     153 -79.1922     154 -78.5844     155 -78.6013
     156 -78.4035     157 -78.3903     158 -78.9026     159 -78.9454     160 -78.3624
     161 -78.4021     162 -78.2915     163 -78.2611     164 -79.3563     165 -78.4534
     166 -78.5210     167 -78.3920     168 -78.3810     169 -79.2217     170 -79.0773
     171 -78.2947     172 -79.4638     173 -78.3157     174 -78.2576     175 -79.8293
     176 -78.2745     177 -78.8657     178 -78.3877     179 -78.8182     180 -78.9248
     181 -78.4235     182 -78.8331     183 -78.3740     184 -79.4111     185 -78.8476
     186 -78.9887     187 -78.3766     188 -79.2408     189 -78.4802     190 -78.8369
     191 -79.7555     192 -78.2556     193 -79.5769     194 -78.2031     195 -78.5763
     196 -78.9542     197 -78.5270     198 -79.0430     199 -79.1339     200 -78.7021
     201 -78.8997     202 -79.4046     203 -78.7113     204 -78.8980     205 -79.0318
     206 -78.3987     207 -78.4527     208 -78.7833     209 -79.1750     210 -78.4643
     211 -78.5576     212 -78.2622     213 -79.2699     214 -78.2820     215 -79.0935
     216 -78.3205     217 -78.3850     218 -79.2175     219 -79.0076     220 -78.9782
     221 -79.1286     222 -79.3404     223 -79.4227     224 -79.1885     225 -79.1996
     226 -78.9726     227 -79.0971     228 -78.9207     229 -79.1064     230 -78.4646
     231 -79.2713     232 -78.4661     233 -79.0747     234 -78.3229     235 -78.3244
     236 -79.3209     237 -79.3135     238 -79.2204     239 -78.9528     240 -79.1033
     241 -78.8821     242 -79.6030     243 -79.5316     244 -79.1665     245 -78.9122
     246 -78.9285     247 -79.3458     248 -79.0918     249 -79.2960     250 -79.1414
     251 -78.8784     252 -79.0819     253 -78.9555     254 -79.5682     255 -78.9828
     256 -79.5752     257 -78.9956
 
 
 
 E-fermi :  -0.7162     XC(G=0):  -9.0611     alpha+bet : -7.7421


 spin component 1

 k-point     1 :       0.2500    0.2500    0.2500
  band No.  band energies     occupation 
      1     -43.2170      1.00000
      2     -35.8338      1.00000
      3     -35.8070      1.00000
      4     -35.6269      1.00000
      5     -35.5255      1.00000
      6     -35.5170      1.00000
      7     -35.5123      1.00000
      8     -35.4268      1.00000
      9     -35.4029      1.00000
     10     -35.3691      1.00000
     11     -35.3580      1.00000
     12     -35.3399      1.00000
     13     -35.2621      1.00000
     14     -35.2277      1.00000
     15     -35.2123      1.00000
     16     -35.2077      1.00000
     17     -35.2008      1.00000
     18     -35.1826      1.00000
     19     -35.1725      1.00000
     20     -35.1642      1.00000
     21     -35.1456      1.00000
     22     -35.1320      1.00000
     23     -35.1029      1.00000
     24     -35.0775      1.00000
     25     -35.0765      1.00000
     26     -35.0524      1.00000
     27     -35.0452      1.00000
     28     -35.0388      1.00000
     29     -35.0379      1.00000
     30     -35.0347      1.00000
     31     -35.0222      1.00000
     32     -35.0058      1.00000
     33     -35.0049      1.00000
     34     -34.9914      1.00000
     35     -34.9884      1.00000
     36     -34.9874      1.00000
     37     -34.9722      1.00000
     38     -34.9670      1.00000
     39     -34.9610      1.00000
     40     -34.9555      1.00000
     41     -34.9476      1.00000
     42     -34.9355      1.00000
     43     -34.9349      1.00000
     44     -34.9284      1.00000
     45     -34.9258      1.00000
     46     -34.9208      1.00000
     47     -34.9187      1.00000
     48     -34.9157      1.00000
     49     -34.9144      1.00000
     50     -34.9082      1.00000
     51     -34.8994      1.00000
     52     -34.8978      1.00000
     53     -34.8955      1.00000
     54     -34.8882      1.00000
     55     -34.8874      1.00000
     56     -34.8860      1.00000
     57     -34.8679      1.00000
     58     -34.8658      1.00000
     59     -34.8653      1.00000
     60     -34.8648      1.00000
     61     -34.8631      1.00000
     62     -34.8564      1.00000
     63     -34.8529      1.00000
     64     -34.8526      1.00000
     65     -34.8464      1.00000
     66     -34.8455      1.00000
     67     -34.8421      1.00000
     68     -34.8407      1.00000
     69     -34.8343      1.00000
     70     -34.8143      1.00000
     71     -34.8142      1.00000
     72     -34.8120      1.00000
     73     -34.8095      1.00000
     74     -34.8084      1.00000
     75     -34.8071      1.00000
     76     -34.8009      1.00000
     77     -34.7978      1.00000
     78     -34.7977      1.00000
     79     -34.7952      1.00000
     80     -34.7947      1.00000
     81     -34.7871      1.00000
     82     -34.7857      1.00000
     83     -34.7845      1.00000
     84     -34.7793      1.00000
     85     -34.7767      1.00000
     86     -34.7760      1.00000
     87     -34.7707      1.00000
     88     -34.7673      1.00000
     89     -34.7594      1.00000
     90     -34.7593      1.00000
     91     -34.7566      1.00000
     92     -34.7547      1.00000
     93     -34.7520      1.00000
     94     -34.7516      1.00000
     95     -34.7509      1.00000
     96     -34.7488      1.00000
     97     -34.7480      1.00000
     98     -34.7458      1.00000
     99     -34.7401      1.00000
    100     -34.7396      1.00000
    101     -34.7390      1.00000
    102     -34.7388      1.00000
    103     -34.7382      1.00000
    104     -34.7353      1.00000
    105     -34.7325      1.00000
    106     -34.7257      1.00000
    107     -34.7225      1.00000
    108     -34.7216      1.00000
    109     -34.7213      1.00000
    110     -34.7201      1.00000
    111     -34.7183      1.00000
    112     -34.7177      1.00000
    113     -34.7154      1.00000
    114     -34.7125      1.00000
    115     -34.7109      1.00000
    116     -34.7056      1.00000
    117     -34.7040      1.00000
    118     -34.7010      1.00000
    119     -34.6983      1.00000
    120     -34.6944      1.00000
    121     -34.6934      1.00000
    122     -34.6909      1.00000
    123     -34.6906      1.00000
    124     -34.6847      1.00000
    125     -34.6843      1.00000
    126     -34.6833      1.00000
    127     -34.6809      1.00000
    128     -34.6793      1.00000
    129     -34.6783      1.00000
    130     -34.6753      1.00000
    131     -34.6694      1.00000
    132     -34.6656      1.00000
    133     -34.6631      1.00000
    134     -34.6579      1.00000
    135     -34.6559      1.00000
    136     -34.6542      1.00000
    137     -34.6511      1.00000
    138     -34.6500      1.00000
    139     -34.6496      1.00000
    140     -34.6456      1.00000
    141     -34.6448      1.00000
    142     -34.6406      1.00000
    143     -34.6382      1.00000
    144     -34.6363      1.00000
    145     -34.6342      1.00000
    146     -34.6302      1.00000
    147     -34.6286      1.00000
    148     -34.6283      1.00000
    149     -34.6247      1.00000
    150     -34.6148      1.00000
    151     -34.6137      1.00000
    152     -34.6085      1.00000
    153     -34.6076      1.00000
    154     -34.5986      1.00000
    155     -34.5974      1.00000
    156     -34.5955      1.00000
    157     -34.5866      1.00000
    158     -34.5802      1.00000
    159     -34.5758      1.00000
    160     -34.5715      1.00000
    161     -34.5689      1.00000
    162     -34.5680      1.00000
    163     -34.5674      1.00000
    164     -34.5559      1.00000
    165     -34.5525      1.00000
    166     -34.5482      1.00000
[...]
   81        1.574   3.459   0.000   5.032
   82        1.575   3.459   0.000   5.034
   83        1.574   3.459   0.000   5.033
   84        1.576   3.466   0.000   5.042
   85        1.576   3.462   0.000   5.038
   86        1.571   3.464   0.000   5.035
   87        1.576   3.458   0.000   5.034
   88        1.575   3.461   0.000   5.035
   89        1.574   3.457   0.000   5.031
   90        1.575   3.451   0.000   5.026
   91        1.574   3.458   0.000   5.032
   92        1.574   3.458   0.000   5.033
   93        1.578   3.465   0.000   5.043
   94        1.576   3.462   0.000   5.038
   95        1.576   3.464   0.000   5.040
   96        1.574   3.460   0.000   5.034
   97        1.575   3.461   0.000   5.036
   98        1.576   3.469   0.000   5.045
   99        1.574   3.460   0.000   5.035
  100        1.575   3.454   0.000   5.030
  101        1.574   3.454   0.000   5.028
  102        1.575   3.455   0.000   5.030
  103        1.575   3.455   0.000   5.031
  104        1.574   3.456   0.000   5.029
  105        1.576   3.465   0.000   5.041
  106        1.575   3.460   0.000   5.034
  107        1.574   3.459   0.000   5.034
  108        1.575   3.469   0.000   5.044
  109        1.574   3.459   0.000   5.033
  110        1.575   3.456   0.000   5.031
  111        1.576   3.465   0.000   5.041
  112        1.576   3.457   0.000   5.033
  113        1.577   3.469   0.000   5.045
  114        1.577   3.470   0.000   5.047
  115        1.574   3.462   0.000   5.036
  116        1.573   3.457   0.000   5.030
  117        1.575   3.457   0.000   5.032
  118        1.575   3.458   0.000   5.034
  119        1.576   3.472   0.000   5.049
  120        1.575   3.456   0.000   5.031
  121        1.574   3.459   0.000   5.033
  122        1.577   3.465   0.000   5.042
  123        1.569   3.490   0.000   5.059
  124        1.576   3.465   0.000   5.040
  125        1.568   3.498   0.000   5.066
  126        1.576   3.466   0.000   5.042
  127        1.574   3.456   0.000   5.030
  128        1.574   3.458   0.000   5.033
  129        1.576   3.468   0.000   5.045
  130        1.737   4.369   0.000   6.106
  131        1.737   4.370   0.000   6.107
  132        1.737   4.376   0.000   6.113
  133        1.738   4.384   0.000   6.122
  134        1.738   4.382   0.000   6.121
  135        1.737   4.365   0.000   6.102
  136        1.736   4.364   0.000   6.100
  137        1.738   4.378   0.000   6.117
  138        1.738   4.378   0.000   6.116
  139        1.739   4.384   0.000   6.123
  140        1.739   4.384   0.000   6.123
  141        1.738   4.378   0.000   6.116
  142        1.738   4.379   0.000   6.116
  143        1.738   4.383   0.000   6.121
  144        1.738   4.385   0.000   6.123
  145        1.738   4.379   0.000   6.117
  146        1.737   4.379   0.000   6.116
  147        1.736   4.365   0.000   6.102
  148        1.736   4.365   0.000   6.101
  149        1.739   4.381   0.000   6.120
  150        1.738   4.386   0.000   6.124
  151        1.738   4.370   0.000   6.109
  152        1.737   4.371   0.000   6.109
  153        1.738   4.383   0.000   6.121
  154        1.737   4.371   0.000   6.108
  155        1.737   4.371   0.000   6.108
  156        1.736   4.368   0.000   6.105
  157        1.737   4.366   0.000   6.103
  158        1.738   4.378   0.000   6.117
  159        1.737   4.375   0.000   6.112
  160        1.736   4.365   0.000   6.102
  161        1.736   4.366   0.000   6.103
  162        1.737   4.370   0.000   6.107
  163        1.736   4.373   0.000   6.109
  164        1.737   4.375   0.000   6.113
  165        1.736   4.366   0.000   6.103
  166        1.736   4.365   0.000   6.101
  167        1.736   4.369   0.000   6.105
  168        1.737   4.369   0.000   6.106
  169        1.738   4.372   0.000   6.110
  170        1.737   4.376   0.000   6.113
  171        1.737   4.367   0.000   6.104
  172        1.738   4.386   0.000   6.123
  173        1.737   4.366   0.000   6.103
  174        1.737   4.366   0.000   6.103
  175        1.739   4.378   0.000   6.116
  176        1.736   4.363   0.000   6.099
  177        1.737   4.375   0.000   6.112
  178        1.737   4.366   0.000   6.103
  179        1.737   4.370   0.000   6.108
  180        1.738   4.376   0.000   6.114
  181        1.736   4.368   0.000   6.104
  182        1.737   4.372   0.000   6.110
  183        1.737   4.366   0.000   6.102
  184        1.737   4.378   0.000   6.115
  185        1.736   4.374   0.000   6.110
  186        1.737   4.374   0.000   6.110
  187        1.737   4.367   0.000   6.104
  188        1.738   4.374   0.000   6.112
  189        1.737   4.378   0.000   6.115
  190        1.738   4.374   0.000   6.112
  191        1.739   4.382   0.000   6.121
  192        1.737   4.364   0.000   6.101
  193        1.739   4.384   0.000   6.122
  194        1.736   4.363   0.000   6.100
  195        1.737   4.369   0.000   6.106
  196        1.738   4.374   0.000   6.112
  197        1.737   4.368   0.000   6.105
  198        1.737   4.375   0.000   6.112
  199        1.738   4.377   0.000   6.115
  200        1.738   4.373   0.000   6.110
  201        1.737   4.371   0.000   6.108
  202        1.738   4.376   0.000   6.114
  203        1.737   4.373   0.000   6.110
  204        1.737   4.370   0.000   6.108
  205        1.737   4.374   0.000   6.111
  206        1.736   4.366   0.000   6.102
  207        1.737   4.365   0.000   6.101
  208        1.738   4.374   0.000   6.112
  209        1.737   4.374   0.000   6.111
  210        1.736   4.366   0.000   6.102
  211        1.737   4.367   0.000   6.104
  212        1.736   4.366   0.000   6.103
  213        1.739   4.373   0.000   6.112
  214        1.736   4.365   0.000   6.101
  215        1.738   4.377   0.000   6.116
  216        1.736   4.367   0.000   6.103
  217        1.736   4.362   0.000   6.098
  218        1.737   4.376   0.000   6.112
  219        1.738   4.377   0.000   6.115
  220        1.738   4.379   0.000   6.117
  221        1.738   4.380   0.000   6.118
  222        1.737   4.378   0.000   6.115
  223        1.737   4.380   0.000   6.117
  224        1.738   4.377   0.000   6.114
  225        1.738   4.375   0.000   6.113
  226        1.738   4.376   0.000   6.114
  227        1.737   4.378   0.000   6.115
  228        1.738   4.375   0.000   6.113
  229        1.738   4.376   0.000   6.113
  230        1.736   4.367   0.000   6.103
  231        1.738   4.375   0.000   6.113
  232        1.737   4.366   0.000   6.103
  233        1.738   4.379   0.000   6.117
  234        1.737   4.367   0.000   6.104
  235        1.737   4.369   0.000   6.106
  236        1.738   4.385   0.000   6.123
  237        1.739   4.381   0.000   6.119
  238        1.737   4.376   0.000   6.113
  239        1.738   4.376   0.000   6.114
  240        1.738   4.377   0.000   6.115
  241        1.738   4.378   0.000   6.115
  242        1.738   4.384   0.000   6.122
  243        1.738   4.386   0.000   6.124
  244        1.737   4.379   0.000   6.116
  245        1.738   4.377   0.000   6.115
  246        1.738   4.377   0.000   6.115
  247        1.738   4.381   0.000   6.119
  248        1.738   4.374   0.000   6.111
  249        1.738   4.382   0.000   6.120
  250        1.738   4.373   0.000   6.111
  251        1.738   4.378   0.000   6.115
  252        1.737   4.380   0.000   6.117
  253        1.738   4.381   0.000   6.119
  254        1.739   4.384   0.000   6.123
  255        1.738   4.374   0.000   6.112
  256        1.738   4.385   0.000   6.123
  257        1.738   4.376   0.000   6.114
--------------------------------------------------
tot        345.2861194.290 111.7211651.297
 


 magnetization (x)
 
# of ion       s       p       d       tot
------------------------------------------
    1       -0.000  -0.000   0.000  -0.000
    2       -0.000  -0.000  -0.000  -0.000
    3       -0.000  -0.000  -0.000  -0.000
    4        0.000  -0.000   0.000   0.000
    5       -0.000  -0.000   0.000   0.000
    6       -0.000  -0.000  -0.000  -0.000
    7       -0.000  -0.000   0.000   0.000
    8        0.000   0.000   0.000   0.000
    9       -0.000  -0.000   0.000   0.000
   10       -0.000  -0.000  -0.000  -0.000
   11        0.000  -0.000   0.000   0.000
   12       -0.000  -0.000   0.000   0.000
   13       -0.000   0.000   0.000   0.000
   14       -0.000  -0.000   0.000   0.000
   15        0.000  -0.000   0.000   0.000
   16       -0.000  -0.000   0.000   0.000
   17       -0.000  -0.000  -0.000  -0.000
   18       -0.000  -0.000  -0.000  -0.000
   19        0.000   0.000   0.000   0.000
   20       -0.000  -0.000   0.001   0.001
   21        0.000   0.000   0.002   0.002
   22       -0.000  -0.000  -0.000  -0.000
   23        0.000   0.000   0.000   0.000
   24        0.000   0.000   0.001   0.001
   25        0.000   0.000   0.002   0.002
   26       -0.000  -0.000  -0.000  -0.000
   27       -0.000  -0.000   0.000   0.000
   28        0.000   0.000   0.001   0.001
   29       -0.000   0.000   0.006   0.006
   30        0.000   0.000   0.000   0.000
   31       -0.000  -0.000   0.000   0.000
   32        0.000   0.000   0.000   0.000
   33       -0.000  -0.000   0.007   0.007
   34       -0.000  -0.000   0.000   0.000
   35       -0.000  -0.000  -0.000  -0.000
   36       -0.000  -0.000  -0.000  -0.000
   37        0.000   0.000  -0.000  -0.000
   38       -0.000  -0.000  -0.000  -0.000
   39       -0.000  -0.000  -0.000  -0.000
   40       -0.000  -0.000   0.000   0.000
   41       -0.000  -0.000   0.000   0.000
   42       -0.000  -0.000   0.000   0.000
   43       -0.000  -0.000  -0.000  -0.000
   44       -0.000  -0.000   0.000   0.000
   45       -0.000  -0.000  -0.002  -0.003
   46       -0.000  -0.000  -0.000  -0.000
   47        0.000  -0.000   0.000   0.000
   48       -0.000  -0.000   0.000   0.000
   49        0.000   0.000   0.000   0.000
   50       -0.000  -0.000   0.000   0.000
   51        0.000  -0.000  -0.000  -0.000
   52        0.000   0.001   0.049   0.050
   53        0.000  -0.000   0.007   0.007
   54       -0.000  -0.000  -0.000  -0.000
   55       -0.000  -0.000  -0.000  -0.000
   56        0.000   0.000   0.000   0.000
   57        0.000   0.000   0.000   0.000
   58        0.000   0.000   0.000   0.000
   59       -0.000  -0.000  -0.000  -0.000
   60       -0.000   0.000   0.001   0.001
   61        0.005   0.006   0.898   0.910
   62       -0.000  -0.000  -0.000  -0.000
   63        0.000   0.000   0.000   0.000
   64        0.000   0.000   0.000   0.000
   65       -0.000  -0.000   0.001   0.001
   66       -0.000  -0.000   0.000  -0.000
   67       -0.000  -0.000   0.000  -0.000
   68       -0.000  -0.000   0.000  -0.000
   69       -0.000  -0.000   0.000  -0.000
   70       -0.000  -0.000   0.000  -0.000
   71       -0.000  -0.000   0.000  -0.000
   72       -0.000  -0.001   0.000  -0.001
   73       -0.000  -0.001   0.000  -0.001
   74       -0.000  -0.000   0.000  -0.000
   75       -0.000  -0.000   0.000  -0.000
   76       -0.000  -0.000   0.000  -0.000
   77        0.000  -0.000   0.000  -0.000
   78        0.000  -0.000   0.000  -0.000
   79       -0.000  -0.000   0.000  -0.000
   80        0.000   0.000   0.000   0.000
   81       -0.000  -0.000   0.000  -0.000
   82       -0.000  -0.000   0.000  -0.000
   83        0.000   0.000   0.000   0.000
   84        0.000   0.000   0.000   0.000
   85       -0.000  -0.001   0.000  -0.001
   86       -0.001  -0.023   0.000  -0.024
   87       -0.000  -0.000   0.000  -0.000
   88       -0.000  -0.000   0.000  -0.000
   89       -0.000  -0.000   0.000  -0.000
   90       -0.000  -0.000   0.000  -0.000
   91       -0.000  -0.000   0.000  -0.000
   92        0.000   0.000   0.000   0.000
   93       -0.000  -0.000   0.000  -0.000
   94       -0.000  -0.000   0.000  -0.000
   95       -0.000  -0.000   0.000  -0.000
   96       -0.000  -0.000   0.000  -0.000
   97       -0.000  -0.000   0.000  -0.000
   98        0.000   0.000   0.000   0.000
   99       -0.000  -0.000   0.000  -0.000
  100       -0.000  -0.000   0.000  -0.000
  101       -0.000  -0.000   0.000  -0.000
  102       -0.000  -0.000   0.000  -0.000
  103       -0.000  -0.000   0.000  -0.000
  104       -0.000  -0.000   0.000  -0.000
  105       -0.000  -0.000   0.000  -0.000
  106       -0.000  -0.000   0.000  -0.000
  107       -0.000  -0.000   0.000  -0.000
  108       -0.000  -0.000   0.000  -0.000
  109       -0.000  -0.000   0.000  -0.000
  110       -0.000  -0.000   0.000  -0.000
  111       -0.000  -0.000   0.000  -0.000
  112       -0.000  -0.000   0.000  -0.000
  113       -0.000  -0.000   0.000  -0.000
  114        0.000  -0.000   0.000  -0.000
  115       -0.000  -0.000   0.000  -0.000
  116       -0.000  -0.000   0.000  -0.000
  117       -0.000  -0.000   0.000  -0.000
  118       -0.000  -0.000   0.000  -0.000
  119       -0.000  -0.000   0.000  -0.000
  120       -0.000  -0.000   0.000  -0.000
  121       -0.000  -0.000   0.000  -0.000
  122       -0.000  -0.000   0.000  -0.000
  123       -0.000  -0.001   0.000  -0.001
  124       -0.000   0.000   0.000   0.000
  125       -0.001  -0.014   0.000  -0.015
  126       -0.000  -0.000   0.000  -0.000
  127       -0.000  -0.000   0.000  -0.000
  128       -0.000  -0.000   0.000  -0.000
  129       -0.000  -0.000   0.000  -0.000
  130       -0.000  -0.000   0.000  -0.000
  131       -0.000  -0.000   0.000  -0.000
  132       -0.000  -0.000   0.000  -0.000
  133       -0.000  -0.000   0.000  -0.000
  134       -0.000  -0.000   0.000  -0.000
  135        0.000  -0.000   0.000  -0.000
  136       -0.000  -0.000   0.000  -0.000
  137       -0.000  -0.000   0.000  -0.000
  138       -0.000  -0.000   0.000  -0.000
  139        0.000   0.000   0.000   0.000
  140       -0.000  -0.000   0.000  -0.000
  141       -0.000   0.000   0.000   0.000
  142       -0.000  -0.000   0.000  -0.000
  143       -0.000  -0.000   0.000  -0.000
  144       -0.000  -0.000   0.000  -0.000
  145        0.000   0.000   0.000   0.000
  146        0.000   0.000   0.000   0.000
  147       -0.000  -0.000   0.000  -0.000
  148        0.000  -0.000   0.000  -0.000
  149       -0.000  -0.000   0.000  -0.000
  150       -0.000  -0.000   0.000  -0.000
  151        0.000  -0.000   0.000  -0.000
  152        0.000  -0.000   0.000  -0.000
  153       -0.000  -0.000   0.000  -0.000
  154        0.000   0.000   0.000   0.000
  155        0.000  -0.000   0.000  -0.000
  156       -0.000  -0.000   0.000  -0.000
  157       -0.000  -0.000   0.000  -0.000
  158       -0.000  -0.000   0.000  -0.000
  159       -0.000  -0.000   0.000  -0.000
  160        0.000   0.000   0.000   0.000
  161       -0.000  -0.000   0.000  -0.000
  162        0.000  -0.000   0.000  -0.000
  163       -0.000   0.001   0.000   0.001
  164       -0.000   0.000   0.000   0.000
  165        0.000  -0.000   0.000  -0.000
  166       -0.000  -0.000   0.000  -0.000
  167       -0.000  -0.000   0.000  -0.000
  168       -0.000  -0.000   0.000  -0.000
  169       -0.000   0.000   0.000   0.000
  170       -0.000   0.000   0.000   0.000
  171       -0.000  -0.000   0.000  -0.000
  172       -0.000  -0.000   0.000  -0.000
  173        0.000  -0.000   0.000  -0.000
  174       -0.000  -0.000   0.000  -0.000
  175       -0.000   0.000   0.000   0.000
  176        0.000  -0.000   0.000  -0.000
  177       -0.000  -0.000   0.000  -0.000
  178       -0.000  -0.000   0.000  -0.000
  179       -0.000  -0.000   0.000  -0.000
  180        0.000  -0.000   0.000  -0.000
  181       -0.000  -0.000   0.000  -0.000
  182       -0.000  -0.000   0.000  -0.000
  183        0.000   0.000   0.000   0.000
  184       -0.000  -0.000   0.000  -0.000
  185       -0.000  -0.000   0.000  -0.000
  186        0.000  -0.000   0.000  -0.000
  187        0.000   0.000   0.000   0.000
  188       -0.000  -0.000   0.000  -0.000
  189       -0.000   0.002   0.000   0.002
  190       -0.000  -0.000   0.000  -0.000
  191       -0.000  -0.000   0.000  -0.000
  192       -0.000  -0.000   0.000  -0.000
  193        0.000  -0.000   0.000  -0.000
  194       -0.000  -0.000   0.000  -0.000
  195       -0.000  -0.000   0.000  -0.000
  196       -0.000  -0.000   0.000  -0.000
  197        0.000   0.000   0.000   0.000
  198       -0.000  -0.000   0.000  -0.000
  199        0.000  -0.000   0.000  -0.000
  200       -0.000   0.000   0.000   0.000
  201       -0.000  -0.000   0.000  -0.000
  202       -0.000  -0.000   0.000  -0.000
  203       -0.000  -0.000   0.000  -0.000
  204       -0.000   0.000   0.000   0.000
  205       -0.000  -0.000   0.000  -0.000
  206       -0.000  -0.000   0.000  -0.000
  207        0.000  -0.000   0.000  -0.000
  208       -0.000   0.001   0.000   0.000
  209       -0.000   0.000   0.000   0.000
  210       -0.000  -0.000   0.000  -0.000
  211       -0.000  -0.000   0.000  -0.000
  212       -0.000  -0.000   0.000  -0.000
  213       -0.000  -0.000   0.000  -0.000
  214       -0.000  -0.000   0.000  -0.000
  215       -0.000  -0.000   0.000  -0.000
  216       -0.000  -0.000   0.000  -0.000
  217        0.000  -0.000   0.000  -0.000
  218       -0.000  -0.000   0.000  -0.000
  219       -0.000   0.000   0.000   0.000
  220       -0.000  -0.000   0.000  -0.000
  221       -0.000  -0.000   0.000  -0.000
  222       -0.000  -0.000   0.000  -0.000
  223       -0.000  -0.000   0.000  -0.000
  224       -0.000  -0.000   0.000  -0.000
  225       -0.000  -0.000   0.000  -0.000
  226       -0.000  -0.000   0.000  -0.000
  227       -0.000  -0.000   0.000  -0.000
  228       -0.000  -0.000   0.000  -0.000
  229       -0.000  -0.000   0.000  -0.000
  230       -0.000  -0.000   0.000  -0.000
  231       -0.000  -0.000   0.000  -0.000
  232       -0.000  -0.000   0.000  -0.000
  233       -0.000  -0.000   0.000  -0.000
  234       -0.000  -0.000   0.000  -0.000
  235       -0.000  -0.000   0.000  -0.000
  236       -0.000   0.000   0.000   0.000
  237       -0.000  -0.000   0.000  -0.000
  238       -0.000  -0.000   0.000  -0.000
  239       -0.000  -0.000   0.000  -0.000
  240       -0.000  -0.000   0.000  -0.000
  241       -0.000  -0.000   0.000  -0.000
  242       -0.000   0.000   0.000   0.000
  243       -0.000  -0.000   0.000  -0.000
  244       -0.000  -0.000   0.000  -0.000
  245       -0.000  -0.000   0.000  -0.000
  246       -0.000  -0.000   0.000  -0.000
  247       -0.000  -0.000   0.000  -0.000
  248       -0.000  -0.000   0.000  -0.000
  249       -0.000  -0.000   0.000  -0.000
  250       -0.000  -0.000   0.000  -0.000
  251       -0.000  -0.000   0.000  -0.000
  252       -0.000  -0.000   0.000  -0.000
  253       -0.000  -0.005   0.000  -0.005
  254        0.000   0.000   0.000   0.000
  255       -0.000  -0.000   0.000  -0.000
  256       -0.000  -0.000   0.000  -0.000
  257       -0.000  -0.000   0.000  -0.000
--------------------------------------------------
tot          0.002  -0.039   0.976   0.938
 

 total amount of memory used by VASP MPI-rank0   291472. kBytes
=======================================================================

   base      :      30000. kBytes
   nonlr-proj:      49437. kBytes
   fftplans  :      27976. kBytes
   grid      :      34041. kBytes
   one-center:       1026. kBytes
   wavefun   :     148992. kBytes
 
  
  
 General timing and accounting informations for this job:
 ========================================================
  
                  Total CPU time used (sec):      862.383
                            User time (sec):      529.511
                          System time (sec):      332.872
                         Elapsed time (sec):      890.625
  
                   Maximum memory used (kb):      621020.
                   Average memory used (kb):           0.
  
                          Minor page faults:        90764
                          Major page faults:            4
                 Voluntary context switches:        16777
