       N       E                     dE             d eps       ncg     rms          rms(c)
DAV:   1    -0.212485699926E+03   -0.21249E+03   -0.42654E-03 20480   0.420E-01    0.278E-03
DAV:   2    -0.212485699843E+03    0.83244E-07   -0.64777E-07 11136   0.619E-03
   1 F= -.21248570E+03 E0= -.21248570E+03  d E =-.212486E+03  mag=     0.0000
