LTO                                     
           1
     7.820457    0.000542   -0.001375
     0.000540    7.769554    0.000031
    -0.001326    0.000005    7.625690
   Ti   O    F 
   8   8  16
Direct configuration=     1
   0.00014898  0.00086134  0.98343339
   0.00065395  0.98126977  0.50386691
   0.00092214  0.50024824  0.98303128
   0.98226914  0.50566658  0.50164694
   0.50022847  0.99981025  0.99165819
   0.50013859  0.99019479  0.48602372
   0.50022788  0.49908788  0.98340593
   0.50894106  0.51544247  0.50290121
   0.75172497  0.49841546  0.49704713
   0.00090059  0.75236310  0.49690870
   0.49906213  0.74932210  0.50008631
   0.00005858  0.00104057  0.75525835
   0.00134582  0.49850007  0.75667592
   0.50037549  0.99995174  0.24720296
   0.50037332  0.00037037  0.75921765
   0.49871469  0.49803439  0.75706237
   0.24507811  0.99949998  0.00729459
   0.24651068  0.00785125  0.49923665
   0.24916646  0.50074318  0.00803801
   0.24845124  0.49612731  0.49612488
   0.75532427  0.99952183  0.00734458
   0.75428986  0.00954208  0.49918215
   0.75189265  0.50073700  0.00951197
   0.99983143  0.25050098  0.00927357
   0.00290798  0.24773532  0.49577480
   0.99983602  0.75034426  0.01087957
   0.50085743  0.25294120  0.00843344
   0.49765506  0.25148628  0.50093203
   0.50087732  0.74567611  0.00900672
   0.00008897  0.00409059  0.24592489
   0.00420203  0.49704231  0.24337009
   0.49694468  0.49558120  0.24424510
