 vasp.5.4.4.18Apr17-6-g9f103f2a35 (build Jul 16 2019 12:12:28) complex          
  
 executed on             LinuxIFC date 2020.01.06  10:19:55
 running on   96 total cores
 distrk:  each k-point on   96 cores,    1 groups
 distr:  one band on NCORES_PER_BAND=   8 cores,   12 groups


--------------------------------------------------------------------------------------------------------


 INCAR:
 POTCAR:    PAW_PBE Li_sv 10Sep2004               
 POTCAR:    PAW_PBE Ti_pv 07Sep2000               
 POTCAR:    PAW_PBE O 08Apr2002                   
 POTCAR:    PAW_PBE F 08Apr2002                   
 POTCAR:    PAW_PBE Li_sv 10Sep2004               
   VRHFIN =Li: 1s2s2p                                                           
   LEXCH  = PE                                                                  
   EATOM  =   202.7858 eV,   14.9043 Ry                                         
                                                                                
   TITEL  = PAW_PBE Li_sv 10Sep2004                                             
   LULTRA =        F    use ultrasoft PP ?                                      
   IUNSCR =        0    unscreen: 0-lin 1-nonlin 2-no                           
   RPACOR =    0.000    partial core radius                                     
   POMASS =    7.010; ZVAL   =    3.000    mass and valenz                      
   RCORE  =    1.700    outmost cutoff radius                                   
   RWIGS  =    2.050; RWIGS  =    1.085    wigner-seitz radius (au A)           
   ENMAX  =  499.034; ENMIN  =  374.276 eV                                      
   ICORE  =        2    local potential                                         
   LCOR   =        T    correct aug charges                                     
   LPAW   =        T    paw PP                                                  
   EAUG   =  628.945                                                            
   RMAX   =    1.732    core radius for proj-oper                               
   RAUG   =    1.300    factor for augmentation sphere                          
   RDEP   =    1.728    radius for radial grids                                 
   RDEPT  =    1.329    core radius for aug-charge                              
                                                                                
   Atomic configuration                                                         
    4 entries                                                                   
     n  l   j            E        occ.                                          
     1  0  0.50       -51.8549   2.0000                                         
     2  0  0.50        -2.8742   1.0000                                         
     2  1  0.50        -1.3606   0.0000                                         
     3  2  1.50        -1.3606   0.0000                                         
   Description                                                                  
     l       E           TYP  RCUT    TYP  RCUT                                 
     0    -51.8548813     23  1.400                                             
     0     -2.8742052     23  1.700                                             
     1     -1.3605826     23  1.400                                             
     2     -1.3605826     23  1.400                                             
  local pseudopotential read in
  atomic valenz-charges read in
  non local Contribution for L=           0  read in
    real space projection operators read in
  non local Contribution for L=           0  read in
    real space projection operators read in
  non local Contribution for L=           1  read in
    real space projection operators read in
    PAW grid and wavefunctions read in
 
   number of l-projection  operators is LMAX  =           3
   number of lm-projection operators is LMMAX =           5
 
 POTCAR:    PAW_PBE Ti_pv 07Sep2000               
   VRHFIN =Ti: d3 s1                                                            
   LEXCH  = PE                                                                  
   EATOM  =  1042.5995 eV,   76.6289 Ry                                         
                                                                                
   TITEL  = PAW_PBE Ti_pv 07Sep2000                                             
   LULTRA =        F    use ultrasoft PP ?                                      
   IUNSCR =        1    unscreen: 0-lin 1-nonlin 2-no                           
   RPACOR =    2.200    partial core radius                                     
   POMASS =   47.880; ZVAL   =   10.000    mass and valenz                      
   RCORE  =    2.500    outmost cutoff radius                                   
   RWIGS  =    2.500; RWIGS  =    1.323    wigner-seitz radius (au A)           
   ENMAX  =  222.335; ENMIN  =  166.751 eV                                      
   RCLOC  =    1.701    cutoff for local pot                                    
   LCOR   =        T    correct aug charges                                     
   LPAW   =        T    paw PP                                                  
   EAUG   =  482.848                                                            
   DEXC   =    0.000                                                            
   RMAX   =    2.564    core radius for proj-oper                               
   RAUG   =    1.300    factor for augmentation sphere                          
   RDEP   =    2.538    radius for radial grids                                 
   RDEPT  =    1.952    core radius for aug-charge                              
                                                                                
   Atomic configuration                                                         
    8 entries                                                                   
     n  l   j            E        occ.                                          
     1  0  0.50     -4865.3608   2.0000                                         
     2  0  0.50      -533.1368   2.0000                                         
     2  1  1.50      -440.5031   6.0000                                         
     3  0  0.50       -59.3186   2.0000                                         
     3  1  1.50       -35.7012   6.0000                                         
     3  2  2.50        -1.9157   3.0000                                         
     4  0  0.50        -3.7291   1.0000                                         
     4  3  2.50        -1.3606   0.0000                                         
   Description                                                                  
     l       E           TYP  RCUT    TYP  RCUT                                 
     1    -35.7012140     23  2.300                                             
     1     -1.3605826     23  2.300                                             
     2     -1.9156996     23  2.500                                             
     2     -0.4063033     23  2.500                                             
     0     -3.7290856     23  2.500                                             
     0     20.4087390     23  2.500                                             
  local pseudopotential read in
  partial core-charges read in
  partial kinetic energy density read in
  atomic valenz-charges read in
  non local Contribution for L=           1  read in
    real space projection operators read in
  non local Contribution for L=           1  read in
    real space projection operators read in
  non local Contribution for L=           2  read in
    real space projection operators read in
  non local Contribution for L=           2  read in
    real space projection operators read in
  non local Contribution for L=           0  read in
    real space projection operators read in
  non local Contribution for L=           0  read in
    real space projection operators read in
    PAW grid and wavefunctions read in
 
   number of l-projection  operators is LMAX  =           6
   number of lm-projection operators is LMMAX =          18
 
 POTCAR:    PAW_PBE O 08Apr2002                   
   VRHFIN =O: s2p4                                                              
   LEXCH  = PE                                                                  
   EATOM  =   432.3788 eV,   31.7789 Ry                                         
                                                                                
   TITEL  = PAW_PBE O 08Apr2002                                                 
   LULTRA =        F    use ultrasoft PP ?                                      
   IUNSCR =        1    unscreen: 0-lin 1-nonlin 2-no                           
   RPACOR =    1.200    partial core radius                                     
   POMASS =   16.000; ZVAL   =    6.000    mass and valenz                      
   RCORE  =    1.520    outmost cutoff radius                                   
   RWIGS  =    1.550; RWIGS  =    0.820    wigner-seitz radius (au A)           
   ENMAX  =  400.000; ENMIN  =  300.000 eV                                      
   ICORE  =        2    local potential                                         
   LCOR   =        T    correct aug charges                                     
   LPAW   =        T    paw PP                                                  
   EAUG   =  605.392                                                            
   DEXC   =    0.000                                                            
   RMAX   =    1.553    core radius for proj-oper                               
   RAUG   =    1.300    factor for augmentation sphere                          
   RDEP   =    1.550    radius for radial grids                                 
   RDEPT  =    1.329    core radius for aug-charge                              
                                                                                
   Atomic configuration                                                         
    4 entries                                                                   
     n  l   j            E        occ.                                          
     1  0  0.50      -514.6923   2.0000                                         
     2  0  0.50       -23.9615   2.0000                                         
     2  1  0.50        -9.0305   4.0000                                         
     3  2  1.50        -9.5241   0.0000                                         
   Description                                                                  
     l       E           TYP  RCUT    TYP  RCUT                                 
     0    -23.9615318     23  1.200                                             
     0     -9.5240782     23  1.200                                             
     1     -9.0304911     23  1.520                                             
     1      8.1634956     23  1.520                                             
     2     -9.5240782      7  1.500                                             
  local pseudopotential read in
  partial core-charges read in
  partial kinetic energy density read in
  kinetic energy density of atom read in
  atomic valenz-charges read in
  non local Contribution for L=           0  read in
    real space projection operators read in
  non local Contribution for L=           0  read in
    real space projection operators read in
  non local Contribution for L=           1  read in
    real space projection operators read in
  non local Contribution for L=           1  read in
    real space projection operators read in
    PAW grid and wavefunctions read in
 
   number of l-projection  operators is LMAX  =           4
   number of lm-projection operators is LMMAX =           8
 
 POTCAR:    PAW_PBE F 08Apr2002                   
   VRHFIN =F: s2p5                                                              
   LEXCH  = PE                                                                  
   EATOM  =   659.6475 eV,   48.4827 Ry                                         
                                                                                
   TITEL  = PAW_PBE F 08Apr2002                                                 
   LULTRA =        F    use ultrasoft PP ?                                      
   IUNSCR =        1    unscreen: 0-lin 1-nonlin 2-no                           
   RPACOR =    1.200    partial core radius                                     
   POMASS =   18.998; ZVAL   =    7.000    mass and valenz                      
   RCORE  =    1.520    outmost cutoff radius                                   
   RWIGS  =    1.500; RWIGS  =    0.794    wigner-seitz radius (au A)           
   ENMAX  =  400.000; ENMIN  =  300.000 eV                                      
   ICORE  =        2    local potential                                         
   LCOR   =        T    correct aug charges                                     
   LPAW   =        T    paw PP                                                  
   EAUG   =  613.614                                                            
   RMAX   =    1.555    core radius for proj-oper                               
   RAUG   =    1.300    factor for augmentation sphere                          
   RDEP   =    1.539    radius for radial grids                                 
   RDEPT  =    1.299    core radius for aug-charge                              
                                                                                
   Atomic configuration                                                         
    4 entries                                                                   
     n  l   j            E        occ.                                          
     1  0  0.50      -663.3661   2.0000                                         
     2  0  0.50       -29.8995   2.0000                                         
     2  1  0.50       -11.1114   5.0000                                         
     3  2  1.50       -10.8847   0.0000                                         
   Description                                                                  
     l       E           TYP  RCUT    TYP  RCUT                                 
     0    -29.8995018     23  1.200                                             
     0     -9.5240782     23  1.200                                             
     1    -11.1113914     23  1.520                                             
     1      1.3605826     23  1.520                                             
     2    -10.8846608      7  1.500                                             
  local pseudopotential read in
  partial core-charges read in
  partial kinetic energy density read in
  atomic valenz-charges read in
  non local Contribution for L=           0  read in
    real space projection operators read in
  non local Contribution for L=           0  read in
    real space projection operators read in
  non local Contribution for L=           1  read in
    real space projection operators read in
  non local Contribution for L=           1  read in
    real space projection operators read in
    PAW grid and wavefunctions read in
 
   number of l-projection  operators is LMAX  =           4
   number of lm-projection operators is LMMAX =           8
 
 Optimization of the real space projectors (new method)

 maximal supplied QI-value         = 22.11
 optimisation between [QCUT,QGAM] = [ 11.28, 22.77] = [ 35.61,145.23] Ry 
 Optimized for a Real-space Cutoff    1.31 Angstroem

   l    n(q)    QCUT    max X(q) W(low)/X(q) W(high)/X(q)  e(spline) 
   0      9    11.276    10.506    0.19E-04    0.17E-04    0.32E-07
   0      9    11.276     8.367    0.38E-04    0.40E-04    0.65E-07
   1      8    11.276     8.983    0.55E-04    0.98E-04    0.20E-06
 Optimization of the real space projectors (new method)

 maximal supplied QI-value         = 15.12
 optimisation between [QCUT,QGAM] = [ 11.34, 22.83] = [ 36.00,145.93] Ry 
 Optimized for a Real-space Cutoff    1.56 Angstroem

   l    n(q)    QCUT    max X(q) W(low)/X(q) W(high)/X(q)  e(spline) 
   1     10    11.338     4.216    0.27E-04    0.12E-04    0.66E-07
   1     10    11.338     5.422    0.81E-04    0.24E-04    0.19E-06
   2     10    11.338    72.084    0.64E-04    0.21E-03    0.51E-06
   2     10    11.338    65.965    0.63E-04    0.21E-03    0.50E-06
   0     11    11.338    41.531    0.33E-04    0.54E-04    0.13E-06
   0     11    11.338    16.290    0.26E-04    0.41E-04    0.11E-06
 Optimization of the real space projectors (new method)

 maximal supplied QI-value         = 24.76
 optimisation between [QCUT,QGAM] = [ 11.39, 22.77] = [ 36.31,145.25] Ry 
 Optimized for a Real-space Cutoff    1.20 Angstroem

   l    n(q)    QCUT    max X(q) W(low)/X(q) W(high)/X(q)  e(spline) 
   0      8    11.387    20.381    0.89E-04    0.31E-03    0.27E-06
   0      8    11.387    15.268    0.93E-04    0.32E-03    0.29E-06
   1      8    11.387     5.964    0.53E-04    0.28E-03    0.29E-06
   1      8    11.387     5.382    0.37E-04    0.22E-03    0.26E-06
 Optimization of the real space projectors (new method)

 maximal supplied QI-value         = 24.76
 optimisation between [QCUT,QGAM] = [ 11.39, 22.77] = [ 36.31,145.25] Ry 
 Optimized for a Real-space Cutoff    1.20 Angstroem

   l    n(q)    QCUT    max X(q) W(low)/X(q) W(high)/X(q)  e(spline) 
   0      8    11.387    14.049    0.69E-04    0.23E-03    0.18E-06
   0      8    11.387     8.945    0.88E-04    0.30E-03    0.26E-06
   1      8    11.387     7.086    0.62E-04    0.27E-03    0.27E-06
   1      8    11.387     6.747    0.46E-04    0.23E-03    0.25E-06

 ----------------------------------------------------------------------------- 
|                                                                             |
|  ADVICE TO THIS USER RUNNING 'VASP/VAMP'   (HEAR YOUR MASTER'S VOICE ...):  |
|                                                                             |
|      You enforced a specific xc-type in the INCAR file,                     |
|      a different type was found on the POTCAR file                          |
|          I HOPE YOU KNOW, WHAT YOU ARE  DOING                               |
|                                                                             |
 ----------------------------------------------------------------------------- 

  PAW_PBE Li_sv 10Sep2004               :
 energy of atom  1       EATOM= -202.7858
 kinetic energy error for atom=    0.0143 (will be added to EATOM!!)
  PAW_PBE Ti_pv 07Sep2000               :
 energy of atom  2       EATOM=-1042.5995
 kinetic energy error for atom=    0.0024 (will be added to EATOM!!)
  PAW_PBE O 08Apr2002                   :
 energy of atom  3       EATOM= -432.3788
 kinetic energy error for atom=    0.0224 (will be added to EATOM!!)
  PAW_PBE F 08Apr2002                   :
 energy of atom  4       EATOM= -659.6475
 kinetic energy error for atom=    0.0354 (will be added to EATOM!!)
 
 
 POSCAR: config 13                               
  positions in direct lattice
  velocities in cartesian coordinates
 exchange correlation table for  LEXCH =       14
   RHO(1)=    0.500       N(1)  =     2000
   RHO(2)=  100.500       N(2)  =     4000

 VTST: version 3.2, (02/03/18)

 CHAIN: initializing optimizer
 
 OPT: Using VASP QUASI-newton optimizer
 CHAIN: Read ICHAIN            0
 
 POSCAR: config 13                               
  positions in direct lattice
  velocities in cartesian coordinates
 


--------------------------------------------------------------------------------------------------------


 ion  position               nearest neighbor table
   1  0.081  0.859  0.137- 118 2.10 227 2.11  97 2.14  71 2.23  28 2.77  20 2.86
   2  0.997  0.994  0.995-  68 1.87 118 1.88 103 1.90 171 2.04 212 2.05 130 2.05
   3  0.998  0.990  0.496- 119 1.81  67 1.84 172 1.95 193 1.97 131 2.00 213 2.10
   4  0.007  0.495  0.998-  89 1.84 117 1.86 138 1.94 132 1.99 194 2.03 214 2.05
   5  0.994  0.504  0.507-  66 1.83 104 1.84 215 1.94 223 2.01 173 2.02 137 2.04
   6  0.497  0.993  0.000- 101 1.84 121 1.85 140 1.96 133 1.98 174 2.03 216 2.03
   7  0.501  0.009  0.499- 112 1.78 191 1.92 134 1.92 139 1.93 175 1.95 225 2.04
   8  0.506  0.495  0.996-  70 1.89 120 1.89  90 1.89 192 2.04 135 2.04 217 2.07
   9  0.492  0.499  0.495- 102 1.81  69 1.86 224 2.00 218 2.00 136 2.01 176 2.07
  10  0.007  0.002  0.258-  67 1.84  91 1.86 219 1.93 227 1.96 130 2.03 197 2.06
  11  0.003  0.007  0.758-  68 1.80 113 1.84 177 1.95 198 1.98 228 2.05 131 2.07
  12  0.992  0.495  0.251- 107 1.83 122 1.88 137 1.95 220 1.95 132 1.98 178 2.04
  13  0.994  0.501  0.741- 108 1.82  66 1.83 226 1.94 221 1.98 138 2.04 179 2.05
  14  0.507  0.008  0.251- 114 1.83  92 1.84 133 1.93 139 1.99 195 2.00 231 2.06
  15  0.494  0.006  0.753- 105 1.81 115 1.84 140 1.94 232 2.01 134 2.01 180 2.04
  16  0.492  0.498  0.257-  69 1.83 106 1.84 229 1.97 222 2.01 135 2.03 181 2.05
  17  0.502  0.503  0.759-  70 1.80 116 1.88 182 1.95 196 1.98 230 2.04 136 2.08
  18  0.997  0.258  0.003- 117 1.83 110 1.88 141 1.97 146 1.98 183 2.01 212 2.04
  19  0.998  0.249  0.491-  74 1.78 213 1.92 184 1.94 202 1.95 223 1.95 142 2.02
  20  0.998  0.756  0.008-  71 1.79 118 1.88 203 1.95 185 2.01 214 2.04 148 2.07   1 2.86
  21  0.995  0.756  0.510-  72 1.82 119 1.84 204 1.95 186 1.97 147 2.03 215 2.04
  22  0.497  0.259  0.003- 120 1.80 109 1.85 150 1.97 143 1.99 187 2.05 216 2.08
  23  0.509  0.246  0.498-  93 1.81 112 1.91 144 1.93 149 1.95 224 1.98 199 2.02
  24  0.508  0.756  1.000-  94 1.83 121 1.85 152 1.94 145 1.99 217 2.02 200 2.03
  25  0.505  0.753  0.509-  73 1.79  95 1.84 225 1.98 218 1.98 201 2.02 151 2.07
  26  0.997  0.260  0.255- 122 1.78  74 1.89 209 1.95 188 1.96 141 2.00 219 2.05
  27  0.008  0.243  0.749- 113 1.81  96 1.83 142 1.97 146 1.98 210 2.05 226 2.06
  28  1.000  0.745  0.250-  71 1.95 147 2.00 220 2.01  97 2.03 211 2.07 227 2.09   1 2.77
  29  0.992  0.750  0.745- 111 1.82  72 1.85 228 1.94 221 1.98 148 2.01 189 2.02
  30  0.510  0.243  0.252-  98 1.82 114 1.84 143 1.94 149 1.97 229 2.02 205 2.03
  31  0.508  0.243  0.752-  99 1.84 115 1.84 150 1.94 144 1.99 206 2.02 230 2.02
  32  0.504  0.753  0.251- 100 1.80 151 1.93 231 1.95 145 1.95 222 1.96 207 1.97
  33  0.502  0.741  0.743- 116 1.81  73 1.84 190 1.94 208 1.96 152 2.03 232 2.07
  34  0.259  0.998  0.005-  75 1.85 101 1.85 246 1.95 233 1.96 157 2.03 171 2.03
  35  0.251  0.993  0.506- 128 1.81  76 1.85 172 1.96 191 2.00 156 2.02 234 2.04
  36  0.245  0.509  0.997- 123 1.82  89 1.85 159 1.94 153 1.98 192 2.03 245 2.04
  37  0.255  0.494  0.506-  77 1.86 102 1.88 127 1.89 158 2.05 173 2.05 235 2.06
  38  0.758  0.999  0.994- 103 1.80  81 1.87 249 1.96 236 1.96 154 2.05 174 2.06
  39  0.749  0.008  0.495-  80 1.83 124 1.84 193 1.95 155 1.99 175 2.00 250 2.05
  40  0.743  0.501  0.005-  90 1.80  78 1.87 237 1.97 247 1.97 161 2.03 194 2.06
  41  0.755  0.498  0.506-  79 1.84 104 1.86 248 1.97 238 1.99 176 2.02 160 2.03
  42  0.245  0.001  0.243-  75 1.84  91 1.86 239 1.93 252 1.96 156 2.04 195 2.07
  43  0.259  0.998  0.743-  76 1.83 105 1.84 253 1.93 240 1.97 177 2.03 157 2.04
  44  0.256  0.495  0.251- 106 1.84 129 1.84 158 1.94 153 1.97 178 2.04 241 2.04
  45  0.247  0.506  0.740-  77 1.79 125 1.83 179 1.95 196 1.98 251 2.03 159 2.07
  46  0.744  0.999  0.256-  92 1.85  80 1.86 256 1.96 242 1.97 154 2.00 197 2.02
  47  0.748  0.008  0.756-  81 1.82 126 1.83 180 1.95 198 1.97 257 2.04 155 2.07
  48  0.755  0.500  0.242-  78 1.82 107 1.86 243 1.96 254 1.98 181 2.03 160 2.05
  49  0.758  0.498  0.742- 108 1.83  79 1.84 255 1.94 244 1.98 182 2.04 161 2.04
  50  0.258  0.253  0.007- 109 1.84  82 1.85 245 1.94 233 1.98 168 2.02 183 2.07
  51  0.254  0.257  0.505- 127 1.81  83 1.85 199 1.97 184 2.02 167 2.04 234 2.06
  52  0.254  0.742  0.991- 123 1.82  86 1.83 200 1.95 185 1.98 162 2.03 246 2.06
  53  0.251  0.755  0.490-  85 1.80 128 1.88 201 1.96 186 1.99 235 2.01 163 2.07
  54  0.758  0.252  0.008- 110 1.81  84 1.86 247 1.95 236 1.95 170 2.04 187 2.05
  55  0.742  0.243  0.497- 124 1.83  93 1.85 169 1.94 164 1.96 248 2.03 202 2.05
  56  0.741  0.748  0.995-  94 1.82  88 1.84 237 1.95 249 1.96 165 2.03 203 2.04
  57  0.740  0.753  0.494-  95 1.82  87 1.85 250 1.96 238 1.98 166 2.01 204 2.05
  58  0.252  0.259  0.244- 129 1.81  82 1.83 205 1.97 188 2.00 167 2.03 239 2.05
  59  0.245  0.252  0.744-  83 1.84  96 1.85 251 1.94 240 1.98 168 2.04 206 2.05
  60  0.239  0.751  0.252-  97 1.77  85 1.88 241 1.96 252 2.00 162 2.04 207 2.13
  61  0.248  0.741  0.754- 125 1.81  86 1.84 189 1.94 208 1.98 163 2.02 253 2.04
  62  0.741  0.253  0.243-  84 1.80  98 1.84 254 1.94 242 1.96 209 2.05 169 2.08
  63  0.745  0.243  0.751- 126 1.82  99 1.84 170 1.95 164 2.01 210 2.02 255 2.05
  64  0.741  0.749  0.257-  87 1.82 100 1.89 243 1.95 211 1.96 256 1.97 165 2.03
  65  0.757  0.750  0.757- 111 1.82  88 1.84 257 1.94 244 1.97 190 2.03 166 2.05
  66  0.011  0.511  0.625-  13 1.83   5 1.83
  67  0.000  0.994  0.377-   3 1.84  10 1.84
  68  0.006  0.991  0.874-  11 1.80   2 1.87
  69  0.496  0.488  0.375-  16 1.83   9 1.86
  70  0.493  0.491  0.875-  17 1.80   8 1.89
  71  0.998  0.742  0.123-  20 1.79  28 1.95   1 2.23
  72  0.998  0.736  0.626-  21 1.82  29 1.85
  73  0.496  0.745  0.624-  25 1.79  33 1.84
  74  0.987  0.257  0.377-  19 1.78  26 1.89
  75  0.259  0.999  0.125-  42 1.84  34 1.85
  76  0.262  0.003  0.625-  43 1.83  35 1.85
  77  0.237  0.492  0.625-  45 1.79  37 1.86
  78  0.748  0.489  0.125-  48 1.82  40 1.87
  79  0.744  0.489  0.624-  49 1.84  41 1.84
  80  0.746  0.003  0.376-  39 1.83  46 1.86
  81  0.743  0.005  0.874-  47 1.82  38 1.87
  82  0.241  0.253  0.125-  58 1.83  50 1.85
  83  0.247  0.252  0.625-  59 1.84  51 1.85
  84  0.737  0.263  0.126-  62 1.80  54 1.86
  85  0.244  0.745  0.374-  53 1.80  60 1.88
  86  0.248  0.751  0.873-  52 1.83  61 1.84
  87  0.745  0.747  0.375-  64 1.82  57 1.85
  88  0.745  0.746  0.876-  65 1.84  56 1.84
  89  0.125  0.512  0.991-   4 1.84  36 1.85
  90  0.627  0.514  0.996-  40 1.80   8 1.89
  91  0.125  0.986  0.244-  10 1.86  42 1.86
  92  0.625  0.989  0.246-  14 1.84  46 1.85
  93  0.624  0.264  0.487-  23 1.81  55 1.85
  94  0.625  0.733  0.006-  56 1.82  24 1.83
  95  0.623  0.769  0.501-  57 1.82  25 1.84
  96  0.125  0.255  0.755-  27 1.83  59 1.85
  97  0.128  0.774  0.237-  60 1.77  28 2.03   1 2.14
  98  0.625  0.261  0.267-  30 1.82  62 1.84
  99  0.627  0.256  0.755-  63 1.84  31 1.84
 100  0.620  0.764  0.247-  32 1.80  64 1.89
 101  0.378  0.990  0.989-   6 1.84  34 1.85
 102  0.375  0.511  0.507-   9 1.81  37 1.88
 103  0.874  0.989  0.997-  38 1.80   2 1.90
 104  0.875  0.511  0.503-   5 1.84  41 1.86
 105  0.377  1.000  0.762-  15 1.81  43 1.84
 106  0.374  0.509  0.246-  44 1.84  16 1.84
 107  0.874  0.512  0.249-  12 1.83  48 1.86
 108  0.876  0.512  0.743-  13 1.82  49 1.83
 109  0.377  0.257  0.011-  50 1.84  22 1.85
 110  0.875  0.258  0.012-  54 1.81  18 1.88
 111  0.875  0.741  0.754-  65 1.82  29 1.82
 112  0.517  0.123  0.488-   7 1.78  23 1.91
 113  0.001  0.126  0.756-  27 1.81  11 1.84
 114  0.510  0.125  0.268-  14 1.83  30 1.84
 115  0.505  0.124  0.757-  15 1.84  31 1.84
 116  0.505  0.625  0.756-  33 1.81  17 1.88
 117  0.010  0.376  0.011-  18 1.83   4 1.86
 118  0.019  0.875  0.018-  20 1.88   2 1.88   1 2.10
 119  0.982  0.875  0.511-   3 1.81  21 1.84
 120  0.512  0.374  0.012-  22 1.80   8 1.89
 121  0.513  0.875  0.012-   6 1.85  24 1.85
 122  0.991  0.374  0.238-  26 1.78  12 1.88
 123  0.265  0.625  0.003-  52 1.82  36 1.82
 124  0.732  0.125  0.508-  55 1.83  39 1.84
 125  0.244  0.624  0.746-  61 1.81  45 1.83
 126  0.749  0.125  0.740-  63 1.82  47 1.83
 127  0.260  0.373  0.491-  51 1.81  37 1.89
 128  0.262  0.876  0.497-  35 1.81  53 1.88
 129  0.258  0.376  0.258-  58 1.81  44 1.84
 130  0.998  0.012  0.127-  10 2.03   2 2.05
 131  0.999  0.008  0.624-   3 2.00  11 2.07
 132  0.003  0.516  0.125-  12 1.98   4 1.99
 133  0.490  0.015  0.127-  14 1.93   6 1.98
 134  0.491  0.007  0.623-   7 1.92  15 2.01
 135  0.505  0.513  0.127-  16 2.03   8 2.04
 136  0.511  0.506  0.624-   9 2.01  17 2.08
 137  0.997  0.483  0.377-  12 1.95   5 2.04
 138  0.993  0.489  0.873-   4 1.94  13 2.04
 139  0.508  0.981  0.377-   7 1.93  14 1.99
 140  0.520  0.990  0.875-  15 1.94   6 1.96
 141  0.014  0.238  0.128-  18 1.97  26 2.00
 142  0.007  0.246  0.622-  27 1.97  19 2.02
 143  0.517  0.233  0.127-  30 1.94  22 1.99
 144  0.507  0.239  0.623-  23 1.93  31 1.99
 145  0.491  0.739  0.126-  32 1.95  24 1.99
 146  0.990  0.260  0.875-  18 1.98  27 1.98
 147  0.997  0.761  0.378-  28 2.00  21 2.03
 148  0.004  0.761  0.874-  29 2.01  20 2.07
 149  0.483  0.266  0.376-  23 1.95  30 1.97
 150  0.494  0.261  0.875-  31 1.94  22 1.97
 151  0.496  0.763  0.375-  32 1.93  25 2.07
 152  0.504  0.760  0.874-  24 1.94  33 2.03
 153  0.242  0.493  0.124-  44 1.97  36 1.98
 154  0.754  0.996  0.127-  46 2.00  38 2.05
 155  0.753  0.991  0.623-  39 1.99  47 2.07
 156  0.245  0.003  0.375-  35 2.02  42 2.04
 157  0.240  0.996  0.874-  34 2.03  43 2.04
 158  0.250  0.514  0.375-  44 1.94  37 2.05
 159  0.263  0.501  0.873-  36 1.94  45 2.07
 160  0.748  0.509  0.375-  41 2.03  48 2.05
 161  0.757  0.510  0.874-  40 2.03  49 2.04
 162  0.259  0.758  0.122-  52 2.03  60 2.04
 163  0.253  0.753  0.624-  61 2.02  53 2.07
 164  0.745  0.265  0.623-  55 1.96  63 2.01
 165  0.754  0.754  0.126-  56 2.03  64 2.03
 166  0.751  0.753  0.625-  57 2.01  65 2.05
 167  0.261  0.241  0.374-  58 2.03  51 2.04
 168  0.259  0.250  0.875-  50 2.02  59 2.04
 169  0.766  0.238  0.374-  55 1.94  62 2.08
 170  0.760  0.240  0.876-  63 1.95  54 2.04
 171  0.128  0.012  0.007-  34 2.03   2 2.04
 172  0.124  0.989  0.506-   3 1.95  35 1.96
 173  0.123  0.491  0.489-   5 2.02  37 2.05
 174  0.626  0.012  0.012-   6 2.03  38 2.06
 175  0.623  0.978  0.508-   7 1.95  39 2.00
 176  0.625  0.485  0.495-  41 2.02   9 2.07
 177  0.128  0.997  0.742-  11 1.95  43 2.03
 178  0.124  0.491  0.252-  44 2.04  12 2.04
 179  0.124  0.490  0.765-  45 1.95  13 2.05
 180  0.624  0.993  0.736-  47 1.95  15 2.04
 181  0.625  0.486  0.253-  48 2.03  16 2.05
 182  0.627  0.489  0.759-  17 1.95  49 2.04
 183  0.126  0.242  0.990-  18 2.01  50 2.07
 184  0.123  0.258  0.490-  19 1.94  51 2.02
 185  0.126  0.736  0.004-  52 1.98  20 2.01
 186  0.122  0.763  0.503-  21 1.97  53 1.99
 187  0.628  0.240  0.989-  54 2.05  22 2.05
 188  0.124  0.255  0.264-  26 1.96  58 2.00
 189  0.123  0.757  0.747-  61 1.94  29 2.02
 190  0.626  0.758  0.745-  33 1.94  65 2.03
 191  0.378  0.018  0.488-   7 1.92  35 2.00
 192  0.374  0.488  0.010-  36 2.03   8 2.04
 193  0.874  0.020  0.502-  39 1.95   3 1.97
 194  0.876  0.490  0.002-   4 2.03  40 2.06
 195  0.378  0.010  0.261-  14 2.00  42 2.07
 196  0.375  0.502  0.737-  17 1.98  45 1.98
 197  0.874  0.012  0.252-  46 2.02  10 2.06
 198  0.875  0.997  0.749-  47 1.97  11 1.98
 199  0.379  0.233  0.505-  51 1.97  23 2.02
 200  0.377  0.767  0.995-  52 1.95  24 2.03
 201  0.376  0.735  0.495-  53 1.96  25 2.02
 202  0.874  0.237  0.511-  19 1.95  55 2.05
 203  0.872  0.768  0.996-  20 1.95  56 2.04
 204  0.871  0.733  0.500-  21 1.95  57 2.05
 205  0.379  0.242  0.239-  58 1.97  30 2.03
 206  0.377  0.246  0.745-  31 2.02  59 2.05
 207  0.377  0.738  0.252-  32 1.97  60 2.13
 208  0.375  0.751  0.753-  33 1.96  61 1.98
 209  0.873  0.239  0.238-  26 1.95  62 2.05
 210  0.875  0.251  0.741-  63 2.02  27 2.05
 211  0.867  0.729  0.252-  64 1.96  28 2.07
 212  0.994  0.126  0.994-  18 2.04   2 2.05
 213  0.011  0.125  0.497-  19 1.92   3 2.10
 214  0.986  0.626  0.987-  20 2.04   4 2.05
 215  0.011  0.627  0.484-   5 1.94  21 2.04
 216  0.497  0.124  0.990-   6 2.03  22 2.08
 217  0.484  0.628  0.993-  24 2.02   8 2.07
 218  0.515  0.627  0.489-  25 1.98   9 2.00
 219  0.008  0.128  0.258-  10 1.93  26 2.05
 220  0.016  0.618  0.270-  12 1.95  28 2.01
 221  0.014  0.625  0.766-  13 1.98  29 1.98
 222  0.512  0.627  0.262-  32 1.96  16 2.01
 223  0.990  0.374  0.511-  19 1.95   5 2.01
 224  0.486  0.371  0.512-  23 1.98   9 2.00
 225  0.480  0.879  0.507-  25 1.98   7 2.04
 226  0.993  0.375  0.741-  13 1.94  27 2.06
 227  0.986  0.879  0.233-  10 1.96  28 2.09   1 2.11
 228  0.997  0.875  0.738-  29 1.94  11 2.05
 229  0.491  0.372  0.235-  16 1.97  30 2.02
 230  0.495  0.373  0.738-  31 2.02  17 2.04
 231  0.484  0.877  0.238-  32 1.95  14 2.06
 232  0.500  0.876  0.744-  15 2.01  33 2.07
 233  0.258  0.125  0.996-  34 1.96  50 1.98
 234  0.238  0.124  0.498-  35 2.04  51 2.06
 235  0.237  0.626  0.507-  53 2.01  37 2.06
 236  0.758  0.126  0.010-  54 1.95  38 1.96
 237  0.770  0.626  0.008-  56 1.95  40 1.97
 238  0.733  0.625  0.506-  57 1.98  41 1.99
 239  0.244  0.126  0.249-  42 1.93  58 2.05
 240  0.249  0.125  0.756-  43 1.97  59 1.98
 241  0.236  0.625  0.238-  60 1.96  44 2.04
 242  0.741  0.126  0.243-  62 1.96  46 1.97
 243  0.728  0.624  0.242-  64 1.95  48 1.96
 244  0.736  0.625  0.742-  65 1.97  49 1.98
 245  0.241  0.376  0.994-  50 1.94  36 2.04
 246  0.234  0.874  0.002-  34 1.95  52 2.06
 247  0.740  0.375  0.983-  54 1.95  40 1.97
 248  0.765  0.372  0.487-  41 1.97  55 2.03
 249  0.733  0.875  0.001-  56 1.96  38 1.96
 250  0.768  0.876  0.498-  57 1.96  39 2.05
 251  0.259  0.376  0.758-  59 1.94  45 2.03
 252  0.270  0.877  0.254-  42 1.96  60 2.00
 253  0.250  0.874  0.746-  43 1.93  61 2.04
 254  0.764  0.374  0.267-  62 1.94  48 1.98
 255  0.760  0.374  0.762-  49 1.94  63 2.05
 256  0.766  0.874  0.251-  46 1.96  64 1.97
 257  0.754  0.875  0.751-  65 1.94  47 2.04
 

IMPORTANT INFORMATION: All symmetrisations will be switched off!
NOSYMM: (Re-)initialisation of all symmetry stuff for point group C_1.

 
 
 KPOINTS: Title                                   

Automatic generation of k-mesh.
Space group operators:
 irot       det(A)        alpha          n_x          n_y          n_z        tau_x        tau_y        tau_z
    1     1.000000     0.000001     1.000000     0.000000     0.000000     0.000000     0.000000     0.000000
 
 Subroutine IBZKPT returns following result:
 ===========================================
 
 Found      4 irreducible k-points:
 
 Following reciprocal coordinates:
            Coordinates               Weight
  0.250000  0.250000  0.250000      2.000000
 -0.250000  0.250000  0.250000      2.000000
  0.250000 -0.250000  0.250000      2.000000
 -0.250000 -0.250000  0.250000      2.000000
 
 Following cartesian coordinates:
            Coordinates               Weight
  0.016206  0.016206  0.016206      2.000000
 -0.016206  0.016206  0.016206      2.000000
  0.016206 -0.016206  0.016206      2.000000
 -0.016206 -0.016206  0.016206      2.000000
 


--------------------------------------------------------------------------------------------------------




 Dimension of arrays:
   k-points           NKPTS =      4   k-points in BZ     NKDIM =      4   number of bands    NBANDS=   1164
   number of dos      NEDOS =   3001   number of ions     NIONS =    257
   non local maximal  LDIM  =      6   non local SUM 2l+1 LMDIM =     18
   total plane-waves  NPLWV = ******
   max r-space proj   IRMAX =   7595   max aug-charges    IRDMAX= 146383
   dimension x,y,z NGX =   120 NGY =  120 NGZ =  120
   dimension x,y,z NGXF=   240 NGYF=  240 NGZF=  240
   support grid    NGXF=   480 NGYF=  480 NGZF=  480
   ions per type =               1  64  64 128
   NGX,Y,Z   is equivalent  to a cutoff of  12.93, 12.93, 12.93 a.u.
   NGXF,Y,Z  is equivalent  to a cutoff of  25.86, 25.86, 25.86 a.u.

 SYSTEM =  LTO                                     
 POSCAR =  config 13                               

 Startparameter for this run:
   NWRITE =      2    write-flag & timer
   PREC   = accura    normal or accurate (medium, high low for compatibility)
   ISTART =      1    job   : 0-new  1-cont  2-samecut
   ICHARG =      0    charge: 1-file 2-atom 10-const
   ISPIN  =      2    spin polarized calculation?
   LNONCOLLINEAR =      F non collinear calculations
   LSORBIT =      F    spin-orbit coupling
   INIWAV =      1    electr: 0-lowe 1-rand  2-diag
   LASPH  =      T    aspherical Exc in radial PAW
   METAGGA=      F    non-selfconsistent MetaGGA calc.

 Electronic Relaxation 1
   ENCUT  =  500.0 eV  36.75 Ry    6.06 a.u.  28.13 28.13 28.13*2*pi/ulx,y,z
   ENINI  =  500.0     initial cutoff
   ENAUG  =  628.9 eV  augmentation charge cutoff
   NELM   =     60;   NELMIN=  2; NELMDL=  0     # of ELM steps 
   EDIFF  = 0.1E-05   stopping-criterion for ELM
   LREAL  =      T    real-space projection
   NLSPLINE    = F    spline interpolate recip. space projectors
   LCOMPAT=      F    compatible to vasp.4.4
   GGA_COMPAT  = T    GGA compatible to vasp.4.4-vasp.4.6
   LMAXPAW     = -100 max onsite density
   LMAXMIX     =    4 max onsite mixed and CHGCAR
   VOSKOWN=      0    Vosko Wilk Nusair interpolation
   ROPT   =   -0.00010  -0.00010  -0.00010  -0.00010
 Ionic relaxation
   EDIFFG = -.5E-01   stopping-criterion for IOM
   NSW    =    100    number of steps for IOM
   NBLOCK =      1;   KBLOCK =    100    inner block; outer block 
   IBRION =      1    ionic relax: 0-MD 1-quasi-New 2-CG
   NFREE  =      0    steps in history (QN), initial steepest desc. (CG)
   ISIF   =      2    stress and relaxation
   IWAVPR =     11    prediction:  0-non 1-charg 2-wave 3-comb
   ISYM   =      0    0-nonsym 1-usesym 2-fastsym
   LCORR  =      T    Harris-Foulkes like correction to forces

   POTIM  = 0.5000    time-step for ionic-motion
   TEIN   =    0.0    initial temperature
   TEBEG  =    0.0;   TEEND  =   0.0 temperature during run
   SMASS  =  -3.00    Nose mass-parameter (am)
   estimated Nose-frequenzy (Omega)   =  0.10E-29 period in steps =****** mass=  -0.544E-26a.u.
   SCALEE = 1.0000    scale energy and forces
   NPACO  =    256;   APACO  = 16.0  distance and # of slots for P.C.
   PSTRESS=    0.0 pullay stress

  Mass of Ions in am
   POMASS =   7.01 47.88 16.00 19.00
  Ionic Valenz
   ZVAL   =   3.00 10.00  6.00  7.00
  Atomic Wigner-Seitz radii
   RWIGS  =  -1.00 -1.00 -1.00 -1.00
  virtual crystal weights 
   VCA    =   1.00  1.00  1.00  1.00
   NELECT =    1923.0000    total number of electrons
   NUPDOWN=       1.0000    fix difference up-down

 DOS related values:
   EMIN   =  10.00;   EMAX   =-10.00  energy-range for DOS
   EFERMI =   0.00
   ISMEAR =     0;   SIGMA  =   0.01  broadening in eV -4-tet -1-fermi 0-gaus

 Electronic relaxation 2 (details)
   IALGO  =     38    algorithm
   LDIAG  =      T    sub-space diagonalisation (order eigenvalues)
   LSUBROT=      F    optimize rotation matrix (better conditioning)
   TURBO    =      0    0=normal 1=particle mesh
   IRESTART =      0    0=no restart 2=restart with 2 vectors
   NREBOOT  =      0    no. of reboots
   NMIN     =      0    reboot dimension
   EREF     =   0.00    reference energy to select bands
   IMIX   =      4    mixing-type and parameters
     AMIX     =   0.40;   BMIX     =  1.00
     AMIX_MAG =   1.60;   BMIX_MAG =  1.00
     AMIN     =   0.10
     WC   =   100.;   INIMIX=   1;  MIXPRE=   1;  MAXMIX= -45

 Intra band minimization:
   WEIMIN = 0.0010     energy-eigenvalue tresh-hold
   EBREAK =  0.21E-09  absolut break condition
   DEPER  =   0.30     relativ break condition  

   TIME   =   0.40     timestep for ELM

  volume/ion in A,a.u.               =      14.28        96.39
  Fermi-wavevector in a.u.,A,eV,Ry     =   1.319690  2.493853 23.695660  1.741582
  Thomas-Fermi vector in A             =   2.449570
 
 Write flags
   LWAVE        =      T    write WAVECAR
   LDOWNSAMPLE  =      F    k-point downsampling of WAVECAR
   LCHARG       =      T    write CHGCAR
   LVTOT        =      F    write LOCPOT, total local potential
   LVHAR        =      F    write LOCPOT, Hartree potential only
   LELF         =      F    write electronic localiz. function (ELF)
   LORBIT       =     11    0 simple, 1 ext, 2 COOP (PROOUT), +10 PAW based schemes


 Dipole corrections
   LMONO  =      F    monopole corrections only (constant potential shift)
   LDIPOL =      F    correct potential (dipole corrections)
   IDIPOL =      0    1-x, 2-y, 3-z, 4-all directions 
   EPSILON=  1.0000000 bulk dielectric constant

 LDA+U is selected, type is set to LDAUTYPE =  2
   angular momentum for each species LDAUL =    -1    2   -1   -1
   U (eV)           for each species LDAUU =   0.0  4.2  0.0  0.0
   J (eV)           for each species LDAUJ =   0.0  0.0  0.0  0.0
 Exchange correlation treatment:
   GGA     =    PS    GGA type
   LEXCH   =    14    internal setting for exchange type
   VOSKOWN=      0    Vosko Wilk Nusair interpolation
   LHFCALC =     F    Hartree Fock is set to
   LHFONE  =     F    Hartree Fock one center treatment
   AEXX    =    0.0000 exact exchange contribution

 Linear response parameters
   LEPSILON=     F    determine dielectric tensor
   LRPA    =     F    only Hartree local field effects (RPA)
   LNABLA  =     F    use nabla operator in PAW spheres
   LVEL    =     F    velocity operator in full k-point grid
   LINTERFAST=   F  fast interpolation
   KINTER  =     0    interpolate to denser k-point grid
   CSHIFT  =0.1000    complex shift for real part using Kramers Kronig
   OMEGAMAX=  -1.0    maximum frequency
   DEG_THRESHOLD= 0.2000000E-02 threshold for treating states as degnerate
   RTIME   =   -0.100 relaxation time in fs
  (WPLASMAI=    0.000 imaginary part of plasma frequency in eV, 0.658/RTIME)
   DFIELD  = 0.0000000 0.0000000 0.0000000 field for delta impulse in time
 
 Orbital magnetization related:
   ORBITALMAG=     F  switch on orbital magnetization
   LCHIMAG   =     F  perturbation theory with respect to B field
   DQ        =  0.001000  dq finite difference perturbation B field
   LLRAUG    =     F  two centre corrections for induced B field



--------------------------------------------------------------------------------------------------------


 quasi-Newton-method for relaxation of ions
 charge density and potential will be updated during run
 spin polarized calculation
 Variant of blocked Davidson
 Davidson routine will perform the subspace rotation
 perform sub-space diagonalisation
    after iterative eigenvector-optimisation
 modified Broyden-mixing scheme, WC =      100.0
 initial mixing is a Kerker type mixing with AMIX =  0.4000 and BMIX =      1.0000
 Hartree-type preconditioning will be used
 using additional bands          202
 real space projection scheme for non local part
 use partial core corrections
 calculate Harris-corrections to forces 
   (improved forces if not selfconsistent)
 use gradient corrections 
 use of overlap-Matrix (Vanderbilt PP)
 Gauss-broadening in eV      SIGMA  =   0.01


--------------------------------------------------------------------------------------------------------


  energy-cutoff  :      500.00
  volume of cell :     3671.03
      direct lattice vectors                 reciprocal lattice vectors
    15.426331000  0.000000000  0.000000000     0.064824228  0.000000000  0.000000000
     0.000000000 15.426331000  0.000000000     0.000000000  0.064824228  0.000000000
     0.000000000  0.000000000 15.426331000     0.000000000  0.000000000  0.064824228

  length of vectors
    15.426331000 15.426331000 15.426331000     0.064824228  0.064824228  0.064824228


 
 old parameters found on file WAVECAR:
  energy-cutoff  :      500.00
  volume of cell :     3671.03
      direct lattice vectors                 reciprocal lattice vectors
    15.426331000  0.000000000  0.000000000     0.064824228  0.000000000  0.000000000
     0.000000000 15.426331000  0.000000000     0.000000000  0.064824228  0.000000000
     0.000000000  0.000000000 15.426331000     0.000000000  0.000000000  0.064824228

  length of vectors

 
 k-points in units of 2pi/SCALE and weight: Title                                   
   0.01620606  0.01620606  0.01620606       0.250
  -0.01620606  0.01620606  0.01620606       0.250
   0.01620606 -0.01620606  0.01620606       0.250
  -0.01620606 -0.01620606  0.01620606       0.250
 
 k-points in reciprocal lattice and weights: Title                                   
   0.25000000  0.25000000  0.25000000       0.250
  -0.25000000  0.25000000  0.25000000       0.250
   0.25000000 -0.25000000  0.25000000       0.250
  -0.25000000 -0.25000000  0.25000000       0.250
 
 position of ions in fractional coordinates (direct lattice) 
   0.08130742  0.85907001  0.13733260
   0.99726926  0.99355105  0.99499187
   0.99825606  0.98969063  0.49602452
   0.00745967  0.49547440  0.99794062
   0.99391282  0.50422350  0.50742212
   0.49653194  0.99307495  0.00038627
   0.50127798  0.00898250  0.49851054
   0.50560054  0.49535824  0.99618661
   0.49157989  0.49932481  0.49526545
   0.00668802  0.00246062  0.25778205
   0.00296544  0.00662104  0.75824008
   0.99190406  0.49520095  0.25140731
   0.99350996  0.50053651  0.74145341
   0.50714566  0.00811142  0.25064621
   0.49374404  0.00551199  0.75312866
   0.49233859  0.49768413  0.25715002
   0.50160179  0.50342436  0.75876612
   0.99710511  0.25825060  0.00291762
   0.99774921  0.24886885  0.49097152
   0.99764242  0.75592351  0.00810457
   0.99502670  0.75560775  0.50995578
   0.49694032  0.25872125  0.00254827
   0.50900294  0.24576587  0.49758803
   0.50839471  0.75594047  0.99966907
   0.50524328  0.75318629  0.50860576
   0.99738582  0.25990236  0.25456460
   0.00760208  0.24274126  0.74920712
   0.99979673  0.74544370  0.24950850
   0.99225431  0.74974676  0.74539808
   0.50958656  0.24298951  0.25237405
   0.50804239  0.24343272  0.75164110
   0.50402753  0.75288285  0.25099921
   0.50195422  0.74125515  0.74341062
   0.25877365  0.99778964  0.00468137
   0.25148467  0.99283113  0.50555557
   0.24521163  0.50881344  0.99687883
   0.25463587  0.49411685  0.50601463
   0.75827181  0.99941407  0.99404444
   0.74887616  0.00781305  0.49484204
   0.74256719  0.50119428  0.00462245
   0.75524352  0.49809222  0.50558943
   0.24504240  0.00090236  0.24286811
   0.25930236  0.99819061  0.74348746
   0.25601633  0.49466310  0.25103420
   0.24707547  0.50563225  0.74004094
   0.74365953  0.99886415  0.25568741
   0.74816591  0.00750130  0.75600614
   0.75498833  0.49969259  0.24215686
   0.75800433  0.49816165  0.74223947
   0.25846124  0.25277089  0.00658916
   0.25351910  0.25655608  0.50493051
   0.25361464  0.74212547  0.99143964
   0.25059509  0.75479327  0.49032630
   0.75821314  0.25234886  0.00820126
   0.74164450  0.24282220  0.49738389
   0.74112431  0.74834586  0.99461601
   0.73968255  0.75277482  0.49447861
   0.25228770  0.25891568  0.24361719
   0.24451799  0.25214683  0.74383816
   0.23943399  0.75091090  0.25248639
   0.24752092  0.74146971  0.75431260
   0.74149114  0.25266722  0.24258056
   0.74504257  0.24268767  0.75125727
   0.74145786  0.74915728  0.25666488
   0.75691966  0.74992003  0.75726826
   0.01142359  0.51143851  0.62464274
   0.00040000  0.99371745  0.37682815
   0.00569125  0.99089447  0.87381433
   0.49564847  0.48838563  0.37523907
   0.49263986  0.49114696  0.87470596
   0.99836574  0.74186830  0.12347002
   0.99778875  0.73595353  0.62613682
   0.49646865  0.74450869  0.62404954
   0.98670051  0.25666683  0.37665062
   0.25931206  0.99897159  0.12473455
   0.26152241  0.00307700  0.62470957
   0.23672778  0.49192020  0.62499276
   0.74818565  0.48861693  0.12507294
   0.74432493  0.48906645  0.62430979
   0.74570154  0.00289865  0.37623488
   0.74336526  0.00465982  0.87396266
   0.24094545  0.25321948  0.12546827
   0.24693884  0.25179192  0.62474870
   0.73713706  0.26331975  0.12643089
   0.24435779  0.74507887  0.37397103
   0.24847544  0.75052274  0.87349008
   0.74540200  0.74733583  0.37472301
   0.74492287  0.74637833  0.87563232
   0.12541265  0.51222355  0.99144932
   0.62670365  0.51448983  0.99564707
   0.12520135  0.98621900  0.24361080
   0.62477273  0.98866219  0.24552768
   0.62424303  0.26423676  0.48694214
   0.62459713  0.73298046  0.00602684
   0.62307436  0.76941326  0.50096638
   0.12539400  0.25482404  0.75524434
   0.12777754  0.77364965  0.23668323
   0.62543014  0.26097194  0.26738168
   0.62672831  0.25594748  0.75506902
   0.62027128  0.76440477  0.24660997
   0.37772530  0.99017812  0.98936626
   0.37533621  0.51114156  0.50676316
   0.87442487  0.98903871  0.99650730
   0.87480124  0.51108471  0.50299979
   0.37715994  0.99977852  0.76238468
   0.37402944  0.50934255  0.24567560
   0.87446201  0.51194032  0.24923418
   0.87595719  0.51159742  0.74298176
   0.37738055  0.25667362  0.01079953
   0.87535976  0.25835998  0.01151433
   0.87468720  0.74084676  0.75362235
   0.51730918  0.12264488  0.48753972
   0.00062175  0.12568358  0.75589753
   0.51035220  0.12509244  0.26821214
   0.50534857  0.12416733  0.75661985
   0.50525733  0.62495642  0.75620918
   0.01018881  0.37555682  0.01118930
   0.01885172  0.87549048  0.01779135
   0.98242238  0.87450833  0.51080866
   0.51225994  0.37427346  0.01239016
   0.51348972  0.87502421  0.01167482
   0.99113582  0.37413884  0.23841411
   0.26523240  0.62524141  0.00280616
   0.73221195  0.12527667  0.50755293
   0.24435650  0.62431316  0.74636650
   0.74864300  0.12520705  0.73962604
   0.26042739  0.37292726  0.49149188
   0.26229986  0.87600735  0.49726768
   0.25761394  0.37555093  0.25786052
   0.99826882  0.01150543  0.12696205
   0.99904549  0.00784682  0.62430413
   0.00347767  0.51612582  0.12520234
   0.49027137  0.01527820  0.12656516
   0.49113666  0.00675516  0.62266859
   0.50543231  0.51285475  0.12724863
   0.51123000  0.50562661  0.62400899
   0.99679547  0.48332443  0.37689145
   0.99285336  0.48896780  0.87308964
   0.50787631  0.98133305  0.37662607
   0.52046799  0.99046039  0.87534809
   0.01354445  0.23773071  0.12775839
   0.00663986  0.24649264  0.62185190
   0.51696007  0.23292150  0.12725304
   0.50731702  0.23927953  0.62259619
   0.49110495  0.73870971  0.12615353
   0.99043305  0.26030898  0.87500618
   0.99670053  0.76093371  0.37818091
   0.00419150  0.76133349  0.87438486
   0.48332799  0.26581543  0.37551708
   0.49394708  0.26110667  0.87509521
   0.49586943  0.76343021  0.37517851
   0.50439674  0.76007477  0.87376576
   0.24205914  0.49250386  0.12386538
   0.75422597  0.99612795  0.12673084
   0.75286648  0.99141374  0.62290391
   0.24544456  0.00347326  0.37486263
   0.24029390  0.99556093  0.87436084
   0.25004969  0.51447085  0.37481982
   0.26307674  0.50075536  0.87290724
   0.74774051  0.50929019  0.37479790
   0.75651274  0.51026555  0.87409437
   0.25892105  0.75798323  0.12218734
   0.25276038  0.75288364  0.62426130
   0.74468934  0.26474913  0.62280928
   0.75352149  0.75373538  0.12553089
   0.75140602  0.75317544  0.62454760
   0.26050845  0.24073901  0.37390234
   0.25889963  0.24960008  0.87538513
   0.76610769  0.23810559  0.37418790
   0.76034686  0.23950749  0.87644797
   0.12767979  0.01181232  0.00679740
   0.12441921  0.98869246  0.50556592
   0.12270471  0.49093961  0.48903188
   0.62616175  0.01159252  0.01151804
   0.62323696  0.97825945  0.50774785
   0.62525780  0.48533315  0.49525332
   0.12773517  0.99740221  0.74174766
   0.12399260  0.49067571  0.25211697
   0.12392252  0.49000291  0.76472813
   0.62435602  0.99300895  0.73611286
   0.62467030  0.48590135  0.25251267
   0.62730174  0.48935302  0.75858923
   0.12560820  0.24170085  0.98983243
   0.12327155  0.25829258  0.49019934
   0.12629121  0.73576839  0.00357963
   0.12232869  0.76254508  0.50251821
   0.62759281  0.24014281  0.98897504
   0.12428373  0.25456935  0.26371804
   0.12319443  0.75727043  0.74699122
   0.62641888  0.75771660  0.74511157
   0.37763700  0.01750751  0.48760553
   0.37442429  0.48777913  0.00990886
   0.87424695  0.01962837  0.50205908
   0.87578129  0.49016844  0.00221485
   0.37764610  0.00990129  0.26116990
   0.37541706  0.50241109  0.73686388
   0.87379112  0.01191486  0.25177755
   0.87500007  0.99719164  0.74863170
   0.37921193  0.23265623  0.50541949
   0.37744593  0.76695411  0.99474217
   0.37626402  0.73543033  0.49529257
   0.87380658  0.23721612  0.51141664
   0.87221220  0.76770445  0.99593446
   0.87110417  0.73302971  0.50007615
   0.37871175  0.24176419  0.23903260
   0.37739576  0.24645173  0.74508045
   0.37692033  0.73794804  0.25186822
   0.37547360  0.75130007  0.75269619
   0.87345566  0.23929542  0.23804987
   0.87523613  0.25105223  0.74103672
   0.86672678  0.72910897  0.25152807
   0.99443479  0.12644016  0.99358574
   0.01057044  0.12523189  0.49732341
   0.98615914  0.62587058  0.98694250
   0.01075058  0.62680757  0.48401413
   0.49656899  0.12428250  0.99003848
   0.48354587  0.62755110  0.99286038
   0.51494594  0.62677256  0.48915998
   0.00764455  0.12777183  0.25777899
   0.01601097  0.61794142  0.27016494
   0.01352879  0.62471313  0.76578564
   0.51231503  0.62656610  0.26229902
   0.98998923  0.37370769  0.51062759
   0.48561958  0.37103374  0.51246448
   0.48009266  0.87894584  0.50720299
   0.99344196  0.37506374  0.74068443
   0.98618019  0.87939693  0.23306193
   0.99656307  0.87523254  0.73771471
   0.49060449  0.37164621  0.23527369
   0.49483847  0.37323992  0.73767031
   0.48430973  0.87682891  0.23796024
   0.50007263  0.87572173  0.74414277
   0.25812320  0.12483275  0.99589102
   0.23842943  0.12432268  0.49835546
   0.23718215  0.62638211  0.50696151
   0.75792161  0.12572394  0.01036756
   0.77020347  0.62592555  0.00835365
   0.73282784  0.62536302  0.50635679
   0.24387636  0.12612275  0.24940386
   0.24878382  0.12472323  0.75599341
   0.23572195  0.62465427  0.23783521
   0.74059509  0.12569960  0.24279784
   0.72834131  0.62408692  0.24192904
   0.73609631  0.62463544  0.74226735
   0.24085102  0.37648154  0.99384354
   0.23408821  0.87393505  0.00192259
   0.73958505  0.37514148  0.98348888
   0.76462853  0.37204328  0.48663688
   0.73269878  0.87484913  0.00109016
   0.76829728  0.87649823  0.49792630
   0.25877930  0.37601957  0.75783469
   0.27043235  0.87684507  0.25406897
   0.25044119  0.87370840  0.74637492
   0.76447010  0.37418351  0.26656027
   0.76006746  0.37410027  0.76247132
   0.76625464  0.87416620  0.25099966
   0.75396663  0.87528257  0.75062997
 
 position of ions in cartesian coordinates  (Angst):
   1.25427512 13.25229825  2.11853822
  15.38420568 15.32684742 15.34907395
  15.39942840 15.26729521  7.65183839
   0.11507535  7.64335208 15.39456230
  15.33242812  7.77831866  7.82766155
   7.65966604 15.31950283  0.00595872
   7.73287998  0.13856696  7.69018859
   7.79956123  7.64156022 15.36750444
   7.58327410  7.70274978  7.64012872
   0.10317161  0.03795838  3.97663122
   0.04574580  0.10213840 11.69686247
  15.30144028  7.63913369  3.87829239
  15.32621354  7.72144183 11.43790569
   7.82339686  0.12512938  3.86655134
   7.61665894  0.08502977 11.61801193
   7.59497803  7.67744006  3.96688127
   7.73787530  7.76599084 11.70497735
  15.38167347  3.98385922  0.04500810
  15.39160959  3.83913324  7.57388920
  15.38996219 11.66112632  0.12502383
  15.34961125 11.65625530  7.86674668
   7.66596590  3.99111965  0.03931049
   7.85204783  3.79126564  7.67595761
   7.84266504 11.66138787 15.42122594
   7.79405014 11.61890108  7.84592083
  15.38600374  4.00933979  3.92699772
   0.11727219  3.74460707 11.55751707
  15.42319531 11.49946120  3.84900064
  15.30684341 11.56584173 11.49875755
   7.86105100  3.74843653  3.89320564
   7.83723005  3.75527375 11.59506440
   7.77529544 11.61422002  3.87199695
   7.74331193 11.43484732 11.46809830
   3.99192802 15.39223329  0.07221642
   3.87948581 15.31574163  7.79886763
   3.78271576  7.84912454 15.37818276
   3.92809726  7.62241005  7.80594925
  11.69735200 15.41729220 15.33445859
  11.55241146  0.12052668  7.63359717
  11.45508719  7.73158892  0.07130742
  11.65063646  7.68373552  7.79938989
   3.78010515  0.01392013  3.74656384
   4.00008396 15.39841878 11.46928362
   3.94939261  7.63083673  3.87253666
   3.81146806  7.80005045 11.41611650
  11.47193808 15.40880896  3.94431867
  11.54145500  0.11571758 11.66240088
  11.64669988  7.70842327  3.73559192
  11.69322563  7.68480651 11.45003178
   3.98710866  3.89932747  0.10164650
   3.91086952  3.95771894  7.78922521
   3.91234346 11.44827314 15.29427604
   3.86576277 11.64369078  7.56393583
  11.69644680  3.89281709  0.12651531
  11.44085352  3.74585561  7.67280859
  11.43282884 11.54423101 15.34327586
  11.41058792 11.61255359  7.62799076
   3.89187352  3.99411901  3.75811943
   3.77201549  3.88970044 11.47469362
   3.69358799 11.58380013  3.89493860
   3.81833960 11.43815711 11.63627577
  11.43848780  3.89772815  3.74212799
  11.49327332  3.74378038 11.58914324
  11.43797436 11.55674811  3.95939746
  11.67649321 11.56851458 11.68187089
   0.17622404  7.88961972  9.63594564
   0.00617060 15.32941424  5.81307571
   0.08779504 15.28586603 13.47974913
   7.64603741  7.53399836  5.78856205
   7.59962554  7.57659550 13.49350373
  15.40112034 11.44430596  1.90468939
  15.39221954 11.35306273  9.65899380
   7.65868967 11.48503753  9.62679483
  15.22116872  3.95942749  5.81033716
   4.00023374 15.41046638  1.92419639
   4.03433126  0.04746676  9.63697668
   3.65184104  7.58852389  9.64134524
  11.54175946  7.53756648  1.92941654
  11.48220278  7.54450095  9.63080951
  11.50343882  0.04471558  5.80392378
  11.46739853  0.07188389 13.48203728
   3.71690427  3.90624744  1.93551502
   3.80936030  3.88422557  9.63758019
  11.37132021  4.06205768  1.95036471
   3.76954413 11.49383326  5.76900086
   3.83306434 11.57781220 13.47474706
  11.49881803 11.52864993  5.78060114
  11.49142673 11.51387912 13.50779398
   1.93465704  7.90173001 15.29442545
   9.66773800  7.93669040 15.35918128
   1.93139754 15.21374081  3.75802077
   9.63795096 15.25143021  3.78759123
   9.62977954  4.07620367  7.51173057
   9.63524199 11.30719912  0.09297207
   9.61175137 11.86922368  7.72807320
   1.93436942  3.93100005 11.65064917
   1.97113870 11.93457560  3.65115384
   9.64809229  4.02583946  4.12471834
   9.66811833  3.94833059 11.64794465
   9.56851003 11.79196097  3.80428695
   5.82691555 15.27481550 15.26229147
   5.79006068  7.88503885  7.81749617
  13.48916745 15.25723859 15.37245146
  13.49497356  7.88416186  7.75944120
   5.81819400 15.42291440 11.76079838
   5.76990194  7.85728672  3.78987318
  13.48974048  7.89736082  3.84476889
  13.51280556  7.89207111 11.46148256
   5.82159735  3.95953216  0.16659708
  13.50358945  3.98554658  0.17762393
  13.49321434 11.42854736 11.62562789
   7.98018264  1.89196053  7.52094910
   0.00959130  1.93883656 11.66072548
   7.87286194  1.92971740  4.13752927
   7.79567432  1.91544639 11.67186827
   7.79426677  9.64078466 11.66553315
   0.15717596  5.79346387  0.17260982
   0.29081282 13.50560598  0.27445527
  15.15517282 13.49045503  7.87990339
   7.90229134  5.77366629  0.19113478
   7.92126237 13.49841311  0.18009958
  15.28958924  5.77158958  3.67785504
   4.09156281  9.64518098  0.04328879
  11.29534394  1.93255936  7.82967948
   3.76952433  9.63086146 11.51369674
  11.54881469  1.93148535 11.40971614
   4.01743916  5.75289933  7.58191650
   4.04632453 13.51357940  7.67101587
   3.97403784  5.79337289  3.97784168
  15.39962529  0.17748660  1.95855853
  15.41160634  0.12104760  9.63072218
   0.05364763  7.96192773  1.93141277
   7.56308844  0.23568654  1.95243611
   7.57643662  0.10420739  9.60549183
   7.79696608  7.91146710  1.96297954
   7.88640323  7.79996350  9.62616917
  15.37689688  7.45592259  5.81405233
  15.31608464  7.54297905 13.46856977
   7.83466801 15.13836851  5.80995837
   8.02891152 15.27916987 13.50340945
   0.20894113  3.66731264  1.97084317
   0.10242873  3.80247701  9.59289325
   7.97479711  3.59312409  1.96304753
   7.82604030  3.69120525  9.60437492
   7.57594745 11.39558050  1.94608608
  15.27874809  4.01561243 13.49813502
  15.37543233 11.73841534  5.83394383
   0.06465939 11.74458246 13.48855029
   7.45597751  4.10055680  5.79285083
   7.61979112  4.02791793 13.49950834
   7.64944594 11.77692719  5.78762790
   7.78099106 11.72516502 13.47899986
   3.73408435  7.59752759  1.91078829
  11.63493950 15.36659944  1.95499184
  11.61396758 15.29387654  9.60912188
   3.78630899  0.05357973  5.78275501
   3.70685328 15.35785244 13.48817967
   3.85734935  7.93639756  5.78209466
   4.05830891  7.72481798 13.46575606
  11.53489258  7.85647912  5.78175647
  11.67021594  7.87152526 13.48406913
   3.99420182 11.69290016  1.88490229
   3.89916529 11.61423216  9.63006140
  11.48782431  4.08410772  9.60766203
  11.62407187 11.62737153  1.93648109
  11.59143795 11.61873359  9.63447795
   4.01868952  3.71371970  5.76794133
   3.99387133  3.85041338 13.50398077
  11.81823082  3.67309568  5.77234637
  11.72936239  3.69472180 13.52037656
   1.96963063  0.18222071  0.10485898
   1.91933188 15.25189720  7.79902715
   1.89288352  7.57339686  7.54396765
   9.65937837  0.17883001  0.17768105
   9.61425961 15.09095410  7.83268642
   9.64543385  7.48690985  7.63994160
   1.97048498 15.38625666 11.44244493
   1.91275092  7.56932593  3.88923985
   1.91166985  7.55894707 11.79694920
   9.63152266 15.31848470 11.35552066
   9.63637076  7.49567505  3.89534399
   9.67696434  7.54892167 11.70224858
   1.93767366  3.72855733 15.26948274
   1.90162772  3.98450690  7.56197728
   1.94821008 11.35020668  0.05522060
   1.88708280 11.76327282  7.75201223
   9.68145446  3.70452252 15.25625628
   1.91724192  3.92707106  4.06820170
   1.90043805 11.68190424 11.52333382
   9.66334495 11.68878709 11.49433771
   5.82555343  0.27007668  7.52196423
   5.77599306  7.52464232  0.15285739
  13.48642276  0.30279380  7.74492948
  13.51009208  7.56150066  0.03416696
   5.82569374  0.15274062  4.02889336
   5.79130781  7.75035978 11.36710609
  13.47939097  0.18380251  3.88400379
  13.49804065 15.38300825 11.54864047
   5.84984871  3.58903195  7.79676834
   5.82260583 11.83128790 15.34522193
   5.80437334 11.34499166  7.64054715
  13.47962950  3.65937439  7.88928231
  13.45503403 11.84286301 15.36361461
  13.43794124 11.30795889  7.71434029
   5.84213278  3.72953444  3.68739608
   5.82183199  3.80184593 11.49385759
   5.81449777 11.38383078  3.88540257
   5.79218003 11.58980349 11.61134056
  13.47421620  3.69145031  3.67223606
  13.50168225  3.87281483 11.43147765
  13.37041414 11.24747630  3.88015532
  15.34048026  1.95050774 15.32738254
   0.16306314  1.93186853  7.67187561
  15.21281732  9.65488672 15.22490167
   0.16584201  9.66934102  7.46656223
   7.66023767  1.91722301 15.27266125
   7.45933859  9.68081093 15.31619279
   7.94372657  9.66880092  7.54594381
   0.11792743  1.97105050  3.97658405
   0.24699048  9.53256892  4.16765374
   0.20869966  9.63703147 11.81326282
   7.90314128  9.66561599  4.04631148
  15.27190158  5.76493845  7.87711020
   7.49132839  5.72368928  7.90544670
   7.40606830 13.55890950  7.82428127
  15.32516456  5.78585744 11.42604324
  15.21314210 13.56586814  3.59529046
  15.37331172 13.50162682 11.38023136
   7.56822728  5.73313744  3.62940984
   7.63354206  5.75772259 11.37954639
   7.47112227 13.52625298  3.67085348
   7.71428594 13.50917320 11.47939272
   3.98189390  1.92571134 15.36294457
   3.67809129  1.91784275  7.68779633
   3.65885040  9.66277783  7.82055607
  11.69194964  1.93945908  0.15993341
  11.88141373  9.65573478  0.12886619
  11.30484478  9.64705688  7.81122741
   3.76211741  1.94561132  3.84738643
   3.83782157  1.92402181 11.66220459
   3.63632482  9.63612354  3.66892461
  11.42466493  1.93908368  3.74547977
  11.23563407  9.62737133  3.73207739
  11.35526527  9.63583310 11.45046184
   3.71544753  5.80772878 15.33135937
   3.61112228 13.48161140  0.02965854
  11.40908385  5.78705657 15.17162506
  11.79541285  5.73926272  7.50702159
  11.30285385 13.49571224  0.01681722
  11.85200819 13.52115184  7.68117584
   3.99201512  5.80060234 11.69060884
   4.17177889 13.52650230  3.91935209
   3.86338867 13.47811492 11.51382655
  11.79296886  5.77227867  4.11204696
  11.72505224  5.77099453 11.76213493
  11.82049769 13.48517714  3.87200390
  11.63093881 13.50239860 11.57946640
 


--------------------------------------------------------------------------------------------------------


 k-point  1 :   0.2500 0.2500 0.2500  plane waves:   93161
 k-point  2 :  -0.2500 0.2500 0.2500  plane waves:   93161
 k-point  3 :   0.2500-0.2500 0.2500  plane waves:   93161
 k-point  4 :  -0.2500-0.2500 0.2500  plane waves:   93161

 maximum and minimum number of plane-waves per node :     11686    11606

 maximum number of plane-waves:     93161
 maximum index in each direction: 
   IXMAX=   28   IYMAX=   28   IZMAX=   27
   IXMIN=  -28   IYMIN=  -28   IZMIN=  -28


 real space projection operators:
  total allocation   :     105603.44 KBytes
  max/ min on nodes  :      13253.10      13150.19


 parallel 3D FFT for wavefunctions:
    minimum data exchange during FFTs selected (reduces bandwidth)
 parallel 3D FFT for charge:
    minimum data exchange during FFTs selected (reduces bandwidth)


 total amount of memory used by VASP MPI-rank0   291489. kBytes
=======================================================================

   base      :      30000. kBytes
   nonlr-proj:      49454. kBytes
   fftplans  :      27976. kBytes
   grid      :      34041. kBytes
   one-center:       1026. kBytes
   wavefun   :     148992. kBytes
 
     INWAV:  cpu time   51.3355: real time   51.5284
 Broyden mixing: mesh for mixing (old mesh)
   NGX = 57   NGY = 57   NGZ = 57
  (NGX  =240   NGY  =240   NGZ  =240)
  gives a total of 185193 points

 charge density for first step will be calculated from the start-wavefunctions


--------------------------------------------------------------------------------------------------------


 Maximum index for non-local projection operator          969
 Maximum index for augmentation-charges         3292 (set IRDMAX)


--------------------------------------------------------------------------------------------------------


 initial charge from wavefunction
 First call to EWALD:  gamma=   0.115
 Maximum number of real-space cells 3x 3x 3
 Maximum number of reciprocal cells 3x 3x 3

    FEWALD:  cpu time    0.0160: real time    0.0160


--------------------------------------- Iteration      1(   1)  ---------------------------------------


    POTLOK:  cpu time    0.2722: real time    0.2840
    SETDIJ:  cpu time    1.3672: real time    1.3682
     EDDAV:  cpu time  130.3755: real time  131.4508
       DOS:  cpu time    0.0032: real time    0.0032
    CHARGE:  cpu time    5.2885: real time    5.2913
    MIXING:  cpu time    0.0084: real time    0.0086
    --------------------------------------------
      LOOP:  cpu time  137.3151: real time  138.4063

 eigenvalue-minimisations  : 23496
 total energy-change (2. order) :-0.1845247E+04  (-0.3559257E+03)
 number of electron    1923.0000029 magnetization       1.0000000
 augmentation part      502.1718407 magnetization       1.0080630

 Broyden mixing:
  rms(total) = 0.70525E+01    rms(broyden)= 0.70496E+01
  rms(prec ) = 0.10960E+02
  weight for this iteration     100.00

 Free energy of the ion-electron system (eV)
  ---------------------------------------------------
  alpha Z        PSCENC =      6118.73324990
  Ewald energy   TEWEN  =   -103979.42869709
  -Hartree energ DENC   =    -64676.80545039
  -exchange      EXHF   =         0.00000000
  -V(xc)+E(xc)   XCENC  =      8954.19051221
  PAW double counting   =    196562.24838130  -197554.77759406
  entropy T*S    EENTRO =        -0.00552553
  eigenvalues    EBANDS =    -25846.65430457
  atomic energy  EATOM  =    178577.25249613
  Solvation  Ediel_sol  =         0.00000000
  ---------------------------------------------------
  free energy    TOTEN  =     -1845.24693211 eV

  energy without entropy =    -1845.24140658  energy(sigma->0) =    -1845.24416935


--------------------------------------------------------------------------------------------------------




--------------------------------------- Iteration      1(   2)  ---------------------------------------


    POTLOK:  cpu time    0.2618: real time    0.2641
    SETDIJ:  cpu time    1.3842: real time    1.3852
     EDDAV:  cpu time  143.6836: real time  144.4857
       DOS:  cpu time    0.0027: real time    0.0027
    CHARGE:  cpu time    5.2735: real time    5.3553
    MIXING:  cpu time    0.0486: real time    0.0497
    --------------------------------------------
      LOOP:  cpu time  150.6544: real time  151.5427

 eigenvalue-minimisations  : 27024
 total energy-change (2. order) : 0.2705279E+02  (-0.2481698E+03)
 number of electron    1923.0000029 magnetization       1.0000000
 augmentation part      501.1828069 magnetization       0.3131613

 Broyden mixing:
  rms(total) = 0.70709E+01    rms(broyden)= 0.70672E+01
  rms(prec ) = 0.99158E+01
  weight for this iteration     100.00

 eigenvalues of (default mixing * dielectric matrix)
  average eigenvalue GAMMA=   0.4786
  0.4786

 Free energy of the ion-electron system (eV)
  ---------------------------------------------------
  alpha Z        PSCENC =      6118.73324990
  Ewald energy   TEWEN  =   -103979.42869709
  -Hartree energ DENC   =    -64669.37124854
  -exchange      EXHF   =         0.00000000
  -V(xc)+E(xc)   XCENC  =      8952.75626576
  PAW double counting   =    197897.13126202  -198869.09587507
  entropy T*S    EENTRO =        -0.00081207
  eigenvalues    EBANDS =    -25846.17078244
  atomic energy  EATOM  =    178577.25249613
  Solvation  Ediel_sol  =         0.00000000
  ---------------------------------------------------
  free energy    TOTEN  =     -1818.19414141 eV

  energy without entropy =    -1818.19332934  energy(sigma->0) =    -1818.19373537


--------------------------------------------------------------------------------------------------------




--------------------------------------- Iteration      1(   3)  ---------------------------------------


    POTLOK:  cpu time    0.3475: real time    0.3740
    SETDIJ:  cpu time    1.4253: real time    1.5243
     EDDAV:  cpu time  143.3169: real time  144.1945
       DOS:  cpu time    0.0021: real time    0.0021
    CHARGE:  cpu time    5.3306: real time    5.3345
    MIXING:  cpu time    0.0076: real time    0.0076
    --------------------------------------------
      LOOP:  cpu time  150.4300: real time  151.4370

 eigenvalue-minimisations  : 26568
 total energy-change (2. order) :-0.2423961E+01  (-0.8585009E+02)
 number of electron    1923.0000029 magnetization       1.0000000
 augmentation part      493.5486346 magnetization       0.5846879

 Broyden mixing:
  rms(total) = 0.47974E+01    rms(broyden)= 0.47958E+01
  rms(prec ) = 0.55018E+01
  weight for this iteration     100.00

 eigenvalues of (default mixing * dielectric matrix)
  average eigenvalue GAMMA=   0.4719
  0.4719  0.4719

 Free energy of the ion-electron system (eV)
  ---------------------------------------------------
  alpha Z        PSCENC =      6118.73324990
  Ewald energy   TEWEN  =   -103979.42869709
  -Hartree energ DENC   =    -64718.56956304
  -exchange      EXHF   =         0.00000000
  -V(xc)+E(xc)   XCENC  =      8955.26961457
  PAW double counting   =    197937.15365738  -198908.46114545
  entropy T*S    EENTRO =        -0.00000345
  eigenvalues    EBANDS =    -25802.56771092
  atomic energy  EATOM  =    178577.25249613
  Solvation  Ediel_sol  =         0.00000000
  ---------------------------------------------------
  free energy    TOTEN  =     -1820.61810196 eV

  energy without entropy =    -1820.61809852  energy(sigma->0) =    -1820.61810024


--------------------------------------------------------------------------------------------------------




--------------------------------------- Iteration      1(   4)  ---------------------------------------


    POTLOK:  cpu time    0.2610: real time    0.2634
    SETDIJ:  cpu time    1.3831: real time    1.3839
     EDDAV:  cpu time  139.0936: real time  139.8487
       DOS:  cpu time    0.0017: real time    0.0017
    CHARGE:  cpu time    5.3414: real time    5.3447
    MIXING:  cpu time    0.0078: real time    0.0081
    --------------------------------------------
      LOOP:  cpu time  146.0887: real time  146.8505

 eigenvalue-minimisations  : 25656
 total energy-change (2. order) : 0.3224758E+02  (-0.1703233E+02)
 number of electron    1923.0000029 magnetization       1.0000000
 augmentation part      494.3930287 magnetization       0.5916473

 Broyden mixing:
  rms(total) = 0.33491E+01    rms(broyden)= 0.33486E+01
  rms(prec ) = 0.38856E+01
  weight for this iteration     100.00

 eigenvalues of (default mixing * dielectric matrix)
  average eigenvalue GAMMA=   0.6070
  0.6514  0.6514  0.5183

 Free energy of the ion-electron system (eV)
  ---------------------------------------------------
  alpha Z        PSCENC =      6118.73324990
  Ewald energy   TEWEN  =   -103979.42869709
  -Hartree energ DENC   =    -64712.31373419
  -exchange      EXHF   =         0.00000000
  -V(xc)+E(xc)   XCENC  =      8960.57634194
  PAW double counting   =    198010.17629136  -198993.77904579
  entropy T*S    EENTRO =        -0.00000000
  eigenvalues    EBANDS =    -25769.58742806
  atomic energy  EATOM  =    178577.25249613
  Solvation  Ediel_sol  =         0.00000000
  ---------------------------------------------------
  free energy    TOTEN  =     -1788.37052580 eV

  energy without entropy =    -1788.37052580  energy(sigma->0) =    -1788.37052580


--------------------------------------------------------------------------------------------------------




--------------------------------------- Iteration      1(   5)  ---------------------------------------


    POTLOK:  cpu time    0.2627: real time    0.2629
    SETDIJ:  cpu time    1.3821: real time    1.3829
     EDDAV:  cpu time  145.0997: real time  146.1791
       DOS:  cpu time    0.0018: real time    0.0018
    CHARGE:  cpu time    5.3239: real time    5.3273
    MIXING:  cpu time    0.0091: real time    0.0091
    --------------------------------------------
      LOOP:  cpu time  152.0793: real time  153.1632

 eigenvalue-minimisations  : 26904
 total energy-change (2. order) : 0.2260586E+02  (-0.7608123E+01)
 number of electron    1923.0000029 magnetization       1.0000000
 augmentation part      494.7980440 magnetization       0.6344841

 Broyden mixing:
  rms(total) = 0.19283E+01    rms(broyden)= 0.19277E+01
  rms(prec ) = 0.22106E+01
  weight for this iteration     100.00

 eigenvalues of (default mixing * dielectric matrix)
  average eigenvalue GAMMA=   0.6304
  0.7603  0.7603  0.5005  0.5005

 Free energy of the ion-electron system (eV)
  ---------------------------------------------------
  alpha Z        PSCENC =      6118.73324990
  Ewald energy   TEWEN  =   -103979.42869709
  -Hartree energ DENC   =    -64715.75698928
  -exchange      EXHF   =         0.00000000
  -V(xc)+E(xc)   XCENC  =      8964.25713829
  PAW double counting   =    197538.75846997  -198533.45114531
  entropy T*S    EENTRO =        -0.00000000
  eigenvalues    EBANDS =    -25736.12919195
  atomic energy  EATOM  =    178577.25249613
  Solvation  Ediel_sol  =         0.00000000
  ---------------------------------------------------
  free energy    TOTEN  =     -1765.76466935 eV

  energy without entropy =    -1765.76466935  energy(sigma->0) =    -1765.76466935


--------------------------------------------------------------------------------------------------------




--------------------------------------- Iteration      1(   6)  ---------------------------------------


    POTLOK:  cpu time    0.2628: real time    0.2630
    SETDIJ:  cpu time    1.3789: real time    1.3793
     EDDAV:  cpu time  144.8264: real time  145.9631
       DOS:  cpu time    0.0018: real time    0.0018
    CHARGE:  cpu time    5.3411: real time    5.3446
    MIXING:  cpu time    0.0082: real time    0.0082
    --------------------------------------------
      LOOP:  cpu time  151.8192: real time  152.9601

 eigenvalue-minimisations  : 27012
 total energy-change (2. order) : 0.5344692E+01  (-0.2867512E+01)
 number of electron    1923.0000029 magnetization       1.0000000
 augmentation part      495.7804908 magnetization       0.5891535

 Broyden mixing:
  rms(total) = 0.12504E+01    rms(broyden)= 0.12501E+01
  rms(prec ) = 0.13834E+01
  weight for this iteration     100.00

 eigenvalues of (default mixing * dielectric matrix)
  average eigenvalue GAMMA=   0.7116
  0.9211  0.9211  0.6103  0.6103  0.4953

 Free energy of the ion-electron system (eV)
  ---------------------------------------------------
  alpha Z        PSCENC =      6118.73324990
  Ewald energy   TEWEN  =   -103979.42869709
  -Hartree energ DENC   =    -64688.23674957
  -exchange      EXHF   =         0.00000000
  -V(xc)+E(xc)   XCENC  =      8964.92490421
  PAW double counting   =    197266.17331835  -198265.25060831
  entropy T*S    EENTRO =        -0.00000000
  eigenvalues    EBANDS =    -25754.58789110
  atomic energy  EATOM  =    178577.25249613
  Solvation  Ediel_sol  =         0.00000000
  ---------------------------------------------------
  free energy    TOTEN  =     -1760.41997748 eV

  energy without entropy =    -1760.41997748  energy(sigma->0) =    -1760.41997748


--------------------------------------------------------------------------------------------------------




--------------------------------------- Iteration      1(   7)  ---------------------------------------


    POTLOK:  cpu time    0.2615: real time    0.2637
    SETDIJ:  cpu time    1.4057: real time    1.4062
     EDDAV:  cpu time  146.4430: real time  147.2495
       DOS:  cpu time    0.0019: real time    0.0019
    CHARGE:  cpu time    5.3242: real time    5.3754
    MIXING:  cpu time    0.0297: real time    0.0394
    --------------------------------------------
      LOOP:  cpu time  153.4660: real time  154.3360

 eigenvalue-minimisations  : 27480
 total energy-change (2. order) : 0.2009426E+01  (-0.1007401E+01)
 number of electron    1923.0000029 magnetization       1.0000000
 augmentation part      496.5184132 magnetization       0.5907368

 Broyden mixing:
  rms(total) = 0.95626E+00    rms(broyden)= 0.95594E+00
  rms(prec ) = 0.10113E+01
  weight for this iteration     100.00

 eigenvalues of (default mixing * dielectric matrix)
  average eigenvalue GAMMA=   0.8071
  1.1606  1.1606  0.6925  0.6925  0.5682  0.5682

 Free energy of the ion-electron system (eV)
  ---------------------------------------------------
  alpha Z        PSCENC =      6118.73324990
  Ewald energy   TEWEN  =   -103979.42869709
  -Hartree energ DENC   =    -64668.58528293
  -exchange      EXHF   =         0.00000000
  -V(xc)+E(xc)   XCENC  =      8964.86172490
  PAW double counting   =    196929.16610343  -197931.78048920
  entropy T*S    EENTRO =        -0.00000000
  eigenvalues    EBANDS =    -25768.62965660
  atomic energy  EATOM  =    178577.25249613
  Solvation  Ediel_sol  =         0.00000000
  ---------------------------------------------------
  free energy    TOTEN  =     -1758.41055147 eV

  energy without entropy =    -1758.41055147  energy(sigma->0) =    -1758.41055147


--------------------------------------------------------------------------------------------------------




--------------------------------------- Iteration      1(   8)  ---------------------------------------


    POTLOK:  cpu time    0.3385: real time    0.3633
    SETDIJ:  cpu time    1.4425: real time    1.4793
     EDDAV:  cpu time  144.3407: real time  145.3553
       DOS:  cpu time    0.0019: real time    0.0019
    CHARGE:  cpu time    5.2875: real time    5.2910
    MIXING:  cpu time    0.0083: real time    0.0083
    --------------------------------------------
      LOOP:  cpu time  151.4194: real time  152.4990

 eigenvalue-minimisations  : 26964
 total energy-change (2. order) :-0.5392685E-01  (-0.9772004E+00)
[...]
   81        1.574   3.459   0.000   5.032
   82        1.575   3.458   0.000   5.033
   83        1.574   3.457   0.000   5.031
   84        1.576   3.466   0.000   5.042
   85        1.575   3.461   0.000   5.036
   86        1.575   3.466   0.000   5.041
   87        1.575   3.462   0.000   5.038
   88        1.575   3.464   0.000   5.039
   89        1.574   3.456   0.000   5.030
   90        1.575   3.452   0.000   5.027
   91        1.571   3.458   0.000   5.029
   92        1.575   3.457   0.000   5.032
   93        1.578   3.463   0.000   5.040
   94        1.577   3.466   0.000   5.043
   95        1.576   3.468   0.000   5.044
   96        1.575   3.461   0.000   5.036
   97        1.570   3.461   0.000   5.031
   98        1.576   3.466   0.000   5.043
   99        1.575   3.461   0.000   5.036
  100        1.576   3.456   0.000   5.031
  101        1.574   3.454   0.000   5.028
  102        1.575   3.455   0.000   5.029
  103        1.575   3.454   0.000   5.029
  104        1.574   3.456   0.000   5.030
  105        1.577   3.469   0.000   5.046
  106        1.575   3.459   0.000   5.034
  107        1.575   3.457   0.000   5.032
  108        1.576   3.469   0.000   5.045
  109        1.574   3.458   0.000   5.032
  110        1.575   3.455   0.000   5.030
  111        1.576   3.471   0.000   5.047
  112        1.577   3.455   0.000   5.032
  113        1.576   3.471   0.000   5.046
  114        1.576   3.467   0.000   5.043
  115        1.574   3.462   0.000   5.037
  116        1.575   3.460   0.000   5.035
  117        1.575   3.455   0.000   5.030
  118        1.567   3.473   0.000   5.040
  119        1.576   3.468   0.000   5.044
  120        1.575   3.454   0.000   5.029
  121        1.574   3.456   0.000   5.030
  122        1.577   3.465   0.000   5.043
  123        1.577   3.469   0.000   5.046
  124        1.576   3.463   0.000   5.039
  125        1.576   3.474   0.000   5.049
  126        1.576   3.468   0.000   5.044
  127        1.575   3.454   0.000   5.028
  128        1.574   3.457   0.000   5.031
  129        1.576   3.467   0.000   5.043
  130        1.737   4.368   0.000   6.105
  131        1.737   4.370   0.000   6.106
  132        1.737   4.373   0.000   6.110
  133        1.738   4.381   0.000   6.119
  134        1.738   4.380   0.000   6.118
  135        1.737   4.365   0.000   6.101
  136        1.736   4.363   0.000   6.099
  137        1.738   4.375   0.000   6.113
  138        1.738   4.376   0.000   6.113
  139        1.739   4.381   0.000   6.120
  140        1.739   4.381   0.000   6.120
  141        1.738   4.374   0.000   6.112
  142        1.737   4.377   0.000   6.114
  143        1.738   4.380   0.000   6.117
  144        1.738   4.382   0.000   6.120
  145        1.738   4.378   0.000   6.116
  146        1.737   4.377   0.000   6.114
  147        1.736   4.377   0.000   6.114
  148        1.736   4.366   0.000   6.103
  149        1.739   4.378   0.000   6.117
  150        1.738   4.383   0.000   6.121
  151        1.738   4.374   0.000   6.112
  152        1.737   4.377   0.000   6.114
  153        1.737   4.379   0.000   6.116
  154        1.737   4.370   0.000   6.107
  155        1.737   4.369   0.000   6.106
  156        1.736   4.368   0.000   6.105
  157        1.737   4.365   0.000   6.102
  158        1.738   4.373   0.000   6.111
  159        1.738   4.373   0.000   6.111
  160        1.736   4.365   0.000   6.101
  161        1.736   4.367   0.000   6.103
  162        1.736   4.370   0.000   6.107
  163        1.736   4.366   0.000   6.103
  164        1.737   4.374   0.000   6.111
  165        1.737   4.368   0.000   6.105
  166        1.736   4.368   0.000   6.105
  167        1.737   4.367   0.000   6.103
  168        1.736   4.367   0.000   6.104
  169        1.738   4.370   0.000   6.108
  170        1.737   4.374   0.000   6.111
  171        1.737   4.365   0.000   6.102
  172        1.737   4.384   0.000   6.121
  173        1.737   4.365   0.000   6.102
  174        1.737   4.365   0.000   6.101
  175        1.739   4.375   0.000   6.114
  176        1.736   4.363   0.000   6.099
  177        1.737   4.377   0.000   6.115
  178        1.736   4.367   0.000   6.103
  179        1.738   4.372   0.000   6.110
  180        1.738   4.376   0.000   6.114
  181        1.736   4.365   0.000   6.102
  182        1.737   4.374   0.000   6.112
  183        1.736   4.363   0.000   6.099
  184        1.737   4.375   0.000   6.112
  185        1.737   4.376   0.000   6.112
  186        1.737   4.377   0.000   6.114
  187        1.736   4.364   0.000   6.101
  188        1.737   4.376   0.000   6.113
  189        1.738   4.379   0.000   6.118
  190        1.738   4.380   0.000   6.118
  191        1.739   4.379   0.000   6.118
  192        1.737   4.365   0.000   6.101
  193        1.738   4.382   0.000   6.120
  194        1.736   4.364   0.000   6.100
  195        1.737   4.366   0.000   6.103
  196        1.737   4.378   0.000   6.115
  197        1.736   4.365   0.000   6.102
  198        1.737   4.380   0.000   6.117
  199        1.737   4.374   0.000   6.112
  200        1.738   4.376   0.000   6.114
  201        1.737   4.375   0.000   6.112
  202        1.738   4.372   0.000   6.110
  203        1.737   4.374   0.000   6.111
  204        1.738   4.372   0.000   6.110
  205        1.737   4.374   0.000   6.111
  206        1.736   4.367   0.000   6.103
  207        1.737   4.362   0.000   6.100
  208        1.737   4.381   0.000   6.118
  209        1.737   4.373   0.000   6.110
  210        1.737   4.368   0.000   6.105
  211        1.737   4.371   0.000   6.108
  212        1.736   4.363   0.000   6.099
  213        1.738   4.370   0.000   6.108
  214        1.736   4.363   0.000   6.099
  215        1.738   4.372   0.000   6.110
  216        1.736   4.362   0.000   6.098
  217        1.736   4.361   0.000   6.097
  218        1.736   4.373   0.000   6.109
  219        1.738   4.378   0.000   6.116
  220        1.738   4.380   0.000   6.117
  221        1.738   4.375   0.000   6.113
  222        1.737   4.373   0.000   6.110
  223        1.737   4.376   0.000   6.113
  224        1.738   4.373   0.000   6.111
  225        1.737   4.372   0.000   6.109
  226        1.738   4.375   0.000   6.113
  227        1.737   4.380   0.000   6.116
  228        1.737   4.374   0.000   6.111
  229        1.737   4.372   0.000   6.109
  230        1.737   4.367   0.000   6.103
  231        1.738   4.369   0.000   6.107
  232        1.736   4.367   0.000   6.104
  233        1.737   4.378   0.000   6.116
  234        1.736   4.365   0.000   6.101
  235        1.737   4.365   0.000   6.102
  236        1.738   4.383   0.000   6.121
  237        1.739   4.379   0.000   6.117
  238        1.737   4.374   0.000   6.111
  239        1.738   4.375   0.000   6.113
  240        1.737   4.380   0.000   6.117
  241        1.737   4.373   0.000   6.110
  242        1.737   4.383   0.000   6.120
  243        1.738   4.381   0.000   6.119
  244        1.738   4.377   0.000   6.115
  245        1.738   4.375   0.000   6.113
  246        1.738   4.373   0.000   6.111
  247        1.738   4.379   0.000   6.118
  248        1.737   4.371   0.000   6.109
  249        1.738   4.381   0.000   6.119
  250        1.738   4.371   0.000   6.108
  251        1.738   4.379   0.000   6.117
  252        1.738   4.375   0.000   6.114
  253        1.738   4.378   0.000   6.116
  254        1.739   4.380   0.000   6.119
  255        1.738   4.374   0.000   6.112
  256        1.738   4.379   0.000   6.117
  257        1.738   4.377   0.000   6.115
--------------------------------------------------
tot        345.2421194.026 111.6651650.933
 


 magnetization (x)
 
# of ion       s       p       d       tot
------------------------------------------
    1       -0.000   0.000   0.000  -0.000
    2       -0.000  -0.000  -0.000  -0.000
    3       -0.000  -0.000  -0.000  -0.000
    4       -0.000   0.000   0.000  -0.000
    5       -0.000  -0.000   0.000   0.000
    6       -0.000   0.000   0.000   0.000
    7        0.000   0.000   0.000   0.000
    8       -0.000   0.000   0.000   0.000
    9       -0.000  -0.000  -0.000  -0.000
   10       -0.000  -0.000   0.003   0.003
   11        0.000  -0.000  -0.000  -0.000
   12       -0.000   0.000   0.005   0.006
   13       -0.000  -0.000  -0.000  -0.000
   14        0.000   0.000   0.000   0.000
   15        0.000   0.000   0.000   0.000
   16        0.000   0.000   0.000   0.000
   17       -0.000   0.000  -0.000  -0.000
   18       -0.000  -0.000  -0.000  -0.000
   19       -0.000  -0.000   0.000   0.000
   20       -0.000  -0.000  -0.002  -0.003
   21       -0.000  -0.000   0.000  -0.000
   22        0.000  -0.000   0.000   0.000
   23        0.000   0.000   0.000   0.000
   24       -0.000  -0.000   0.000   0.000
   25        0.000  -0.000   0.000   0.000
   26       -0.000  -0.000   0.000   0.000
   27        0.000   0.000  -0.000  -0.000
   28        0.005   0.007   0.906   0.918
   29       -0.000  -0.000  -0.000  -0.000
   30        0.000   0.000   0.000   0.000
   31        0.000   0.000  -0.000  -0.000
   32        0.000   0.000   0.002   0.002
   33        0.000  -0.000   0.000   0.000
   34       -0.000  -0.000  -0.000  -0.000
   35       -0.000  -0.000  -0.000  -0.000
   36       -0.000  -0.000   0.000   0.000
   37       -0.000  -0.000   0.000   0.000
   38        0.000   0.000   0.000   0.000
   39       -0.000  -0.000  -0.000  -0.000
   40       -0.000  -0.000  -0.000  -0.000
   41       -0.000  -0.000   0.000   0.000
   42        0.000   0.000   0.003   0.003
   43        0.000  -0.000  -0.000  -0.000
   44       -0.000  -0.000   0.001   0.001
   45       -0.000  -0.000   0.000  -0.000
   46        0.000   0.000   0.000   0.000
   47        0.000   0.000   0.000   0.000
   48        0.000   0.000   0.002   0.002
   49       -0.000  -0.000   0.000  -0.000
   50       -0.000  -0.000   0.000  -0.000
   51        0.000  -0.000   0.000   0.000
   52        0.000  -0.000   0.000   0.000
   53       -0.000  -0.000   0.000   0.000
   54       -0.000  -0.000   0.000   0.000
   55        0.000   0.000   0.000   0.000
   56        0.000  -0.000   0.000   0.000
   57       -0.000  -0.000  -0.000  -0.000
   58        0.000   0.000   0.000   0.000
   59        0.000   0.000   0.000   0.000
   60        0.000   0.000   0.038   0.038
   61       -0.000  -0.000   0.000   0.000
   62        0.000   0.000   0.000   0.000
   63        0.000   0.000   0.000   0.000
   64        0.000   0.000   0.010   0.010
   65       -0.000  -0.000   0.000   0.000
   66       -0.000  -0.000   0.000  -0.000
   67       -0.000  -0.000   0.000  -0.000
   68       -0.000  -0.000   0.000  -0.000
   69       -0.000  -0.000   0.000  -0.000
   70        0.000   0.000   0.000   0.000
   71       -0.001  -0.014   0.000  -0.015
   72       -0.000  -0.000   0.000  -0.000
   73       -0.000  -0.000   0.000  -0.000
   74       -0.000  -0.000   0.000  -0.000
   75       -0.000  -0.000   0.000  -0.000
   76       -0.000  -0.000   0.000  -0.000
   77       -0.000  -0.000   0.000  -0.000
   78       -0.000  -0.000   0.000  -0.000
   79       -0.000  -0.000   0.000  -0.000
   80       -0.000  -0.000   0.000  -0.000
   81        0.000   0.000   0.000   0.000
   82       -0.000  -0.000   0.000  -0.000
   83       -0.000  -0.000   0.000  -0.000
   84       -0.000  -0.000   0.000  -0.000
   85       -0.000  -0.001   0.000  -0.001
   86       -0.000  -0.000   0.000  -0.000
   87       -0.000  -0.001   0.000  -0.001
   88       -0.000  -0.000   0.000  -0.000
   89       -0.000  -0.000   0.000  -0.000
   90       -0.000  -0.000   0.000  -0.000
   91        0.000  -0.000   0.000  -0.000
   92       -0.000  -0.000   0.000  -0.000
   93       -0.000  -0.000   0.000  -0.000
   94       -0.000  -0.000   0.000  -0.000
   95       -0.000  -0.000   0.000  -0.000
   96       -0.000  -0.000   0.000  -0.000
   97       -0.001  -0.016   0.000  -0.017
   98       -0.000  -0.000   0.000  -0.000
   99       -0.000  -0.000   0.000  -0.000
  100       -0.000  -0.001   0.000  -0.001
  101       -0.000  -0.000   0.000  -0.000
  102        0.000   0.000   0.000   0.000
  103        0.000   0.000   0.000   0.000
  104       -0.000  -0.000   0.000  -0.000
  105       -0.000  -0.000   0.000  -0.000
  106        0.000  -0.000   0.000  -0.000
  107       -0.000  -0.001   0.000  -0.001
  108        0.000   0.000   0.000   0.000
  109       -0.000  -0.000   0.000  -0.000
  110       -0.000  -0.000   0.000  -0.000
  111        0.000  -0.000   0.000  -0.000
  112       -0.000  -0.000   0.000  -0.000
  113       -0.000  -0.000   0.000  -0.000
  114       -0.000  -0.000   0.000  -0.000
  115       -0.000  -0.000   0.000  -0.000
  116       -0.000  -0.000   0.000  -0.000
  117       -0.000  -0.000   0.000  -0.000
  118       -0.000  -0.000   0.000  -0.000
  119       -0.000  -0.000   0.000  -0.000
  120       -0.000  -0.000   0.000  -0.000
  121        0.000  -0.000   0.000  -0.000
  122        0.000  -0.000   0.000  -0.000
  123       -0.000  -0.000   0.000  -0.000
  124       -0.000  -0.000   0.000  -0.000
  125        0.000  -0.000   0.000  -0.000
  126       -0.000  -0.000   0.000  -0.000
  127       -0.000  -0.000   0.000  -0.000
  128       -0.000  -0.000   0.000  -0.000
  129       -0.000  -0.000   0.000  -0.000
  130       -0.000  -0.000   0.000  -0.000
  131       -0.000  -0.000   0.000  -0.000
  132       -0.000  -0.000   0.000  -0.000
  133       -0.000  -0.000   0.000  -0.000
  134       -0.000  -0.000   0.000  -0.000
  135       -0.000  -0.000   0.000  -0.000
  136        0.000   0.000   0.000   0.000
  137       -0.000  -0.000   0.000  -0.000
  138       -0.000  -0.000   0.000  -0.000
  139       -0.000  -0.000   0.000  -0.000
  140       -0.000  -0.000   0.000  -0.000
  141       -0.000  -0.000   0.000  -0.000
  142       -0.000  -0.000   0.000  -0.000
  143       -0.000  -0.000   0.000  -0.000
  144        0.000   0.000   0.000   0.000
  145       -0.000  -0.000   0.000  -0.000
  146       -0.000  -0.000   0.000  -0.000
  147       -0.000  -0.006   0.000  -0.007
  148       -0.000  -0.000   0.000  -0.000
  149       -0.000  -0.000   0.000  -0.000
  150        0.000   0.000   0.000   0.000
  151       -0.000  -0.000   0.000  -0.000
  152       -0.000  -0.000   0.000  -0.000
  153       -0.000  -0.000   0.000  -0.000
  154       -0.000  -0.000   0.000  -0.000
  155       -0.000  -0.000   0.000  -0.000
  156        0.000  -0.000   0.000  -0.000
  157       -0.000  -0.000   0.000  -0.000
  158       -0.000  -0.000   0.000  -0.000
  159       -0.000   0.000   0.000   0.000
  160       -0.000  -0.000   0.000  -0.000
  161       -0.000  -0.000   0.000  -0.000
  162       -0.000  -0.000   0.000  -0.000
  163       -0.000  -0.000   0.000  -0.000
  164        0.000  -0.000   0.000  -0.000
  165       -0.000  -0.000   0.000  -0.000
  166       -0.000  -0.000   0.000  -0.000
  167       -0.000  -0.000   0.000  -0.000
  168        0.000   0.000   0.000   0.000
  169       -0.000  -0.000   0.000  -0.000
  170        0.000   0.000   0.000   0.000
  171        0.000   0.000   0.000   0.000
  172       -0.000  -0.000   0.000  -0.000
  173       -0.000  -0.000   0.000  -0.000
  174       -0.000  -0.000   0.000  -0.000
  175       -0.000  -0.000   0.000  -0.000
  176        0.000   0.000   0.000   0.000
  177       -0.000  -0.000   0.000  -0.000
  178        0.000   0.000   0.000   0.000
  179        0.000   0.000   0.000   0.000
  180       -0.000   0.000   0.000   0.000
  181        0.000   0.000   0.000   0.000
  182       -0.000  -0.000   0.000  -0.000
  183       -0.000  -0.000   0.000  -0.000
  184       -0.000  -0.000   0.000  -0.000
  185       -0.000  -0.000   0.000  -0.000
  186       -0.000  -0.000   0.000  -0.000
  187        0.000   0.000   0.000   0.000
  188       -0.000  -0.000   0.000  -0.000
  189       -0.000  -0.000   0.000  -0.000
  190       -0.000  -0.000   0.000  -0.000
  191        0.000  -0.000   0.000  -0.000
  192        0.000  -0.000   0.000  -0.000
  193       -0.000  -0.000   0.000  -0.000
  194       -0.000  -0.000   0.000  -0.000
  195        0.000   0.000   0.000   0.000
  196        0.000   0.000   0.000   0.000
  197        0.000   0.000   0.000   0.000
  198       -0.000  -0.000   0.000  -0.000
  199        0.000   0.000   0.000   0.000
  200       -0.000  -0.000   0.000  -0.000
  201       -0.000  -0.000   0.000  -0.000
  202       -0.000  -0.000   0.000  -0.000
  203        0.000  -0.000   0.000  -0.000
  204       -0.000  -0.000   0.000  -0.000
  205       -0.000  -0.000   0.000  -0.000
  206        0.000   0.000   0.000   0.000
  207        0.000  -0.000   0.000  -0.000
  208       -0.000  -0.000   0.000  -0.000
  209       -0.000  -0.000   0.000  -0.000
  210        0.000   0.000   0.000   0.000
  211       -0.000   0.000   0.000   0.000
  212       -0.000  -0.000   0.000  -0.000
  213       -0.000  -0.000   0.000  -0.000
  214       -0.000  -0.000   0.000  -0.000
  215       -0.000  -0.000   0.000  -0.000
  216        0.000   0.000   0.000   0.000
  217       -0.000  -0.000   0.000  -0.000
  218       -0.000  -0.000   0.000  -0.000
  219        0.000  -0.000   0.000  -0.000
  220       -0.000   0.003   0.000   0.002
  221       -0.000  -0.000   0.000  -0.000
  222       -0.000  -0.000   0.000  -0.000
  223       -0.000  -0.000   0.000  -0.000
  224       -0.000   0.000   0.000   0.000
  225       -0.000  -0.000   0.000  -0.000
  226       -0.000  -0.000   0.000  -0.000
  227       -0.000   0.001   0.000   0.001
  228        0.000  -0.000   0.000  -0.000
  229       -0.000  -0.000   0.000  -0.000
  230        0.000   0.000   0.000   0.000
  231       -0.000  -0.000   0.000  -0.000
  232       -0.000  -0.000   0.000  -0.000
  233       -0.000  -0.000   0.000  -0.000
  234       -0.000  -0.000   0.000  -0.000
  235       -0.000  -0.000   0.000  -0.000
  236       -0.000  -0.000   0.000  -0.000
  237       -0.000  -0.000   0.000  -0.000
  238       -0.000  -0.000   0.000  -0.000
  239       -0.000  -0.000   0.000  -0.000
  240        0.000  -0.000   0.000  -0.000
  241       -0.000  -0.000   0.000  -0.000
  242        0.000   0.000   0.000   0.000
  243        0.000  -0.000   0.000  -0.000
  244       -0.000  -0.000   0.000  -0.000
  245       -0.000  -0.000   0.000  -0.000
  246        0.000  -0.000   0.000  -0.000
  247       -0.000  -0.000   0.000  -0.000
  248       -0.000  -0.000   0.000  -0.000
  249       -0.000  -0.000   0.000  -0.000
  250       -0.000  -0.000   0.000  -0.000
  251        0.000   0.000   0.000   0.000
  252        0.000  -0.000   0.000  -0.000
  253       -0.000  -0.000   0.000  -0.000
  254       -0.000  -0.000   0.000  -0.000
  255        0.000   0.000   0.000   0.000
  256       -0.000  -0.000   0.000  -0.000
  257       -0.000  -0.000   0.000  -0.000
--------------------------------------------------
tot          0.002  -0.034   0.969   0.938
 

 total amount of memory used by VASP MPI-rank0   291489. kBytes
=======================================================================

   base      :      30000. kBytes
   nonlr-proj:      49454. kBytes
   fftplans  :      27976. kBytes
   grid      :      34041. kBytes
   one-center:       1026. kBytes
   wavefun   :     148992. kBytes
 
  
  
 General timing and accounting informations for this job:
 ========================================================
  
                  Total CPU time used (sec):     4780.402
                            User time (sec):     4370.924
                          System time (sec):      409.478
                         Elapsed time (sec):     4821.660
  
                   Maximum memory used (kb):      627020.
                   Average memory used (kb):           0.
  
                          Minor page faults:       348402
                          Major page faults:           21
                 Voluntary context switches:        34005
