       N       E                     dE             d eps       ncg     rms          rms(c)
DAV:   1    -0.213600866840E+03   -0.21360E+03   -0.70663E-01  2560   0.552E+00    0.732E-02
DAV:   2    -0.213600958635E+03   -0.91795E-04   -0.28134E-05  2528   0.260E-02    0.410E-02
DAV:   3    -0.213601062069E+03   -0.10343E-03   -0.18914E-05  2432   0.281E-02    0.539E-03
DAV:   4    -0.213601063417E+03   -0.13481E-05   -0.11933E-06  1472   0.789E-03    0.204E-03
DAV:   5    -0.213601063484E+03   -0.66444E-07   -0.36511E-07  1472   0.437E-03
   1 F= -.21360106E+03 E0= -.21360106E+03  d E =-.213601E+03  mag=    -0.0000
