 vasp.5.4.4.18Apr17-6-g9f103f2a35 (build Apr 30 2017 20:10:35) complex          
  
 executed on             LinuxIFC date 2017.08.02  19:01:46
 running on   64 total cores
 distrk:  each k-point on   64 cores,    1 groups
 distr:  one band on NCORES_PER_BAND=   8 cores,    8 groups


--------------------------------------------------------------------------------------------------------


 INCAR:
 POTCAR:   PAW_PBE Ti_pv 07Sep2000                
 POTCAR:   PAW_PBE O 08Apr2002                    
 POTCAR:    PAW_PBE F 08Apr2002                   
 POTCAR:   PAW_PBE Ti_pv 07Sep2000                
   VRHFIN =Ti: d3 s1                                                            
   LEXCH  = PE                                                                  
   EATOM  =  1042.3781 eV,   76.6126 Ry                                         
                                                                                
   TITEL  = PAW_PBE Ti_pv 07Sep2000                                             
   LULTRA =        F    use ultrasoft PP ?                                      
   IUNSCR =        1    unscreen: 0-lin 1-nonlin 2-no                           
   RPACOR =    2.200    partial core radius                                     
   POMASS =   47.880; ZVAL   =   10.000    mass and valenz                      
   RCORE  =    2.500    outmost cutoff radius                                   
   RWIGS  =    2.500; RWIGS  =    1.323    wigner-seitz radius (au A)           
   ENMAX  =  222.338; ENMIN  =  166.753 eV                                      
   RCLOC  =    1.701    cutoff for local pot                                    
   LCOR   =        T    correct aug charges                                     
   LPAW   =        T    paw PP                                                  
   EAUG   =  482.848                                                            
   DEXC   =    -.008                                                            
   RMAX   =    3.092    core radius for proj-oper                               
   RAUG   =    1.300    factor for augmentation sphere                          
   RDEP   =    2.538    radius for radial grids                                 
   QCUT   =   -4.042; QGAM   =    8.085    optimization parameters              
                                                                                
   Description                                                                  
     l     E      TYP  RCUT    TYP  RCUT                                        
     1   .000     23  2.300                                                     
     1  -.100     23  2.300                                                     
     2   .000     23  2.500                                                     
     2   .000     23  2.500                                                     
     0   .000     23  2.500                                                     
     0  1.500     23  2.500                                                     
     3   .000      7   .000                                                     
  local pseudopotential read in
  partial core-charges read in
  atomic valenz-charges read in
  non local Contribution for L=           1  read in
    real space projection operators read in
  non local Contribution for L=           1  read in
    real space projection operators read in
  non local Contribution for L=           2  read in
    real space projection operators read in
  non local Contribution for L=           2  read in
    real space projection operators read in
  non local Contribution for L=           0  read in
    real space projection operators read in
  non local Contribution for L=           0  read in
    real space projection operators read in
    PAW grid and wavefunctions read in
 
   number of l-projection  operators is LMAX  =           6
   number of lm-projection operators is LMMAX =          18
 
 POTCAR:   PAW_PBE O 08Apr2002                    
   VRHFIN =O: s2p4                                                              
   LEXCH  = PE                                                                  
   EATOM  =   432.3788 eV,   31.7789 Ry                                         
                                                                                
   TITEL  = PAW_PBE O 08Apr2002                                                 
   LULTRA =        F    use ultrasoft PP ?                                      
   IUNSCR =        0    unscreen: 0-lin 1-nonlin 2-no                           
   RPACOR =     .000    partial core radius                                     
   POMASS =   16.000; ZVAL   =    6.000    mass and valenz                      
   RCORE  =    1.520    outmost cutoff radius                                   
   RWIGS  =    1.550; RWIGS  =     .820    wigner-seitz radius (au A)           
   ENMAX  =  400.000; ENMIN  =  300.000 eV                                      
   ICORE  =        2    local potential                                         
   LCOR   =        T    correct aug charges                                     
   LPAW   =        T    paw PP                                                  
   EAUG   =  605.392                                                            
   DEXC   =     .000                                                            
   RMAX   =    2.264    core radius for proj-oper                               
   RAUG   =    1.300    factor for augmentation sphere                          
   RDEP   =    1.550    radius for radial grids                                 
   QCUT   =   -5.520; QGAM   =   11.041    optimization parameters              
                                                                                
   Description                                                                  
     l     E      TYP  RCUT    TYP  RCUT                                        
     0   .000     23  1.200                                                     
     0  -.700     23  1.200                                                     
     1   .000     23  1.520                                                     
     1   .600     23  1.520                                                     
     2   .000      7  1.500                                                     
  local pseudopotential read in
  atomic valenz-charges read in
  non local Contribution for L=           0  read in
    real space projection operators read in
  non local Contribution for L=           0  read in
    real space projection operators read in
  non local Contribution for L=           1  read in
    real space projection operators read in
  non local Contribution for L=           1  read in
    real space projection operators read in
    PAW grid and wavefunctions read in
 
   number of l-projection  operators is LMAX  =           4
   number of lm-projection operators is LMMAX =           8
 
 POTCAR:    PAW_PBE F 08Apr2002                   
   VRHFIN =F: s2p5                                                              
   LEXCH  = PE                                                                  
   EATOM  =   659.6475 eV,   48.4827 Ry                                         
                                                                                
   TITEL  = PAW_PBE F 08Apr2002                                                 
   LULTRA =        F    use ultrasoft PP ?                                      
   IUNSCR =        1    unscreen: 0-lin 1-nonlin 2-no                           
   RPACOR =    1.200    partial core radius                                     
   POMASS =   18.998; ZVAL   =    7.000    mass and valenz                      
   RCORE  =    1.520    outmost cutoff radius                                   
   RWIGS  =    1.500; RWIGS  =    0.794    wigner-seitz radius (au A)           
   ENMAX  =  400.000; ENMIN  =  300.000 eV                                      
   ICORE  =        2    local potential                                         
   LCOR   =        T    correct aug charges                                     
   LPAW   =        T    paw PP                                                  
   EAUG   =  613.614                                                            
   RMAX   =    1.555    core radius for proj-oper                               
   RAUG   =    1.300    factor for augmentation sphere                          
   RDEP   =    1.539    radius for radial grids                                 
   RDEPT  =    1.299    core radius for aug-charge                              
                                                                                
   Atomic configuration                                                         
    4 entries                                                                   
     n  l   j            E        occ.                                          
     1  0  0.50      -663.3661   2.0000                                         
     2  0  0.50       -29.8995   2.0000                                         
     2  1  0.50       -11.1114   5.0000                                         
     3  2  1.50       -10.8847   0.0000                                         
   Description                                                                  
     l       E           TYP  RCUT    TYP  RCUT                                 
     0    -29.8995018     23  1.200                                             
     0     -9.5240782     23  1.200                                             
     1    -11.1113914     23  1.520                                             
     1      1.3605826     23  1.520                                             
     2    -10.8846608      7  1.500                                             
  local pseudopotential read in
  partial core-charges read in
  partial kinetic energy density read in
  atomic valenz-charges read in
  non local Contribution for L=           0  read in
    real space projection operators read in
  non local Contribution for L=           0  read in
    real space projection operators read in
  non local Contribution for L=           1  read in
    real space projection operators read in
  non local Contribution for L=           1  read in
    real space projection operators read in
    PAW grid and wavefunctions read in
 
   number of l-projection  operators is LMAX  =           4
   number of lm-projection operators is LMMAX =           8
 
 Optimization of the real space projectors (new method)

 maximal supplied QI-value         = 15.12
 optimisation between [QCUT,QGAM] = [ 13.45, 27.06] = [ 50.69,205.06] Ry 
 Optimized for a Real-space Cutoff    1.49 Angstroem

   l    n(q)    QCUT    max X(q) W(low)/X(q) W(high)/X(q)  e(spline) 
   1     12    13.455     4.841    0.13E-05    0.83E-06    0.56E-07
   1     12    13.455     5.701    0.32E-04    0.25E-04    0.17E-06
   2     11    13.455     4.569    0.64E-05    0.34E-05    0.50E-07
   2     11    13.455    32.276    0.49E-04    0.38E-04    0.46E-06
   0     12    13.455    30.046    0.17E-04    0.41E-05    0.51E-07
   0     12    13.455    45.433    0.12E-04    0.27E-04    0.38E-06
 Optimization of the real space projectors (new method)

 maximal supplied QI-value         = 24.76
 optimisation between [QCUT,QGAM] = [ 13.37, 26.98] = [ 50.04,203.89] Ry 
 Optimized for a Real-space Cutoff    1.17 Angstroem

   l    n(q)    QCUT    max X(q) W(low)/X(q) W(high)/X(q)  e(spline) 
   0      9    13.368     4.192    0.20E-04    0.58E-05    0.56E-07
   0      9    13.368     8.473    0.60E-04    0.52E-04    0.21E-06
   1      9    13.368     2.474    0.22E-04    0.17E-04    0.28E-07
   1      9    13.368     3.912    0.94E-04    0.97E-04    0.20E-06
 Optimization of the real space projectors (new method)

 maximal supplied QI-value         = 24.76
 optimisation between [QCUT,QGAM] = [ 13.37, 26.98] = [ 50.04,203.89] Ry 
 Optimized for a Real-space Cutoff    1.17 Angstroem

   l    n(q)    QCUT    max X(q) W(low)/X(q) W(high)/X(q)  e(spline) 
   0      9    13.368    14.049    0.39E-04    0.34E-04    0.16E-06
   0      9    13.368     8.945    0.54E-04    0.47E-04    0.20E-06
   1      9    13.368     7.086    0.99E-04    0.10E-03    0.23E-06
   1      9    13.368     6.747    0.86E-04    0.89E-04    0.21E-06

 ----------------------------------------------------------------------------- 
|                                                                             |
|  ADVICE TO THIS USER RUNNING 'VASP/VAMP'   (HEAR YOUR MASTER'S VOICE ...):  |
|                                                                             |
|      You enforced a specific xc-type in the INCAR file,                     |
|      a different type was found on the POTCAR file                          |
|          I HOPE YOU KNOW, WHAT YOU ARE  DOING                               |
|                                                                             |
 ----------------------------------------------------------------------------- 

 PAW_PBE Ti_pv 07Sep2000                :
 energy of atom  1       EATOM=-1042.3781
 kinetic energy error for atom=    0.0006 (will be added to EATOM!!)
 PAW_PBE O 08Apr2002                    :
 energy of atom  2       EATOM= -432.3788
 kinetic energy error for atom=    0.0091 (will be added to EATOM!!)
  PAW_PBE F 08Apr2002                   :
 energy of atom  3       EATOM= -659.6475
 kinetic energy error for atom=    0.0140 (will be added to EATOM!!)
 
 
 POSCAR: TiOF2 2x2x2 config 0299                 
  positions in direct lattice
  velocities in cartesian coordinates
 exchange correlation table for  LEXCH =       14
   RHO(1)=    0.500       N(1)  =     2000
   RHO(2)=  100.500       N(2)  =     4000

 VTST: version 3.1, (03/28/14)

 CHAIN: initializing optimizer
 
 OPT: Using VASP QUASI-newton optimizer
 CHAIN: Read ICHAIN            0
 
 POSCAR: TiOF2 2x2x2 config 0299                 
  positions in direct lattice
  velocities in cartesian coordinates
 


--------------------------------------------------------------------------------------------------------


 ion  position               nearest neighbor table
   1  0.000  0.987  0.987-  10 1.82  13 1.82  17 1.97  21 1.97  29 2.02  25 2.02
   2  1.000  0.013  0.513-   9 1.82  13 1.82  22 1.97  18 1.97  29 2.02  26 2.02
   3  1.000  0.513  0.013-  10 1.82  14 1.82  23 1.97  19 1.97  30 2.02  25 2.02
   4  0.000  0.487  0.487-   9 1.82  14 1.82  20 1.97  24 1.97  30 2.02  26 2.02
   5  0.500  0.013  0.013-  11 1.82  15 1.82  17 1.97  21 1.97  31 2.02  28 2.02
   6  0.500  0.987  0.487-  15 1.82  12 1.82  22 1.97  18 1.97  27 2.02  31 2.02
   7  0.500  0.487  0.987-  11 1.82  16 1.82  23 1.97  19 1.97  32 2.02  28 2.02
   8  0.500  0.513  0.513-  12 1.82  16 1.82  20 1.97  24 1.97  32 2.02  27 2.02
   9  1.000  0.250  0.500-   2 1.82   4 1.82
  10  1.000  0.750  0.000-   3 1.82   1 1.82
  11  0.500  0.250  1.000-   7 1.82   5 1.82
  12  0.500  0.750  0.500-   6 1.82   8 1.82
  13  1.000  0.000  0.750-   2 1.82   1 1.82
  14  0.000  0.500  0.250-   3 1.82   4 1.82
  15  0.500  1.000  0.250-   6 1.82   5 1.82
  16  0.500  0.500  0.750-   8 1.82   7 1.82
  17  0.250  1.000  1.000-   1 1.97   5 1.97
  18  0.250  1.000  0.500-   6 1.97   2 1.97
  19  0.250  0.500  0.000-   3 1.97   7 1.97
  20  0.250  0.500  0.500-   8 1.97   4 1.97
  21  0.750  1.000  1.000-   1 1.97   5 1.97
  22  0.750  1.000  0.500-   6 1.97   2 1.97
  23  0.750  0.500  0.000-   3 1.97   7 1.97
  24  0.750  0.500  0.500-   8 1.97   4 1.97
  25  0.000  0.250  0.000-   1 2.02   3 2.02
  26  0.000  0.750  0.500-   4 2.02   2 2.02
  27  0.500  0.250  0.500-   8 2.02   6 2.02
  28  0.500  0.750  0.000-   5 2.02   7 2.02
  29  1.000  0.000  0.250-   1 2.02   2 2.02
  30  1.000  0.500  0.750-   4 2.02   3 2.02
  31  0.500  1.000  0.750-   5 2.02   6 2.02
  32  0.500  0.500  0.250-   7 2.02   8 2.02
 

IMPORTANT INFORMATION: All symmetrisations will be switched off!
NOSYMM: (Re-)initialisation of all symmetry stuff for point group C_1.

 
 
 KPOINTS: Title                                   

Automatic generation of k-mesh.
Space group operators:
 irot       det(A)        alpha          n_x          n_y          n_z        tau_x        tau_y        tau_z
    1     1.000000     0.000000     1.000000     0.000000     0.000000     0.000000     0.000000     0.000000
 
 Subroutine IBZKPT returns following result:
 ===========================================
 
 Found      4 irreducible k-points:
 
 Following reciprocal coordinates:
            Coordinates               Weight
  0.250000  0.250000  0.250000      2.000000
 -0.250000  0.250000  0.250000      2.000000
  0.250000 -0.250000  0.250000      2.000000
 -0.250000 -0.250000  0.250000      2.000000
 
 Following cartesian coordinates:
            Coordinates               Weight
  0.031771  0.032581  0.032581      2.000000
 -0.031771  0.032581  0.032581      2.000000
  0.031771 -0.032627  0.032627      2.000000
 -0.031771 -0.032627  0.032627      2.000000
 


--------------------------------------------------------------------------------------------------------




 Dimension of arrays:
   k-points           NKPTS =      4   k-points in BZ     NKDIM =      4   number of bands    NBANDS=    160
   number of dos      NEDOS =   3001   number of ions     NIONS =     32
   non local maximal  LDIM  =      6   non local SUM 2l+1 LMDIM =     18
   total plane-waves  NPLWV = 343000
   max r-space proj   IRMAX =  10279   max aug-charges    IRDMAX= 230442
   dimension x,y,z NGX =    70 NGY =   70 NGZ =   70
   dimension x,y,z NGXF=   140 NGYF=  140 NGZF=  140
   support grid    NGXF=   280 NGYF=  280 NGZF=  280
   ions per type =               8   8  16
   NGX,Y,Z   is equivalent  to a cutoff of  14.79, 15.18, 15.18 a.u.
   NGXF,Y,Z  is equivalent  to a cutoff of  29.58, 30.35, 30.35 a.u.

 SYSTEM =  LTO                                     
 POSCAR =  TiOF2 2x2x2 config 0299                 

 Startparameter for this run:
   NWRITE =      2    write-flag & timer
   PREC   = accura    normal or accurate (medium, high low for compatibility)
   ISTART =      1    job   : 0-new  1-cont  2-samecut
   ICHARG =      0    charge: 1-file 2-atom 10-const
   ISPIN  =      2    spin polarized calculation?
   LNONCOLLINEAR =      F non collinear calculations
   LSORBIT =      F    spin-orbit coupling
   INIWAV =      1    electr: 0-lowe 1-rand  2-diag
   LASPH  =      T    aspherical Exc in radial PAW
   METAGGA=      F    non-selfconsistent MetaGGA calc.

 Electronic Relaxation 1
   ENCUT  =  700.0 eV  51.45 Ry    7.17 a.u.  16.98 16.54 16.54*2*pi/ulx,y,z
   ENINI  =  700.0     initial cutoff
   ENAUG  =  613.6 eV  augmentation charge cutoff
   NELM   =     60;   NELMIN=  2; NELMDL=  0     # of ELM steps 
   EDIFF  = 0.1E-05   stopping-criterion for ELM
   LREAL  =      T    real-space projection
   NLSPLINE    = F    spline interpolate recip. space projectors
   LCOMPAT=      F    compatible to vasp.4.4
   GGA_COMPAT  = T    GGA compatible to vasp.4.4-vasp.4.6
   LMAXPAW     = -100 max onsite density
   LMAXMIX     =    4 max onsite mixed and CHGCAR
   VOSKOWN=      0    Vosko Wilk Nusair interpolation
   ROPT   =   -0.00010  -0.00010  -0.00010
 Ionic relaxation
   EDIFFG = -.1E-01   stopping-criterion for IOM
   NSW    =    100    number of steps for IOM
   NBLOCK =      1;   KBLOCK =    100    inner block; outer block 
   IBRION =      1    ionic relax: 0-MD 1-quasi-New 2-CG
   NFREE  =      0    steps in history (QN), initial steepest desc. (CG)
   ISIF   =      3    stress and relaxation
   IWAVPR =     11    prediction:  0-non 1-charg 2-wave 3-comb
   ISYM   =      0    0-nonsym 1-usesym 2-fastsym
   LCORR  =      T    Harris-Foulkes like correction to forces

   POTIM  = 0.5000    time-step for ionic-motion
   TEIN   =    0.0    initial temperature
   TEBEG  =    0.0;   TEEND  =   0.0 temperature during run
   SMASS  =  -3.00    Nose mass-parameter (am)
   estimated Nose-frequenzy (Omega)   =  0.10E-29 period in steps =****** mass=  -0.142E-26a.u.
   SCALEE = 1.0000    scale energy and forces
   NPACO  =    256;   APACO  = 16.0  distance and # of slots for P.C.
   PSTRESS=    0.0 pullay stress

  Mass of Ions in am
   POMASS =  47.88 16.00 19.00
  Ionic Valenz
   ZVAL   =  10.00  6.00  7.00
  Atomic Wigner-Seitz radii
   RWIGS  =  -1.00 -1.00 -1.00
  virtual crystal weights 
   VCA    =   1.00  1.00  1.00
   NELECT =     240.0000    total number of electrons
   NUPDOWN=      -1.0000    fix difference up-down

 DOS related values:
   EMIN   =  10.00;   EMAX   =-10.00  energy-range for DOS
   EFERMI =   0.00
   ISMEAR =     0;   SIGMA  =   0.01  broadening in eV -4-tet -1-fermi 0-gaus

 Electronic relaxation 2 (details)
   IALGO  =     38    algorithm
   LDIAG  =      T    sub-space diagonalisation (order eigenvalues)
   LSUBROT=      F    optimize rotation matrix (better conditioning)
   TURBO    =      0    0=normal 1=particle mesh
   IRESTART =      0    0=no restart 2=restart with 2 vectors
   NREBOOT  =      0    no. of reboots
   NMIN     =      0    reboot dimension
   EREF     =   0.00    reference energy to select bands
   IMIX   =      4    mixing-type and parameters
     AMIX     =   0.40;   BMIX     =  1.00
     AMIX_MAG =   1.60;   BMIX_MAG =  1.00
     AMIN     =   0.10
     WC   =   100.;   INIMIX=   1;  MIXPRE=   1;  MAXMIX= -45

 Intra band minimization:
   WEIMIN = 0.0010     energy-eigenvalue tresh-hold
   EBREAK =  0.16E-08  absolut break condition
   DEPER  =   0.30     relativ break condition  

   TIME   =   0.40     timestep for ELM

  volume/ion in A,a.u.               =      14.46        97.57
  Fermi-wavevector in a.u.,A,eV,Ry     =   1.315412  2.485768 23.542271  1.730308
  Thomas-Fermi vector in A             =   2.445596
 
 Write flags
   LWAVE        =      T    write WAVECAR
   LDOWNSAMPLE  =      F    k-point downsampling of WAVECAR
   LCHARG       =      T    write CHGCAR
   LVTOT        =      F    write LOCPOT, total local potential
   LVHAR        =      F    write LOCPOT, Hartree potential only
   LELF         =      F    write electronic localiz. function (ELF)
   LORBIT       =     11    0 simple, 1 ext, 2 COOP (PROOUT), +10 PAW based schemes


 Dipole corrections
   LMONO  =      F    monopole corrections only (constant potential shift)
   LDIPOL =      F    correct potential (dipole corrections)
   IDIPOL =      0    1-x, 2-y, 3-z, 4-all directions 
   EPSILON=  1.0000000 bulk dielectric constant

 LDA+U is selected, type is set to LDAUTYPE =  2
   angular momentum for each species LDAUL =     2   -1   -1
   U (eV)           for each species LDAUU =   4.2  0.0  0.0
   J (eV)           for each species LDAUJ =   0.0  0.0  0.0
 Exchange correlation treatment:
   GGA     =    PS    GGA type
   LEXCH   =    14    internal setting for exchange type
   VOSKOWN=      0    Vosko Wilk Nusair interpolation
   LHFCALC =     F    Hartree Fock is set to
   LHFONE  =     F    Hartree Fock one center treatment
   AEXX    =    0.0000 exact exchange contribution

 Linear response parameters
   LEPSILON=     F    determine dielectric tensor
   LRPA    =     F    only Hartree local field effects (RPA)
   LNABLA  =     F    use nabla operator in PAW spheres
   LVEL    =     F    velocity operator in full k-point grid
   LINTERFAST=   F  fast interpolation
   KINTER  =     0    interpolate to denser k-point grid
   CSHIFT  =0.1000    complex shift for real part using Kramers Kronig
   OMEGAMAX=  -1.0    maximum frequency
   DEG_THRESHOLD= 0.2000000E-02 threshold for treating states as degnerate
   RTIME   =   -0.100 relaxation time in fs
  (WPLASMAI=    0.000 imaginary part of plasma frequency in eV, 0.658/RTIME)
   DFIELD  = 0.0000000 0.0000000 0.0000000 field for delta impulse in time
 
 Orbital magnetization related:
   ORBITALMAG=     F  switch on orbital magnetization
   LCHIMAG   =     F  perturbation theory with respect to B field
   DQ        =  0.001000  dq finite difference perturbation B field
   LLRAUG    =     F  two centre corrections for induced B field



--------------------------------------------------------------------------------------------------------


 quasi-Newton-method for relaxation of ions
 charge density and potential will be updated during run
 spin polarized calculation
 Variant of blocked Davidson
 Davidson routine will perform the subspace rotation
 perform sub-space diagonalisation
    after iterative eigenvector-optimisation
 modified Broyden-mixing scheme, WC =      100.0
 initial mixing is a Kerker type mixing with AMIX =  0.4000 and BMIX =      1.0000
 Hartree-type preconditioning will be used
 using additional bands           40
 real space projection scheme for non local part
 use partial core corrections
 calculate Harris-corrections to forces 
   (improved forces if not selfconsistent)
 use gradient corrections 
 use of overlap-Matrix (Vanderbilt PP)
 Gauss-broadening in eV      SIGMA  =   0.01


--------------------------------------------------------------------------------------------------------


  energy-cutoff  :      700.00
  volume of cell :      462.65
      direct lattice vectors                 reciprocal lattice vectors
     7.868847846  0.000000001  0.000000008     0.127083408 -0.000000000 -0.000000000
     0.000000001  7.667776779  0.005308694    -0.000000000  0.130415961 -0.000090285
     0.000000007  0.005308315  7.667789309    -0.000000000 -0.000090292  0.130415748

  length of vectors
     7.868847846  7.667778617  7.667791146     0.127083408  0.130415992  0.130415779


 
 old parameters found on file WAVECAR:
  energy-cutoff  :      700.00
  volume of cell :      438.28
      direct lattice vectors                 reciprocal lattice vectors
     7.596000000  0.000000000  0.000000000     0.131648236  0.000000000  0.000000000
     0.000000000  7.596000000  0.000000000     0.000000000  0.131648236  0.000000000
     0.000000000  0.000000000  7.596000000     0.000000000  0.000000000  0.131648236

  length of vectors

 
 k-points in units of 2pi/SCALE and weight: Title                                   
   0.03177085  0.03258142  0.03258137       0.250
  -0.03177085  0.03258142  0.03258137       0.250
   0.03177085 -0.03262656  0.03262651       0.250
  -0.03177085 -0.03262656  0.03262651       0.250
 
 k-points in reciprocal lattice and weights: Title                                   
   0.25000000  0.25000000  0.25000000       0.250
  -0.25000000  0.25000000  0.25000000       0.250
   0.25000000 -0.25000000  0.25000000       0.250
  -0.25000000 -0.25000000  0.25000000       0.250
 
 position of ions in fractional coordinates (direct lattice) 
   0.00000000  0.98725376  0.98725424
   1.00000000  0.01274713  0.51274630
   1.00000000  0.51274721  0.01274644
   0.00000000  0.48725330  0.48725427
   0.50000000  0.01274649  0.01274537
   0.50000000  0.98725335  0.48725313
   0.50000000  0.48725257  0.98725441
   0.50000000  0.51274653  0.51274621
   1.00000000  0.24999916  0.49999992
   1.00000000  0.74999861  0.00000014
   0.50000000  0.25000131  0.99999990
   0.50000000  0.75000033  0.50000006
   1.00000000  0.00000009  0.74999905
   0.00000000  0.50000010  0.24999866
   0.50000000  0.99999970  0.25000198
   0.50000000  0.50000019  0.74999972
   0.24999982  1.00000000  0.99999999
   0.25000008  0.99999994  0.49999988
   0.24999980  0.50000001  0.00000011
   0.25000020  0.50000008  0.50000003
   0.75000018  1.00000000  0.99999999
   0.74999992  0.99999994  0.49999988
   0.75000020  0.50000001  0.00000011
   0.74999980  0.50000008  0.50000003
   0.00000000  0.25000035  0.00000009
   0.00000000  0.75000016  0.49999991
   0.50000000  0.24999995  0.50000004
   0.50000000  0.74999966  0.00000001
   1.00000000  0.00000005  0.25000020
   1.00000000  0.49999999  0.75000023
   0.50000000  0.99999991  0.74999947
   0.50000000  0.50000004  0.25000021
 
 position of ions in cartesian coordinates  (Angst):
   0.00000001  7.57528211  7.57529850
   7.86884785  0.10046399  3.93169824
   7.86884784  3.93169885  0.10045904
   0.00000001  3.73873606  3.73874977
   3.93442392  0.09780493  0.09779649
   3.93442393  7.57262477  3.74139537
   3.93442393  3.74138457  7.57264549
   3.93442393  3.93434773  3.93435191
   7.86884785  1.91959193  3.83522124
   7.86884785  5.75082191  0.00398263
   3.93442393  1.92226254  7.66911569
   3.93442393  5.75348929  3.83787661
   7.86884785  0.00398190  5.75083472
   0.00000000  3.83521620  1.91959138
   3.93442393  7.66910156  1.92227124
   3.93442393  3.83787105  5.75349421
   1.96721054  7.67308507  7.67309794
   1.96721260  7.67043051  3.83920242
   1.96721042  3.83388848  0.00265521
   1.96721353  3.83654317  3.83654926
   5.90163732  7.67308507  7.67309794
   5.90163526  7.67043051  3.83920242
   5.90163742  3.83388848  0.00265521
   5.90163432  3.83654317  3.83654927
   0.00000000  1.91694688  0.00132790
   0.00000000  5.75348793  3.83787552
   3.93442393  1.91959798  3.83522215
   3.93442392  5.75082997  0.00398158
   7.86884785  0.00132746  1.91694888
   7.86884785  3.83786957  5.75349814
   3.93442393  7.67175733  5.75614665
   3.93442393  3.83521581  1.91960326
 


--------------------------------------------------------------------------------------------------------


 k-point  1 :   0.2500 0.2500 0.2500  plane waves:   19460
 k-point  2 :  -0.2500 0.2500 0.2500  plane waves:   19460
 k-point  3 :   0.2500-0.2500 0.2500  plane waves:   19468
 k-point  4 :  -0.2500-0.2500 0.2500  plane waves:   19468

 maximum and minimum number of plane-waves per node :      2461     2416

 maximum number of plane-waves:     19468
 maximum index in each direction: 
   IXMAX=   17   IYMAX=   16   IZMAX=   16
   IXMIN=  -17   IYMIN=  -16   IZMIN=  -16


 real space projection operators:
  total allocation   :      18528.38 KBytes
  max/ min on nodes  :       2475.81       1920.88


 parallel 3D FFT for wavefunctions:
    minimum data exchange during FFTs selected (reduces bandwidth)
 parallel 3D FFT for charge:
    minimum data exchange during FFTs selected (reduces bandwidth)


 total amount of memory used by VASP MPI-rank0    62263. kBytes
=======================================================================

   base      :      30000. kBytes
   nonlr-proj:       8565. kBytes
   fftplans  :       8422. kBytes
   grid      :       8783. kBytes
   one-center:        124. kBytes
   wavefun   :       6369. kBytes
 
     INWAV:  cpu time    3.8774: real time    4.4943
 Broyden mixing: mesh for mixing (old mesh)
   NGX = 33   NGY = 33   NGZ = 33
  (NGX  =140   NGY  =140   NGZ  =140)
  gives a total of  35937 points

 charge density for first step will be calculated from the start-wavefunctions


--------------------------------------------------------------------------------------------------------


 Maximum index for non-local projection operator         1371
 Maximum index for augmentation-charges         7156 (set IRDMAX)


--------------------------------------------------------------------------------------------------------


 initial charge from wavefunction
 First call to EWALD:  gamma=   0.229
 Maximum number of real-space cells 3x 3x 3
 Maximum number of reciprocal cells 3x 3x 3

    FEWALD:  cpu time    0.0030: real time    0.0032


--------------------------------------- Iteration      1(   1)  ---------------------------------------


    POTLOK:  cpu time    0.6979: real time    0.7597
    SETDIJ:  cpu time    0.8449: real time    0.8483
     EDDAV:  cpu time    3.4575: real time    3.4634
       DOS:  cpu time    0.0000: real time    0.0009
    CHARGE:  cpu time    0.3669: real time    0.3762
    MIXING:  cpu time    0.0030: real time    0.0034
    --------------------------------------------
      LOOP:  cpu time    5.3702: real time    5.4519

 eigenvalue-minimisations  :  2560
 total energy-change (2. order) :-0.2136009E+03  (-0.7066270E-01)
 number of electron     240.0000006 magnetization      -0.0000000
 augmentation part       61.9651867 magnetization      -0.0000000

 Broyden mixing:
  rms(total) = 0.73152E-02    rms(broyden)= 0.68493E-02
  rms(prec ) = 0.72073E-02
  weight for this iteration     100.00

 Free energy of the ion-electron system (eV)
  ---------------------------------------------------
  alpha Z        PSCENC =       756.87390417
  Ewald energy   TEWEN  =    -12792.74377466
  -Hartree energ DENC   =     -8243.35366074
  -exchange      EXHF   =         0.00000000
  -V(xc)+E(xc)   XCENC  =      1119.94540366
  PAW double counting   =     18027.53857258   -18150.95532654
  entropy T*S    EENTRO =        -0.00000000
  eigenvalues    EBANDS =     -3233.25920158
  atomic energy  EATOM  =     22302.35321627
  Solvation  Ediel_sol  =         0.00000000
  ---------------------------------------------------
  free energy    TOTEN  =      -213.60086684 eV

  energy without entropy =     -213.60086684  energy(sigma->0) =     -213.60086684


--------------------------------------------------------------------------------------------------------




--------------------------------------- Iteration      1(   2)  ---------------------------------------


    POTLOK:  cpu time    0.1410: real time    0.3319
    SETDIJ:  cpu time    0.8489: real time    0.8470
     EDDAV:  cpu time    3.4475: real time    3.4460
       DOS:  cpu time    0.0010: real time    0.0010
    CHARGE:  cpu time    0.3799: real time    0.3798
    MIXING:  cpu time    0.0030: real time    0.0030
    --------------------------------------------
      LOOP:  cpu time    4.8213: real time    5.0087

 eigenvalue-minimisations  :  2528
 total energy-change (2. order) :-0.9179466E-04  (-0.2813436E-05)
 number of electron     240.0000006 magnetization      -0.0000000
 augmentation part       61.9659641 magnetization       0.0000000

 Broyden mixing:
  rms(total) = 0.40965E-02    rms(broyden)= 0.40646E-02
  rms(prec ) = 0.42745E-02
  weight for this iteration     100.00

 eigenvalues of (default mixing * dielectric matrix)
  average eigenvalue GAMMA=   2.3215
  2.3215

 Free energy of the ion-electron system (eV)
  ---------------------------------------------------
  alpha Z        PSCENC =       756.87390417
  Ewald energy   TEWEN  =    -12792.74377466
  -Hartree energ DENC   =     -8243.28738130
  -exchange      EXHF   =         0.00000000
  -V(xc)+E(xc)   XCENC  =      1119.94149288
  PAW double counting   =     18028.26715570   -18151.66873932
  entropy T*S    EENTRO =        -0.00000000
  eigenvalues    EBANDS =     -3233.33683237
  atomic energy  EATOM  =     22302.35321627
  Solvation  Ediel_sol  =         0.00000000
  ---------------------------------------------------
  free energy    TOTEN  =      -213.60095863 eV

  energy without entropy =     -213.60095863  energy(sigma->0) =     -213.60095863


--------------------------------------------------------------------------------------------------------




--------------------------------------- Iteration      1(   3)  ---------------------------------------


    POTLOK:  cpu time    0.2340: real time    1.0933
    SETDIJ:  cpu time    0.8429: real time    0.8424
     EDDAV:  cpu time    3.3395: real time    3.3368
       DOS:  cpu time    0.0010: real time    0.0009
    CHARGE:  cpu time    0.3809: real time    0.3779
    MIXING:  cpu time    0.0030: real time    0.0031
    --------------------------------------------
      LOOP:  cpu time    4.8013: real time    5.6544

 eigenvalue-minimisations  :  2432
 total energy-change (2. order) :-0.1034346E-03  (-0.1891436E-05)
 number of electron     240.0000006 magnetization       0.0000000
 augmentation part       61.9665697 magnetization       0.0000000

 Broyden mixing:
  rms(total) = 0.53922E-03    rms(broyden)= 0.52852E-03
  rms(prec ) = 0.65915E-03
  weight for this iteration     100.00

 eigenvalues of (default mixing * dielectric matrix)
  average eigenvalue GAMMA=   1.7131
  0.9419  2.4842

 Free energy of the ion-electron system (eV)
  ---------------------------------------------------
  alpha Z        PSCENC =       756.87390417
  Ewald energy   TEWEN  =    -12792.74377466
  -Hartree energ DENC   =     -8243.32534731
  -exchange      EXHF   =         0.00000000
  -V(xc)+E(xc)   XCENC  =      1119.94468256
  PAW double counting   =     18029.29693104   -18152.68470458
  entropy T*S    EENTRO =        -0.00000000
  eigenvalues    EBANDS =     -3233.31596956
  atomic energy  EATOM  =     22302.35321627
  Solvation  Ediel_sol  =         0.00000000
  ---------------------------------------------------
  free energy    TOTEN  =      -213.60106207 eV

  energy without entropy =     -213.60106207  energy(sigma->0) =     -213.60106207


--------------------------------------------------------------------------------------------------------




--------------------------------------- Iteration      1(   4)  ---------------------------------------


    POTLOK:  cpu time    0.1520: real time    1.2437
    SETDIJ:  cpu time    0.8449: real time    0.8423
     EDDAV:  cpu time    2.4636: real time    2.4619
       DOS:  cpu time    0.0010: real time    0.0008
    CHARGE:  cpu time    0.3829: real time    0.3810
    MIXING:  cpu time    0.0030: real time    0.0031
    --------------------------------------------
      LOOP:  cpu time    3.8474: real time    4.9329

 eigenvalue-minimisations  :  1472
 total energy-change (2. order) :-0.1348068E-05  (-0.1193325E-06)
 number of electron     240.0000006 magnetization      -0.0000000
 augmentation part       61.9660728 magnetization       0.0000000

 Broyden mixing:
  rms(total) = 0.20449E-03    rms(broyden)= 0.20301E-03
  rms(prec ) = 0.28091E-03
  weight for this iteration     100.00

 eigenvalues of (default mixing * dielectric matrix)
  average eigenvalue GAMMA=   1.4050
  2.5021  1.0902  0.6226

 Free energy of the ion-electron system (eV)
  ---------------------------------------------------
  alpha Z        PSCENC =       756.87390417
  Ewald energy   TEWEN  =    -12792.74377466
  -Hartree energ DENC   =     -8243.34318171
  -exchange      EXHF   =         0.00000000
  -V(xc)+E(xc)   XCENC  =      1119.94521043
  PAW double counting   =     18029.34332787   -18152.72888612
  entropy T*S    EENTRO =        -0.00000000
  eigenvalues    EBANDS =     -3233.30087966
  atomic energy  EATOM  =     22302.35321627
  Solvation  Ediel_sol  =         0.00000000
  ---------------------------------------------------
  free energy    TOTEN  =      -213.60106342 eV

  energy without entropy =     -213.60106342  energy(sigma->0) =     -213.60106342


--------------------------------------------------------------------------------------------------------




--------------------------------------- Iteration      1(   5)  ---------------------------------------


    POTLOK:  cpu time    0.3150: real time    0.7887
    SETDIJ:  cpu time    0.8309: real time    0.8380
     EDDAV:  cpu time    2.4376: real time    2.4403
       DOS:  cpu time    0.0010: real time    0.0008
    --------------------------------------------
      LOOP:  cpu time    3.5845: real time    4.0678

 eigenvalue-minimisations  :  1472
 total energy-change (2. order) :-0.6644404E-07  (-0.3651117E-07)
 number of electron     240.0000006 magnetization      -0.0000000
 augmentation part       61.9660728 magnetization       0.0000000

 Free energy of the ion-electron system (eV)
  ---------------------------------------------------
  alpha Z        PSCENC =       756.87390417
  Ewald energy   TEWEN  =    -12792.74377466
  -Hartree energ DENC   =     -8243.34664040
  -exchange      EXHF   =         0.00000000
  -V(xc)+E(xc)   XCENC  =      1119.94553045
  PAW double counting   =     18029.30961759   -18152.69539866
  entropy T*S    EENTRO =        -0.00000000
  eigenvalues    EBANDS =     -3233.29751824
  atomic energy  EATOM  =     22302.35321627
  Solvation  Ediel_sol  =         0.00000000
  ---------------------------------------------------
  free energy    TOTEN  =      -213.60106348 eV

  energy without entropy =     -213.60106348  energy(sigma->0) =     -213.60106348


--------------------------------------------------------------------------------------------------------




 average (electrostatic) potential at core
  the test charge radii are     1.0397  0.7215  0.7167
  (the norm of the test charge is              1.0000)
       1 -58.8970       2 -58.8969       3 -58.8968       4 -58.8970       5 -58.8971
       6 -58.8968       7 -58.8969       8 -58.8969       9 -74.1472      10 -74.1471
      11 -74.1472      12 -74.1471      13 -74.1471      14 -74.1471      15 -74.1471
      16 -74.1471      17 -79.3174      18 -79.3173      19 -79.3173      20 -79.3173
      21 -79.3174      22 -79.3173      23 -79.3173      24 -79.3173      25 -78.7057
      26 -78.7057      27 -78.7057      28 -78.7057      29 -78.7058      30 -78.7057
      31 -78.7058      32 -78.7057
 
 
 
 E-fermi :  -0.6659     XC(G=0):  -8.9612     alpha+bet : -7.6377


 spin component 1

 k-point     1 :       0.2500    0.2500    0.2500
  band No.  band energies     occupation 
      1     -34.9481      1.00000
      2     -34.9456      1.00000
      3     -34.9455      1.00000
      4     -34.9431      1.00000
      5     -34.8801      1.00000
      6     -34.8779      1.00000
      7     -34.8777      1.00000
      8     -34.8754      1.00000
      9     -34.7904      1.00000
     10     -34.7893      1.00000
     11     -34.7831      1.00000
     12     -34.7831      1.00000
     13     -34.7820      1.00000
     14     -34.7819      1.00000
     15     -34.7650      1.00000
     16     -34.7637      1.00000
     17     -34.7279      1.00000
     18     -34.7269      1.00000
     19     -34.7055      1.00000
     20     -34.7055      1.00000
     21     -34.7044      1.00000
     22     -34.7043      1.00000
     23     -34.6935      1.00000
     24     -34.6923      1.00000
     25     -23.1507      1.00000
     26     -23.1226      1.00000
     27     -23.1226      1.00000
     28     -23.1004      1.00000
     29     -22.8174      1.00000
     30     -22.8021      1.00000
     31     -22.8020      1.00000
     32     -22.7899      1.00000
     33     -22.4661      1.00000
     34     -22.4428      1.00000
     35     -22.3695      1.00000
     36     -22.3695      1.00000
     37     -22.3543      1.00000
     38     -22.3542      1.00000
     39     -22.2631      1.00000
     40     -22.2627      1.00000
     41     -16.7967      1.00000
     42     -16.7898      1.00000
     43     -16.6443      1.00000
     44     -16.6443      1.00000
     45     -16.6381      1.00000
     46     -16.6380      1.00000
     47     -16.4856      1.00000
     48     -16.4829      1.00000
     49      -6.6248      1.00000
     50      -6.6140      1.00000
     51      -6.6139      1.00000
     52      -6.6136      1.00000
     53      -5.9200      1.00000
     54      -5.8956      1.00000
     55      -5.8113      1.00000
     56      -5.8113      1.00000
     57      -5.7836      1.00000
     58      -5.7836      1.00000
     59      -5.7240      1.00000
     60      -5.7131      1.00000
     61      -5.6682      1.00000
     62      -5.5635      1.00000
     63      -5.5634      1.00000
     64      -5.4731      1.00000
     65      -5.1680      1.00000
     66      -5.1680      1.00000
     67      -5.1248      1.00000
     68      -5.1156      1.00000
     69      -4.7884      1.00000
     70      -4.7581      1.00000
     71      -4.6082      1.00000
     72      -4.5608      1.00000
     73      -4.5608      1.00000
     74      -4.5578      1.00000
     75      -4.5137      1.00000
     76      -4.5137      1.00000
     77      -4.4432      1.00000
     78      -4.4388      1.00000
     79      -4.4282      1.00000
     80      -4.3824      1.00000
     81      -4.3824      1.00000
     82      -4.2914      1.00000
     83      -3.9484      1.00000
     84      -3.9484      1.00000
     85      -3.8854      1.00000
     86      -3.8854      1.00000
     87      -3.8501      1.00000
     88      -3.6203      1.00000
     89      -3.5966      1.00000
     90      -3.5966      1.00000
     91      -3.5510      1.00000
     92      -3.5117      1.00000
     93      -3.4200      1.00000
     94      -3.4200      1.00000
     95      -3.4082      1.00000
     96      -3.3918      1.00000
     97      -3.3917      1.00000
     98      -3.3625      1.00000
     99      -3.2017      1.00000
    100      -3.1406      1.00000
    101      -3.1406      1.00000
    102      -3.0814      1.00000
    103      -2.8089      1.00000
    104      -2.8053      1.00000
    105      -2.7044      1.00000
    106      -2.6920      1.00000
    107      -2.3688      1.00000
    108      -2.1875      1.00000
    109      -2.1875      1.00000
    110      -2.0130      1.00000
    111      -2.0130      1.00000
    112      -1.9913      1.00000
    113      -1.9912      1.00000
    114      -1.9876      1.00000
    115      -1.9199      1.00000
    116      -1.7947      1.00000
    117      -1.7946      1.00000
    118      -1.6814      1.00000
    119      -0.7159      1.00000
    120      -0.7148      1.00000
    121       2.1388      0.00000
    122       2.1568      0.00000
    123       2.1583      0.00000
    124       2.1647      0.00000
    125       2.1844      0.00000
    126       2.1844      0.00000
    127       2.6272      0.00000
    128       2.6535      0.00000
    129       2.6599      0.00000
    130       2.6599      0.00000
    131       3.2791      0.00000
    132       3.3252      0.00000
    133       3.3253      0.00000
    134       3.3256      0.00000
    135       3.3894      0.00000
    136       3.3896      0.00000
    137       3.4096      0.00000
    138       3.4097      0.00000
    139       3.4867      0.00000
    140       3.4868      0.00000
    141       3.5441      0.00000
    142       3.6212      0.00000
    143       3.6922      0.00000
    144       3.6922      0.00000
    145       3.7489      0.00000
    146       3.8236      0.00000
    147       3.8376      0.00000
    148       3.9377      0.00000
    149       4.1126      0.00000
    150       4.1243      0.00000
    151       4.3841      0.00000
    152       4.3841      0.00000
    153       4.8437      0.00000
    154       5.3458      0.00000
    155       5.3459      0.00000
    156       5.6634      0.00000
    157       5.9844      0.00000
    158       5.9845      0.00000
    159       6.5294      0.00000
    160       6.7402      0.00000

 k-point     2 :      -0.2500    0.2500    0.2500
  band No.  band energies     occupation 
      1     -34.9481      1.00000
      2     -34.9456      1.00000
      3     -34.9455      1.00000
      4     -34.9431      1.00000
      5     -34.8801      1.00000
      6     -34.8779      1.00000
      7     -34.8777      1.00000
      8     -34.8754      1.00000
      9     -34.7904      1.00000
     10     -34.7893      1.00000
     11     -34.7831      1.00000
     12     -34.7831      1.00000
     13     -34.7820      1.00000
     14     -34.7819      1.00000
     15     -34.7650      1.00000
     16     -34.7637      1.00000
     17     -34.7279      1.00000
     18     -34.7269      1.00000
     19     -34.7055      1.00000
     20     -34.7055      1.00000
     21     -34.7044      1.00000
     22     -34.7043      1.00000
     23     -34.6935      1.00000
     24     -34.6923      1.00000
     25     -23.1507      1.00000
     26     -23.1226      1.00000
     27     -23.1226      1.00000
     28     -23.1004      1.00000
     29     -22.8174      1.00000
     30     -22.8021      1.00000
     31     -22.8020      1.00000
     32     -22.7899      1.00000
     33     -22.4661      1.00000
     34     -22.4428      1.00000
     35     -22.3695      1.00000
     36     -22.3695      1.00000
     37     -22.3543      1.00000
     38     -22.3542      1.00000
     39     -22.2631      1.00000
     40     -22.2627      1.00000
     41     -16.7967      1.00000
     42     -16.7898      1.00000
     43     -16.6443      1.00000
     44     -16.6443      1.00000
     45     -16.6381      1.00000
     46     -16.6380      1.00000
     47     -16.4856      1.00000
     48     -16.4829      1.00000
     49      -6.6248      1.00000
     50      -6.6140      1.00000
     51      -6.6139      1.00000
     52      -6.6136      1.00000
     53      -5.9200      1.00000
     54      -5.8956      1.00000
     55      -5.8113      1.00000
     56      -5.8113      1.00000
     57      -5.7836      1.00000
     58      -5.7836      1.00000
     59      -5.7240      1.00000
     60      -5.7131      1.00000
     61      -5.6682      1.00000
     62      -5.5635      1.00000
     63      -5.5634      1.00000
     64      -5.4731      1.00000
     65      -5.1680      1.00000
     66      -5.1680      1.00000
     67      -5.1248      1.00000
     68      -5.1156      1.00000
     69      -4.7884      1.00000
     70      -4.7581      1.00000
     71      -4.6082      1.00000
     72      -4.5608      1.00000
     73      -4.5608      1.00000
     74      -4.5578      1.00000
     75      -4.5137      1.00000
     76      -4.5137      1.00000
     77      -4.4432      1.00000
     78      -4.4388      1.00000
     79      -4.4282      1.00000
     80      -4.3824      1.00000
     81      -4.3824      1.00000
     82      -4.2914      1.00000
     83      -3.9484      1.00000
     84      -3.9484      1.00000
     85      -3.8854      1.00000
     86      -3.8854      1.00000
     87      -3.8501      1.00000
     88      -3.6203      1.00000
     89      -3.5966      1.00000
     90      -3.5966      1.00000
     91      -3.5510      1.00000
     92      -3.5117      1.00000
     93      -3.4200      1.00000
     94      -3.4200      1.00000
     95      -3.4082      1.00000
     96      -3.3918      1.00000
     97      -3.3917      1.00000
     98      -3.3625      1.00000
     99      -3.2017      1.00000
    100      -3.1406      1.00000
    101      -3.1406      1.00000
    102      -3.0814      1.00000
    103      -2.8089      1.00000
    104      -2.8053      1.00000
    105      -2.7044      1.00000
    106      -2.6920      1.00000
    107      -2.3688      1.00000
    108      -2.1875      1.00000
    109      -2.1875      1.00000
    110      -2.0130      1.00000
    111      -2.0130      1.00000
    112      -1.9913      1.00000
    113      -1.9912      1.00000
    114      -1.9876      1.00000
    115      -1.9199      1.00000
    116      -1.7947      1.00000
    117      -1.7946      1.00000
    118      -1.6814      1.00000
    119      -0.7159      1.00000
    120      -0.7148      1.00000
    121       2.1388      0.00000
    122       2.1568      0.00000
    123       2.1583      0.00000
    124       2.1647      0.00000
    125       2.1844      0.00000
    126       2.1844      0.00000
    127       2.6272      0.00000
    128       2.6535      0.00000
    129       2.6599      0.00000
    130       2.6599      0.00000
    131       3.2791      0.00000
    132       3.3252      0.00000
    133       3.3253      0.00000
    134       3.3256      0.00000
    135       3.3894      0.00000
    136       3.3896      0.00000
    137       3.4096      0.00000
    138       3.4097      0.00000
    139       3.4867      0.00000
    140       3.4868      0.00000
    141       3.5441      0.00000
    142       3.6212      0.00000
    143       3.6922      0.00000
    144       3.6922      0.00000
    145       3.7489      0.00000
    146       3.8236      0.00000
    147       3.8376      0.00000
    148       3.9377      0.00000
    149       4.1126      0.00000
    150       4.1243      0.00000
    151       4.3841      0.00000
    152       4.3841      0.00000
    153       4.8437      0.00000
    154       5.3458      0.00000
    155       5.3459      0.00000
    156       5.6634      0.00000
    157       5.9844      0.00000
    158       5.9845      0.00000
    159       6.5294      0.00000
    160       6.7402      0.00000

 k-point     3 :       0.2500   -0.2500    0.2500
  band No.  band energies     occupation 
      1     -34.9481      1.00000
      2     -34.9457      1.00000
      3     -34.9455      1.00000
      4     -34.9430      1.00000
      5     -34.8802      1.00000
      6     -34.8778      1.00000
      7     -34.8777      1.00000
      8     -34.8754      1.00000
      9     -34.7909      1.00000
     10     -34.7898      1.00000
     11     -34.7828      1.00000
     12     -34.7827      1.00000
     13     -34.7815      1.00000
     14     -34.7814      1.00000
     15     -34.7657      1.00000
     16     -34.7644      1.00000
     17     -34.7252      1.00000
     18     -34.7244      1.00000
     19     -34.7127      1.00000
     20     -34.7126      1.00000
     21     -34.6980      1.00000
     22     -34.6980      1.00000
     23     -34.6950      1.00000
     24     -34.6937      1.00000
     25     -23.1495      1.00000
     26     -23.1238      1.00000
     27     -23.1237      1.00000
     28     -23.0992      1.00000
     29     -22.8170      1.00000
     30     -22.8025      1.00000
     31     -22.8024      1.00000
     32     -22.7895      1.00000
     33     -22.4454      1.00000
     34     -22.4246      1.00000
     35     -22.4246      1.00000
     36     -22.4181      1.00000
     37     -22.2943      1.00000
     38     -22.2943      1.00000
     39     -22.2923      1.00000
     40     -22.2888      1.00000
     41     -16.7618      1.00000
     42     -16.7618      1.00000
     43     -16.7399      1.00000
     44     -16.7316      1.00000
     45     -16.5375      1.00000
     46     -16.5361      1.00000
     47     -16.5254      1.00000
     48     -16.5254      1.00000
     49      -6.6219      1.00000
     50      -6.6160      1.00000
     51      -6.6159      1.00000
     52      -6.6121      1.00000
     53      -5.8791      1.00000
     54      -5.8782      1.00000
     55      -5.8782      1.00000
     56      -5.8455      1.00000
     57      -5.7581      1.00000
     58      -5.7354      1.00000
     59      -5.7354      1.00000
     60      -5.7267      1.00000
     61      -5.6532      1.00000
     62      -5.5692      1.00000
     63      -5.5691      1.00000
     64      -5.4706      1.00000
     65      -5.1647      1.00000
     66      -5.1630      1.00000
     67      -5.1630      1.00000
     68      -5.0827      1.00000
     69      -4.8172      1.00000
     70      -4.7892      1.00000
     71      -4.6484      1.00000
     72      -4.5800      1.00000
     73      -4.5800      1.00000
     74      -4.5304      1.00000
     75      -4.4877      1.00000
     76      -4.4876      1.00000
     77      -4.4668      1.00000
     78      -4.4458      1.00000
     79      -4.3960      1.00000
     80      -4.3735      1.00000
     81      -4.3735      1.00000
     82      -4.2652      1.00000
     83      -4.1384      1.00000
     84      -4.1384      1.00000
     85      -3.8992      1.00000
     86      -3.6279      1.00000
     87      -3.6067      1.00000
     88      -3.6066      1.00000
     89      -3.5993      1.00000
     90      -3.5556      1.00000
     91      -3.4554      1.00000
     92      -3.4554      1.00000
     93      -3.4141      1.00000
     94      -3.3667      1.00000
     95      -3.3623      1.00000
     96      -3.3622      1.00000
     97      -3.2484      1.00000
     98      -3.2484      1.00000
     99      -3.2327      1.00000
    100      -3.1312      1.00000
    101      -3.1312      1.00000
    102      -3.0991      1.00000
    103      -3.0831      1.00000
    104      -3.0807      1.00000
    105      -2.9563      1.00000
    106      -2.9563      1.00000
    107      -2.3326      1.00000
    108      -2.2110      1.00000
    109      -2.2109      1.00000
    110      -2.1514      1.00000
    111      -2.1494      1.00000
    112      -2.0081      1.00000
    113      -1.8726      1.00000
    114      -1.7871      1.00000
    115      -1.7870      1.00000
    116      -1.7139      1.00000
    117      -1.3766      1.00000
    118      -1.3766      1.00000
    119      -1.0390      1.00000
    120      -1.0379      1.00000
    121       2.1461      0.00000
    122       2.1764      0.00000
    123       2.1790      0.00000
    124       2.1790      0.00000
    125       2.3932      0.00000
    126       2.4028      0.00000
    127       2.6345      0.00000
    128       2.6541      0.00000
    129       2.6541      0.00000
    130       2.6609      0.00000
    131       2.8783      0.00000
    132       2.8783      0.00000
    133       3.3301      0.00000
    134       3.3304      0.00000
    135       3.3468      0.00000
    136       3.3469      0.00000
    137       3.4314      0.00000
    138       3.4314      0.00000
    139       3.4530      0.00000
    140       3.6863      0.00000
    141       3.6874      0.00000
    142       3.7005      0.00000
    143       3.7005      0.00000
    144       3.7100      0.00000
    145       3.8094      0.00000
    146       3.8094      0.00000
    147       3.8499      0.00000
    148       4.0082      0.00000
    149       4.0565      0.00000
    150       4.2658      0.00000
    151       4.3441      0.00000
    152       4.3441      0.00000
    153       4.7048      0.00000
    154       5.3563      0.00000
    155       5.3564      0.00000
    156       5.6677      0.00000
    157       6.0663      0.00000
    158       6.0663      0.00000
    159       6.4737      0.00000
    160       6.6790      0.00000

 k-point     4 :      -0.2500   -0.2500    0.2500
  band No.  band energies     occupation 
      1     -34.9481      1.00000
      2     -34.9457      1.00000
      3     -34.9455      1.00000
      4     -34.9430      1.00000
      5     -34.8802      1.00000
      6     -34.8778      1.00000
      7     -34.8777      1.00000
      8     -34.8754      1.00000
      9     -34.7909      1.00000
     10     -34.7898      1.00000
     11     -34.7828      1.00000
     12     -34.7827      1.00000
     13     -34.7815      1.00000
     14     -34.7814      1.00000
     15     -34.7657      1.00000
     16     -34.7644      1.00000
     17     -34.7252      1.00000
     18     -34.7244      1.00000
     19     -34.7127      1.00000
     20     -34.7126      1.00000
     21     -34.6980      1.00000
     22     -34.6980      1.00000
     23     -34.6950      1.00000
     24     -34.6937      1.00000
     25     -23.1495      1.00000
     26     -23.1238      1.00000
     27     -23.1237      1.00000
     28     -23.0992      1.00000
     29     -22.8170      1.00000
     30     -22.8025      1.00000
     31     -22.8024      1.00000
     32     -22.7895      1.00000
     33     -22.4454      1.00000
     34     -22.4246      1.00000
     35     -22.4246      1.00000
     36     -22.4181      1.00000
     37     -22.2943      1.00000
     38     -22.2943      1.00000
     39     -22.2923      1.00000
     40     -22.2888      1.00000
     41     -16.7618      1.00000
     42     -16.7618      1.00000
     43     -16.7399      1.00000
     44     -16.7316      1.00000
     45     -16.5375      1.00000
     46     -16.5361      1.00000
     47     -16.5254      1.00000
     48     -16.5254      1.00000
     49      -6.6219      1.00000
     50      -6.6160      1.00000
     51      -6.6159      1.00000
     52      -6.6121      1.00000
     53      -5.8791      1.00000
     54      -5.8782      1.00000
     55      -5.8782      1.00000
     56      -5.8455      1.00000
     57      -5.7581      1.00000
     58      -5.7354      1.00000
     59      -5.7354      1.00000
     60      -5.7267      1.00000
     61      -5.6532      1.00000
     62      -5.5692      1.00000
     63      -5.5691      1.00000
     64      -5.4706      1.00000
     65      -5.1647      1.00000
     66      -5.1630      1.00000
     67      -5.1630      1.00000
     68      -5.0827      1.00000
     69      -4.8172      1.00000
     70      -4.7892      1.00000
     71      -4.6484      1.00000
     72      -4.5800      1.00000
     73      -4.5800      1.00000
     74      -4.5304      1.00000
     75      -4.4877      1.00000
     76      -4.4876      1.00000
     77      -4.4668      1.00000
     78      -4.4458      1.00000
     79      -4.3960      1.00000
     80      -4.3735      1.00000
     81      -4.3735      1.00000
     82      -4.2652      1.00000
     83      -4.1384      1.00000
     84      -4.1384      1.00000
     85      -3.8992      1.00000
     86      -3.6279      1.00000
     87      -3.6067      1.00000
     88      -3.6066      1.00000
     89      -3.5993      1.00000
     90      -3.5556      1.00000
     91      -3.4554      1.00000
     92      -3.4554      1.00000
     93      -3.4141      1.00000
     94      -3.3667      1.00000
     95      -3.3623      1.00000
     96      -3.3622      1.00000
     97      -3.2484      1.00000
     98      -3.2484      1.00000
     99      -3.2327      1.00000
    100      -3.1312      1.00000
    101      -3.1312      1.00000
    102      -3.0991      1.00000
    103      -3.0831      1.00000
    104      -3.0807      1.00000
    105      -2.9563      1.00000
    106      -2.9563      1.00000
    107      -2.3326      1.00000
    108      -2.2110      1.00000
    109      -2.2109      1.00000
    110      -2.1514      1.00000
    111      -2.1494      1.00000
    112      -2.0081      1.00000
    113      -1.8726      1.00000
    114      -1.7871      1.00000
    115      -1.7870      1.00000
    116      -1.7139      1.00000
    117      -1.3766      1.00000
    118      -1.3766      1.00000
    119      -1.0390      1.00000
    120      -1.0379      1.00000
    121       2.1461      0.00000
    122       2.1764      0.00000
    123       2.1790      0.00000
    124       2.1790      0.00000
    125       2.3932      0.00000
    126       2.4028      0.00000
    127       2.6345      0.00000
    128       2.6541      0.00000
    129       2.6541      0.00000
    130       2.6609      0.00000
    131       2.8783      0.00000
    132       2.8783      0.00000
    133       3.3301      0.00000
    134       3.3304      0.00000
    135       3.3468      0.00000
    136       3.3469      0.00000
    137       3.4314      0.00000
    138       3.4314      0.00000
    139       3.4530      0.00000
    140       3.6863      0.00000
    141       3.6874      0.00000
    142       3.7005      0.00000
    143       3.7005      0.00000
    144       3.7100      0.00000
    145       3.8094      0.00000
    146       3.8094      0.00000
    147       3.8499      0.00000
    148       4.0082      0.00000
    149       4.0565      0.00000
    150       4.2658      0.00000
    151       4.3441      0.00000
    152       4.3441      0.00000
    153       4.7048      0.00000
    154       5.3563      0.00000
    155       5.3564      0.00000
    156       5.6677      0.00000
    157       6.0663      0.00000
    158       6.0663      0.00000
    159       6.4737      0.00000
    160       6.6790      0.00000

 spin component 2

 k-point     1 :       0.2500    0.2500    0.2500
  band No.  band energies     occupation 
      1     -34.9481      1.00000
      2     -34.9456      1.00000
      3     -34.9455      1.00000
      4     -34.9431      1.00000
      5     -34.8801      1.00000
      6     -34.8779      1.00000
      7     -34.8777      1.00000
      8     -34.8754      1.00000
      9     -34.7904      1.00000
     10     -34.7893      1.00000
     11     -34.7831      1.00000
     12     -34.7831      1.00000
     13     -34.7820      1.00000
     14     -34.7819      1.00000
     15     -34.7650      1.00000
     16     -34.7637      1.00000
     17     -34.7279      1.00000
     18     -34.7269      1.00000
     19     -34.7055      1.00000
     20     -34.7055      1.00000
     21     -34.7044      1.00000
     22     -34.7043      1.00000
     23     -34.6935      1.00000
     24     -34.6923      1.00000
     25     -23.1507      1.00000
     26     -23.1226      1.00000
     27     -23.1226      1.00000
     28     -23.1004      1.00000
     29     -22.8174      1.00000
     30     -22.8021      1.00000
     31     -22.8020      1.00000
     32     -22.7899      1.00000
     33     -22.4661      1.00000
     34     -22.4428      1.00000
     35     -22.3695      1.00000
     36     -22.3695      1.00000
     37     -22.3543      1.00000
     38     -22.3542      1.00000
     39     -22.2631      1.00000
     40     -22.2627      1.00000
     41     -16.7967      1.00000
     42     -16.7898      1.00000
     43     -16.6443      1.00000
     44     -16.6443      1.00000
     45     -16.6381      1.00000
     46     -16.6380      1.00000
     47     -16.4856      1.00000
     48     -16.4829      1.00000
     49      -6.6248      1.00000
     50      -6.6140      1.00000
     51      -6.6139      1.00000
     52      -6.6136      1.00000
     53      -5.9200      1.00000
     54      -5.8956      1.00000
     55      -5.8113      1.00000
     56      -5.8113      1.00000
     57      -5.7836      1.00000
     58      -5.7836      1.00000
     59      -5.7240      1.00000
     60      -5.7131      1.00000
     61      -5.6682      1.00000
     62      -5.5635      1.00000
     63      -5.5634      1.00000
     64      -5.4731      1.00000
     65      -5.1680      1.00000
     66      -5.1680      1.00000
     67      -5.1248      1.00000
     68      -5.1156      1.00000
     69      -4.7884      1.00000
     70      -4.7581      1.00000
     71      -4.6082      1.00000
     72      -4.5608      1.00000
     73      -4.5608      1.00000
     74      -4.5578      1.00000
     75      -4.5137      1.00000
     76      -4.5137      1.00000
     77      -4.4432      1.00000
     78      -4.4388      1.00000
     79      -4.4282      1.00000
     80      -4.3824      1.00000
     81      -4.3824      1.00000
     82      -4.2914      1.00000
     83      -3.9484      1.00000
     84      -3.9484      1.00000
     85      -3.8854      1.00000
     86      -3.8854      1.00000
     87      -3.8501      1.00000
     88      -3.6203      1.00000
     89      -3.5966      1.00000
     90      -3.5966      1.00000
     91      -3.5510      1.00000
     92      -3.5117      1.00000
     93      -3.4200      1.00000
     94      -3.4200      1.00000
     95      -3.4082      1.00000
     96      -3.3918      1.00000
     97      -3.3917      1.00000
     98      -3.3625      1.00000
     99      -3.2017      1.00000
    100      -3.1406      1.00000
    101      -3.1406      1.00000
    102      -3.0814      1.00000
    103      -2.8089      1.00000
    104      -2.8053      1.00000
    105      -2.7044      1.00000
    106      -2.6920      1.00000
    107      -2.3688      1.00000
    108      -2.1875      1.00000
    109      -2.1875      1.00000
    110      -2.0130      1.00000
    111      -2.0130      1.00000
    112      -1.9913      1.00000
    113      -1.9912      1.00000
    114      -1.9876      1.00000
    115      -1.9199      1.00000
    116      -1.7947      1.00000
    117      -1.7946      1.00000
    118      -1.6814      1.00000
    119      -0.7159      1.00000
    120      -0.7148      1.00000
    121       2.1388      0.00000
    122       2.1568      0.00000
    123       2.1583      0.00000
    124       2.1647      0.00000
    125       2.1844      0.00000
    126       2.1844      0.00000
    127       2.6272      0.00000
    128       2.6535      0.00000
    129       2.6599      0.00000
    130       2.6599      0.00000
    131       3.2791      0.00000
    132       3.3252      0.00000
    133       3.3253      0.00000
    134       3.3256      0.00000
    135       3.3894      0.00000
    136       3.3896      0.00000
    137       3.4096      0.00000
    138       3.4097      0.00000
    139       3.4867      0.00000
    140       3.4868      0.00000
    141       3.5441      0.00000
    142       3.6212      0.00000
    143       3.6922      0.00000
    144       3.6922      0.00000
    145       3.7489      0.00000
    146       3.8236      0.00000
    147       3.8376      0.00000
    148       3.9377      0.00000
    149       4.1126      0.00000
    150       4.1243      0.00000
    151       4.3841      0.00000
    152       4.3841      0.00000
    153       4.8437      0.00000
    154       5.3458      0.00000
    155       5.3459      0.00000
    156       5.6634      0.00000
    157       5.9844      0.00000
    158       5.9845      0.00000
    159       6.5294      0.00000
    160       6.7402      0.00000

 k-point     2 :      -0.2500    0.2500    0.2500
  band No.  band energies     occupation 
      1     -34.9481      1.00000
      2     -34.9456      1.00000
      3     -34.9455      1.00000
      4     -34.9431      1.00000
      5     -34.8801      1.00000
      6     -34.8779      1.00000
      7     -34.8777      1.00000
      8     -34.8754      1.00000
      9     -34.7904      1.00000
     10     -34.7893      1.00000
     11     -34.7831      1.00000
     12     -34.7831      1.00000
     13     -34.7820      1.00000
     14     -34.7819      1.00000
     15     -34.7650      1.00000
     16     -34.7637      1.00000
     17     -34.7279      1.00000
     18     -34.7269      1.00000
     19     -34.7055      1.00000
     20     -34.7055      1.00000
     21     -34.7044      1.00000
     22     -34.7043      1.00000
     23     -34.6935      1.00000
     24     -34.6923      1.00000
     25     -23.1507      1.00000
     26     -23.1226      1.00000
     27     -23.1226      1.00000
     28     -23.1004      1.00000
     29     -22.8174      1.00000
     30     -22.8021      1.00000
     31     -22.8020      1.00000
     32     -22.7899      1.00000
     33     -22.4661      1.00000
     34     -22.4428      1.00000
     35     -22.3695      1.00000
     36     -22.3695      1.00000
     37     -22.3543      1.00000
     38     -22.3542      1.00000
     39     -22.2631      1.00000
     40     -22.2627      1.00000
     41     -16.7967      1.00000
     42     -16.7898      1.00000
     43     -16.6443      1.00000
     44     -16.6443      1.00000
     45     -16.6381      1.00000
     46     -16.6380      1.00000
     47     -16.4856      1.00000
     48     -16.4829      1.00000
     49      -6.6248      1.00000
     50      -6.6140      1.00000
     51      -6.6139      1.00000
     52      -6.6136      1.00000
     53      -5.9200      1.00000
     54      -5.8956      1.00000
     55      -5.8113      1.00000
     56      -5.8113      1.00000
     57      -5.7836      1.00000
     58      -5.7836      1.00000
     59      -5.7240      1.00000
     60      -5.7131      1.00000
     61      -5.6682      1.00000
     62      -5.5635      1.00000
     63      -5.5634      1.00000
     64      -5.4731      1.00000
     65      -5.1680      1.00000
     66      -5.1680      1.00000
     67      -5.1248      1.00000
     68      -5.1156      1.00000
     69      -4.7884      1.00000
     70      -4.7581      1.00000
     71      -4.6082      1.00000
     72      -4.5608      1.00000
     73      -4.5608      1.00000
     74      -4.5578      1.00000
     75      -4.5137      1.00000
     76      -4.5137      1.00000
     77      -4.4432      1.00000
     78      -4.4388      1.00000
     79      -4.4282      1.00000
     80      -4.3824      1.00000
     81      -4.3824      1.00000
     82      -4.2914      1.00000
     83      -3.9484      1.00000
     84      -3.9484      1.00000
     85      -3.8854      1.00000
     86      -3.8854      1.00000
     87      -3.8501      1.00000
     88      -3.6203      1.00000
     89      -3.5966      1.00000
     90      -3.5966      1.00000
     91      -3.5510      1.00000
     92      -3.5117      1.00000
     93      -3.4200      1.00000
     94      -3.4200      1.00000
     95      -3.4082      1.00000
     96      -3.3918      1.00000
     97      -3.3917      1.00000
     98      -3.3625      1.00000
     99      -3.2017      1.00000
    100      -3.1406      1.00000
    101      -3.1406      1.00000
    102      -3.0814      1.00000
    103      -2.8089      1.00000
    104      -2.8053      1.00000
    105      -2.7044      1.00000
    106      -2.6920      1.00000
    107      -2.3688      1.00000
    108      -2.1875      1.00000
    109      -2.1875      1.00000
    110      -2.0130      1.00000
    111      -2.0130      1.00000
    112      -1.9913      1.00000
    113      -1.9912      1.00000
    114      -1.9876      1.00000
    115      -1.9199      1.00000
    116      -1.7947      1.00000
    117      -1.7946      1.00000
    118      -1.6814      1.00000
    119      -0.7159      1.00000
    120      -0.7148      1.00000
    121       2.1388      0.00000
    122       2.1568      0.00000
    123       2.1583      0.00000
    124       2.1647      0.00000
    125       2.1844      0.00000
    126       2.1844      0.00000
    127       2.6272      0.00000
    128       2.6535      0.00000
    129       2.6599      0.00000
    130       2.6599      0.00000
    131       3.2791      0.00000
    132       3.3252      0.00000
    133       3.3253      0.00000
    134       3.3256      0.00000
    135       3.3894      0.00000
    136       3.3896      0.00000
    137       3.4096      0.00000
    138       3.4097      0.00000
    139       3.4867      0.00000
    140       3.4868      0.00000
    141       3.5441      0.00000
    142       3.6212      0.00000
    143       3.6922      0.00000
    144       3.6922      0.00000
    145       3.7489      0.00000
    146       3.8236      0.00000
    147       3.8376      0.00000
    148       3.9377      0.00000
    149       4.1126      0.00000
    150       4.1243      0.00000
    151       4.3841      0.00000
    152       4.3841      0.00000
    153       4.8437      0.00000
    154       5.3458      0.00000
    155       5.3459      0.00000
    156       5.6634      0.00000
    157       5.9844      0.00000
    158       5.9845      0.00000
    159       6.5294      0.00000
    160       6.7402      0.00000

 k-point     3 :       0.2500   -0.2500    0.2500
  band No.  band energies     occupation 
      1     -34.9481      1.00000
      2     -34.9457      1.00000
      3     -34.9455      1.00000
      4     -34.9430      1.00000
      5     -34.8802      1.00000
      6     -34.8778      1.00000
      7     -34.8777      1.00000
      8     -34.8754      1.00000
      9     -34.7909      1.00000
     10     -34.7898      1.00000
     11     -34.7828      1.00000
     12     -34.7827      1.00000
     13     -34.7815      1.00000
     14     -34.7814      1.00000
     15     -34.7657      1.00000
     16     -34.7644      1.00000
     17     -34.7252      1.00000
     18     -34.7244      1.00000
     19     -34.7127      1.00000
     20     -34.7126      1.00000
     21     -34.6980      1.00000
     22     -34.6980      1.00000
     23     -34.6950      1.00000
     24     -34.6937      1.00000
     25     -23.1495      1.00000
     26     -23.1238      1.00000
     27     -23.1237      1.00000
     28     -23.0992      1.00000
     29     -22.8170      1.00000
     30     -22.8025      1.00000
     31     -22.8024      1.00000
     32     -22.7895      1.00000
     33     -22.4454      1.00000
     34     -22.4246      1.00000
     35     -22.4246      1.00000
     36     -22.4181      1.00000
     37     -22.2943      1.00000
     38     -22.2943      1.00000
     39     -22.2923      1.00000
     40     -22.2888      1.00000
     41     -16.7618      1.00000
     42     -16.7618      1.00000
     43     -16.7399      1.00000
     44     -16.7316      1.00000
     45     -16.5375      1.00000
     46     -16.5361      1.00000
     47     -16.5254      1.00000
     48     -16.5254      1.00000
     49      -6.6219      1.00000
     50      -6.6160      1.00000
     51      -6.6159      1.00000
     52      -6.6121      1.00000
     53      -5.8791      1.00000
     54      -5.8782      1.00000
     55      -5.8782      1.00000
     56      -5.8455      1.00000
     57      -5.7581      1.00000
     58      -5.7354      1.00000
     59      -5.7354      1.00000
     60      -5.7267      1.00000
     61      -5.6532      1.00000
     62      -5.5692      1.00000
     63      -5.5691      1.00000
     64      -5.4706      1.00000
     65      -5.1647      1.00000
     66      -5.1630      1.00000
     67      -5.1630      1.00000
     68      -5.0827      1.00000
     69      -4.8172      1.00000
     70      -4.7892      1.00000
     71      -4.6484      1.00000
     72      -4.5800      1.00000
     73      -4.5800      1.00000
     74      -4.5304      1.00000
     75      -4.4877      1.00000
     76      -4.4876      1.00000
     77      -4.4668      1.00000
     78      -4.4458      1.00000
     79      -4.3960      1.00000
     80      -4.3735      1.00000
     81      -4.3735      1.00000
     82      -4.2652      1.00000
     83      -4.1384      1.00000
     84      -4.1384      1.00000
     85      -3.8992      1.00000
     86      -3.6279      1.00000
     87      -3.6067      1.00000
     88      -3.6066      1.00000
     89      -3.5993      1.00000
     90      -3.5556      1.00000
     91      -3.4554      1.00000
     92      -3.4554      1.00000
     93      -3.4141      1.00000
     94      -3.3667      1.00000
     95      -3.3623      1.00000
     96      -3.3622      1.00000
     97      -3.2484      1.00000
     98      -3.2484      1.00000
     99      -3.2327      1.00000
    100      -3.1312      1.00000
    101      -3.1312      1.00000
    102      -3.0991      1.00000
    103      -3.0831      1.00000
    104      -3.0807      1.00000
    105      -2.9563      1.00000
    106      -2.9563      1.00000
    107      -2.3326      1.00000
    108      -2.2110      1.00000
    109      -2.2109      1.00000
    110      -2.1514      1.00000
    111      -2.1494      1.00000
    112      -2.0081      1.00000
    113      -1.8726      1.00000
    114      -1.7871      1.00000
    115      -1.7870      1.00000
    116      -1.7139      1.00000
    117      -1.3766      1.00000
    118      -1.3766      1.00000
    119      -1.0390      1.00000
    120      -1.0379      1.00000
    121       2.1461      0.00000
    122       2.1764      0.00000
    123       2.1790      0.00000
    124       2.1790      0.00000
    125       2.3932      0.00000
    126       2.4028      0.00000
    127       2.6345      0.00000
    128       2.6541      0.00000
    129       2.6541      0.00000
    130       2.6609      0.00000
    131       2.8783      0.00000
    132       2.8783      0.00000
    133       3.3301      0.00000
    134       3.3304      0.00000
    135       3.3468      0.00000
    136       3.3469      0.00000
    137       3.4314      0.00000
    138       3.4314      0.00000
    139       3.4530      0.00000
    140       3.6863      0.00000
    141       3.6874      0.00000
    142       3.7005      0.00000
    143       3.7005      0.00000
    144       3.7100      0.00000
    145       3.8094      0.00000
    146       3.8094      0.00000
    147       3.8499      0.00000
    148       4.0082      0.00000
    149       4.0565      0.00000
    150       4.2658      0.00000
    151       4.3441      0.00000
    152       4.3441      0.00000
    153       4.7048      0.00000
    154       5.3563      0.00000
    155       5.3564      0.00000
    156       5.6677      0.00000
    157       6.0663      0.00000
    158       6.0663      0.00000
    159       6.4737      0.00000
    160       6.6790      0.00000

 k-point     4 :      -0.2500   -0.2500    0.2500
  band No.  band energies     occupation 
      1     -34.9481      1.00000
      2     -34.9457      1.00000
      3     -34.9455      1.00000
[...]
  0.000   0.000  -0.000  -0.000  -0.000   0.000  -0.000   0.000   0.000   0.000  -0.000  -0.000   0.000   0.000  -0.000  -0.000
 -0.000  -0.000   0.000   0.000  -0.000   0.000  -0.000   0.000   0.000  -0.000   0.000   0.000  -0.000  -0.000  -0.000   0.000
 -0.000  -0.000   0.000   0.000   0.000  -0.000   0.000   0.000  -0.000  -0.000   0.000  -0.000  -0.000   0.000   0.000  -0.000
 -0.000   0.000   0.000   0.000  -0.000  -0.000   0.000   0.000   0.000   0.000  -0.000  -0.000  -0.000  -0.000  -0.000   0.000
  0.000  -0.000   0.000  -0.000  -0.000  -0.000  -0.000   0.000   0.000   0.000  -0.000   0.000  -0.000  -0.000   0.000   0.000
 -0.000  -0.000   0.000   0.000   0.000  -0.000   0.000   0.000  -0.000  -0.000  -0.000   0.000  -0.000   0.000  -0.000   0.000
  0.000   0.000   0.000  -0.000  -0.000  -0.000  -0.000  -0.000  -0.000  -0.000   0.000  -0.000   0.000   0.000   0.000  -0.000
  0.000   0.000   0.000   0.000  -0.000  -0.000   0.000   0.000   0.000  -0.000   0.000  -0.000  -0.000   0.000   0.000  -0.000
  0.000   0.000   0.000   0.000  -0.000  -0.000   0.000   0.000  -0.000   0.000   0.000  -0.000   0.000   0.000  -0.000  -0.000


------------------------ aborting loop because EDIFF is reached ----------------------------------------


 


 total charge     
 
# of ion       s       p       d       tot
------------------------------------------
    1        0.319   6.463   1.768   8.549
    2        0.319   6.463   1.768   8.549
    3        0.319   6.463   1.768   8.549
    4        0.319   6.463   1.768   8.549
    5        0.319   6.463   1.768   8.549
    6        0.319   6.463   1.768   8.549
    7        0.319   6.463   1.768   8.549
    8        0.319   6.463   1.768   8.549
    9        1.571   3.475   0.000   5.046
   10        1.571   3.475   0.000   5.046
   11        1.571   3.475   0.000   5.046
   12        1.571   3.475   0.000   5.046
   13        1.571   3.475   0.000   5.046
   14        1.571   3.475   0.000   5.046
   15        1.571   3.475   0.000   5.046
   16        1.571   3.475   0.000   5.046
   17        1.729   4.384   0.000   6.112
   18        1.729   4.384   0.000   6.112
   19        1.729   4.384   0.000   6.112
   20        1.729   4.384   0.000   6.112
   21        1.729   4.384   0.000   6.112
   22        1.729   4.384   0.000   6.112
   23        1.729   4.384   0.000   6.112
   24        1.729   4.384   0.000   6.112
   25        1.729   4.376   0.000   6.105
   26        1.729   4.376   0.000   6.105
   27        1.729   4.376   0.000   6.105
   28        1.729   4.376   0.000   6.105
   29        1.729   4.376   0.000   6.105
   30        1.729   4.376   0.000   6.105
   31        1.729   4.376   0.000   6.105
   32        1.729   4.376   0.000   6.105
--------------------------------------------------
tot         42.778 149.577  14.145 206.500
 


 magnetization (x)
 
# of ion       s       p       d       tot
------------------------------------------
    1       -0.000   0.000   0.000   0.000
    2       -0.000   0.000   0.000   0.000
    3       -0.000   0.000   0.000   0.000
    4       -0.000   0.000   0.000   0.000
    5       -0.000   0.000   0.000   0.000
    6        0.000   0.000   0.000   0.000
    7        0.000   0.000   0.000   0.000
    8       -0.000   0.000   0.000   0.000
    9       -0.000  -0.000   0.000  -0.000
   10       -0.000  -0.000   0.000  -0.000
   11        0.000  -0.000   0.000  -0.000
   12       -0.000  -0.000   0.000  -0.000
   13       -0.000  -0.000   0.000  -0.000
   14       -0.000  -0.000   0.000  -0.000
   15       -0.000  -0.000   0.000  -0.000
   16       -0.000  -0.000   0.000  -0.000
   17        0.000   0.000   0.000   0.000
   18        0.000   0.000   0.000   0.000
   19        0.000   0.000   0.000   0.000
   20        0.000   0.000   0.000   0.000
   21       -0.000   0.000   0.000   0.000
   22        0.000   0.000   0.000   0.000
   23        0.000   0.000   0.000   0.000
   24       -0.000   0.000   0.000   0.000
   25        0.000   0.000   0.000   0.000
   26       -0.000   0.000   0.000   0.000
   27        0.000   0.000   0.000   0.000
   28        0.000   0.000   0.000   0.000
   29       -0.000   0.000   0.000   0.000
   30       -0.000   0.000   0.000   0.000
   31       -0.000   0.000   0.000   0.000
   32       -0.000   0.000   0.000   0.000
--------------------------------------------------
tot         -0.000  -0.000   0.000   0.000
 
    CHARGE:  cpu time    0.3899: real time    0.3891
    FORLOC:  cpu time    0.0110: real time    0.0110
    FORNL :  cpu time    2.0867: real time    2.0792
    STRESS:  cpu time    6.4220: real time    6.4231
    FORCOR:  cpu time    0.1280: real time    0.1290
    FORHAR:  cpu time    0.0220: real time    0.0213
    MIXING:  cpu time    0.0010: real time    0.0016
    OFIELD:  cpu time    0.0000: real time    0.0000

  FORCE on cell =-STRESS in cart. coord.  units (eV):
  Direction    XX          YY          ZZ          XY          YZ          ZX
  --------------------------------------------------------------------------------------
  Alpha Z   756.87390   756.87390   756.87390
  Ewald   -4307.25892 -4242.74582 -4242.79366     0.00000   -39.49045     0.00001
  Hartree  2729.43920  2756.97593  2756.95103     0.00000   -11.93818     0.00000
  E(xc)   -1232.17135 -1232.70307 -1232.70304    -0.00000     0.08906     0.00000
  Local   -2060.69800 -2211.36426 -2211.29370    -0.00000    53.64081    -0.00001
  n-local  -975.41362  -963.92958  -963.93050     0.00000    -1.98463     0.00000
  augment   743.97263   763.46424   763.46447    -0.00000    -1.78527     0.00000
  Kinetic  4345.43573  4373.48761  4373.48730    -0.00000     1.47672    -0.00000
  Fock        0.00000     0.00000     0.00000     0.00000     0.00000     0.00000
  -------------------------------------------------------------------------------------
  Total       0.17957     0.05896     0.05580    -0.00000     0.00807     0.00000
  in kB       0.62187     0.20420     0.19322    -0.00000     0.02794     0.00000
  external pressure =        0.34 kB  Pullay stress =        0.00 kB


 VOLUME and BASIS-vectors are now :
 -----------------------------------------------------------------------------
  energy-cutoff  :      700.00
  volume of cell :      462.65
      direct lattice vectors                 reciprocal lattice vectors
     7.868847846  0.000000001  0.000000008     0.127083408 -0.000000000 -0.000000000
     0.000000001  7.667776779  0.005308694    -0.000000000  0.130415961 -0.000090285
     0.000000007  0.005308315  7.667789309    -0.000000000 -0.000090292  0.130415748

  length of vectors
     7.868847846  7.667778617  7.667791146     0.127083408  0.130415992  0.130415779


 FORCES acting on ions
    electron-ion (+dipol)            ewald-force                    non-local-force                 convergence-correction
 -----------------------------------------------------------------------------------------------
   0.295E-06 -.225E+01 -.224E+01   -.346E-06 0.118E+01 0.118E+01   0.382E-07 0.106E+01 0.106E+01   -.628E-08 -.481E-04 -.566E-04
   -.209E-06 0.225E+01 0.225E+01   0.259E-06 -.119E+01 -.119E+01   -.359E-07 -.106E+01 -.106E+01   0.854E-10 0.470E-04 0.584E-04
   -.221E-06 0.225E+01 0.225E+01   0.267E-06 -.119E+01 -.119E+01   -.346E-07 -.106E+01 -.106E+01   0.174E-08 0.584E-04 0.467E-04
   0.254E-06 -.225E+01 -.224E+01   -.302E-06 0.119E+01 0.118E+01   0.390E-07 0.106E+01 0.106E+01   -.586E-08 -.484E-04 -.398E-04
   -.393E-06 0.225E+01 0.224E+01   0.454E-06 -.119E+01 -.118E+01   -.346E-07 -.106E+01 -.106E+01   -.118E-07 0.451E-04 0.281E-04
   0.254E-06 -.225E+01 -.225E+01   -.289E-06 0.119E+01 0.119E+01   0.410E-07 0.106E+01 0.106E+01   -.176E-07 -.238E-04 -.665E-04
   0.230E-06 -.225E+01 -.225E+01   -.265E-06 0.119E+01 0.118E+01   0.384E-07 0.106E+01 0.106E+01   -.164E-07 -.704E-04 -.290E-04
   -.373E-06 0.225E+01 0.225E+01   0.430E-06 -.119E+01 -.119E+01   -.304E-07 -.106E+01 -.106E+01   -.119E-07 0.246E-04 0.429E-04
   0.175E-07 -.640E-02 0.862E-03   -.172E-07 0.692E-02 -.966E-03   0.610E-08 -.158E-03 0.796E-04   -.394E-08 0.587E-05 0.230E-05
   0.514E-07 -.108E-01 0.131E-02   -.541E-07 0.118E-01 -.141E-02   0.928E-08 -.292E-03 0.563E-04   -.390E-08 -.380E-04 -.769E-06
   -.596E-07 0.102E-01 -.559E-03   0.697E-07 -.111E-01 0.610E-03   -.339E-08 0.290E-03 -.373E-05   -.584E-08 0.489E-04 -.758E-07
   -.551E-07 0.253E-02 -.101E-02   0.629E-07 -.271E-02 0.111E-02   -.633E-09 0.342E-04 -.951E-04   -.612E-08 -.109E-04 -.239E-05
   0.545E-07 0.119E-02 -.711E-02   -.553E-07 -.132E-02 0.773E-02   0.645E-08 0.101E-03 -.142E-03   -.308E-08 -.705E-06 -.210E-04
   0.421E-07 0.884E-03 -.101E-01   -.411E-07 -.959E-03 0.109E-01   0.481E-08 0.283E-04 -.299E-03   -.331E-08 0.237E-05 -.111E-04
   0.377E-09 -.656E-03 0.155E-01   0.433E-08 0.680E-03 -.169E-01   0.383E-08 0.519E-04 0.486E-03   -.664E-08 0.126E-05 0.872E-04
   0.121E-07 -.916E-03 -.285E-02   -.907E-08 0.105E-02 0.320E-02   0.605E-08 -.154E-03 -.176E-03   -.670E-08 -.372E-05 -.492E-04
   -.162E-02 0.187E-03 -.133E-03   0.167E-02 -.244E-03 0.160E-03   0.596E-04 0.693E-04 -.147E-04   -.320E-04 -.900E-06 -.323E-05
   0.807E-03 0.401E-03 -.520E-03   -.834E-03 -.500E-03 0.549E-03   -.467E-04 0.109E-03 -.235E-04   0.314E-04 0.142E-05 -.833E-06
   -.190E-02 -.133E-03 0.802E-03   0.193E-02 0.190E-03 -.866E-03   0.703E-04 -.707E-04 0.538E-04   -.191E-04 0.108E-06 0.247E-05
   0.210E-02 -.941E-04 0.238E-03   -.214E-02 0.175E-03 -.252E-03   -.981E-04 -.986E-04 0.124E-06   0.357E-04 -.996E-06 0.105E-05
   0.162E-02 0.187E-03 -.133E-03   -.167E-02 -.244E-03 0.160E-03   -.596E-04 0.693E-04 -.147E-04   0.320E-04 -.899E-06 -.323E-05
   -.807E-03 0.401E-03 -.520E-03   0.834E-03 -.500E-03 0.549E-03   0.467E-04 0.109E-03 -.235E-04   -.314E-04 0.142E-05 -.834E-06
   0.190E-02 -.133E-03 0.802E-03   -.193E-02 0.190E-03 -.866E-03   -.703E-04 -.707E-04 0.538E-04   0.191E-04 0.106E-06 0.247E-05
   -.210E-02 -.941E-04 0.238E-03   0.214E-02 0.175E-03 -.252E-03   0.981E-04 -.986E-04 0.104E-06   -.356E-04 -.994E-06 0.105E-05
   0.223E-07 0.180E-02 0.702E-03   -.242E-07 -.147E-02 -.684E-03   0.611E-08 -.518E-03 -.358E-04   -.248E-08 0.319E-04 -.895E-06
   0.894E-08 0.119E-02 0.306E-03   -.482E-08 -.100E-02 -.334E-03   -.136E-08 -.263E-03 0.168E-04   -.222E-08 -.465E-05 0.315E-05
   -.125E-07 -.600E-03 -.686E-03   0.149E-07 0.519E-03 0.751E-03   0.841E-08 0.105E-03 -.632E-04   -.853E-08 0.873E-05 -.267E-05
   -.393E-07 -.166E-02 -.584E-04   0.443E-07 0.135E-02 0.843E-05   0.552E-08 0.497E-03 0.687E-04   -.830E-08 -.437E-04 0.296E-06
   0.422E-07 0.697E-03 0.143E-02   -.464E-07 -.743E-03 -.120E-02   0.887E-08 0.383E-04 -.355E-03   -.313E-08 -.115E-05 0.177E-04
   0.244E-07 0.363E-03 0.155E-02   -.283E-07 -.336E-03 -.127E-02   0.929E-08 -.495E-04 -.417E-03   -.272E-08 0.358E-05 0.985E-05
   -.992E-08 -.708E-04 -.226E-02   0.916E-08 -.502E-04 0.180E-02   0.809E-08 0.151E-03 0.752E-03   -.637E-08 0.208E-05 -.755E-04
   -.195E-07 -.635E-03 -.157E-04   0.190E-07 0.772E-03 0.104E-03   0.787E-08 -.145E-03 -.166E-03   -.622E-08 -.449E-05 0.407E-04
 -----------------------------------------------------------------------------------------------
   0.456E-07 0.310E-03 0.306E-03   -.238E-12 -.503E-14 -.116E-13   0.954E-07 -.290E-03 -.284E-03   -.122E-06 -.189E-04 -.192E-04
 
 
 POSITION                                       TOTAL-FORCE (eV/Angst)
 -----------------------------------------------------------------------------------
      0.00000      7.57528      7.57530        -0.000000     -0.000657     -0.000868
      7.86885      0.10046      3.93170         0.000000      0.000256      0.000577
      7.86885      3.93170      0.10046         0.000000      0.000249      0.000542
      0.00000      3.73874      3.73875        -0.000000     -0.000481     -0.000883
      3.93442      0.09780      0.09780         0.000000      0.000538      0.000977
      3.93442      7.57262      3.74140        -0.000000     -0.000461     -0.000410
      3.93442      3.74138      7.57265        -0.000000     -0.000153     -0.000819
      3.93442      3.93435      3.93435         0.000000      0.000558      0.000730
      7.86885      1.91959      3.83522         0.000000      0.000368     -0.000022
      7.86885      5.75082      0.00398         0.000000      0.000638     -0.000046
      3.93442      1.92226      7.66912         0.000000     -0.000597      0.000047
      3.93442      5.75349      3.83788         0.000000     -0.000160      0.000002
      7.86885      0.00398      5.75083         0.000000     -0.000025      0.000450
      0.00000      3.83522      1.91959         0.000000     -0.000044      0.000556
      3.93442      7.66910      1.92227         0.000000      0.000077     -0.000881
      3.93442      3.83787      5.75349         0.000000     -0.000028      0.000125
      1.96721      7.67309      7.67310         0.000076      0.000012      0.000008
      1.96721      7.67043      3.83920        -0.000042      0.000012      0.000005
      1.96721      3.83389      0.00266         0.000083     -0.000013     -0.000007
      1.96721      3.83654      3.83655        -0.000097     -0.000018     -0.000013
      5.90164      7.67309      7.67310        -0.000076      0.000012      0.000008
      5.90164      7.67043      3.83920         0.000042      0.000012      0.000005
      5.90164      3.83389      0.00266        -0.000083     -0.000013     -0.000007
      5.90163      3.83654      3.83655         0.000097     -0.000018     -0.000013
      0.00000      1.91695      0.00133         0.000000     -0.000153     -0.000018
      0.00000      5.75349      3.83788        -0.000000     -0.000082     -0.000008
      3.93442      1.91960      3.83522         0.000000      0.000033     -0.000001
      3.93442      5.75083      0.00398         0.000000      0.000147      0.000019
      7.86885      0.00133      1.91695         0.000000     -0.000009     -0.000109
      7.86885      3.83787      5.75350         0.000000     -0.000018     -0.000125
      3.93442      7.67176      5.75615         0.000000      0.000032      0.000216
      3.93442      3.83522      1.91960         0.000000     -0.000013     -0.000037
 -----------------------------------------------------------------------------------
    total drift:                                0.000000      0.000001      0.000002


--------------------------------------------------------------------------------------------------------



  FREE ENERGIE OF THE ION-ELECTRON SYSTEM (eV)
  ---------------------------------------------------
  free  energy   TOTEN  =      -213.60106348 eV

  energy  without entropy=     -213.60106348  energy(sigma->0) =     -213.60106348
 


--------------------------------------------------------------------------------------------------------


    POTLOK:  cpu time    0.9779: real time    0.9754


--------------------------------------------------------------------------------------------------------


 stress matrix after NEB project (eV)
      0.17957     -0.00000      0.00000
     -0.00000      0.05896      0.00807
     -0.00000      0.00807      0.05580
  FORCES: max atom, RMS     0.001115    0.000517
  FORCE total and by dimension    0.002922    0.000977
  Stress total and by dimension    0.197398    0.179571
 Quasi-Newton relaxation of ions (Broydens 2nd method)
  g(Force)  = 0.412E-06   g(Stress)= 0.587E-04

 Reset! Starting new Quasi-Newton update for ions 


--------------------------------------------------------------------------------------------------------


  
 reached required accuracy - stopping structural energy minimisation
 writing wavefunctions
     LOOP+:  cpu time   42.8065: real time   49.9870
    4ORBIT:  cpu time    0.0000: real time    0.0000
 


 total charge     
 
# of ion       s       p       d       tot
------------------------------------------
    1        0.319   6.463   1.768   8.549
    2        0.319   6.463   1.768   8.549
    3        0.319   6.463   1.768   8.549
    4        0.319   6.463   1.768   8.549
    5        0.319   6.463   1.768   8.549
    6        0.319   6.463   1.768   8.549
    7        0.319   6.463   1.768   8.549
    8        0.319   6.463   1.768   8.549
    9        1.571   3.475   0.000   5.046
   10        1.571   3.475   0.000   5.046
   11        1.571   3.475   0.000   5.046
   12        1.571   3.475   0.000   5.046
   13        1.571   3.475   0.000   5.046
   14        1.571   3.475   0.000   5.046
   15        1.571   3.475   0.000   5.046
   16        1.571   3.475   0.000   5.046
   17        1.729   4.384   0.000   6.112
   18        1.729   4.384   0.000   6.112
   19        1.729   4.384   0.000   6.112
   20        1.729   4.384   0.000   6.112
   21        1.729   4.384   0.000   6.112
   22        1.729   4.384   0.000   6.112
   23        1.729   4.384   0.000   6.112
   24        1.729   4.384   0.000   6.112
   25        1.729   4.376   0.000   6.105
   26        1.729   4.376   0.000   6.105
   27        1.729   4.376   0.000   6.105
   28        1.729   4.376   0.000   6.105
   29        1.729   4.376   0.000   6.105
   30        1.729   4.376   0.000   6.105
   31        1.729   4.376   0.000   6.105
   32        1.729   4.376   0.000   6.105
--------------------------------------------------
tot         42.778 149.577  14.145 206.500
 


 magnetization (x)
 
# of ion       s       p       d       tot
------------------------------------------
    1       -0.000   0.000   0.000   0.000
    2       -0.000   0.000   0.000   0.000
    3       -0.000   0.000   0.000   0.000
    4       -0.000   0.000   0.000   0.000
    5       -0.000   0.000   0.000   0.000
    6        0.000   0.000   0.000   0.000
    7        0.000   0.000   0.000   0.000
    8       -0.000   0.000   0.000   0.000
    9       -0.000  -0.000   0.000  -0.000
   10       -0.000  -0.000   0.000  -0.000
   11        0.000  -0.000   0.000  -0.000
   12       -0.000  -0.000   0.000  -0.000
   13       -0.000  -0.000   0.000  -0.000
   14       -0.000  -0.000   0.000  -0.000
   15       -0.000  -0.000   0.000  -0.000
   16       -0.000  -0.000   0.000  -0.000
   17        0.000   0.000   0.000   0.000
   18        0.000   0.000   0.000   0.000
   19        0.000   0.000   0.000   0.000
   20        0.000   0.000   0.000   0.000
   21       -0.000   0.000   0.000   0.000
   22        0.000   0.000   0.000   0.000
   23        0.000   0.000   0.000   0.000
   24       -0.000   0.000   0.000   0.000
   25        0.000   0.000   0.000   0.000
   26       -0.000   0.000   0.000   0.000
   27        0.000   0.000   0.000   0.000
   28        0.000   0.000   0.000   0.000
   29       -0.000   0.000   0.000   0.000
   30       -0.000   0.000   0.000   0.000
   31       -0.000   0.000   0.000   0.000
   32       -0.000   0.000   0.000   0.000
--------------------------------------------------
tot         -0.000  -0.000   0.000   0.000
 

 total amount of memory used by VASP MPI-rank0    62263. kBytes
=======================================================================

   base      :      30000. kBytes
   nonlr-proj:       8565. kBytes
   fftplans  :       8422. kBytes
   grid      :       8783. kBytes
   one-center:        124. kBytes
   wavefun   :       6369. kBytes
 
  
  
 General timing and accounting informations for this job:
 ========================================================
  
                  Total CPU time used (sec):       60.170
                            User time (sec):       53.572
                          System time (sec):        6.598
                         Elapsed time (sec):       75.410
  
                   Maximum memory used (kb):      175588.
                   Average memory used (kb):           0.
  
                          Minor page faults:        29669
                          Major page faults:            2
                 Voluntary context switches:        15247
