 vasp.5.4.4.18Apr17-6-g9f103f2a35 (build Apr 30 2017 20:10:35) complex          
  
 executed on             LinuxIFC date 2017.08.09  13:41:27
 running on   64 total cores
 distrk:  each k-point on   64 cores,    1 groups
 distr:  one band on NCORES_PER_BAND=   8 cores,    8 groups


--------------------------------------------------------------------------------------------------------


 INCAR:
 POTCAR:   PAW_PBE Ti_pv 07Sep2000                
 POTCAR:   PAW_PBE O 08Apr2002                    
 POTCAR:    PAW_PBE F 08Apr2002                   
 POTCAR:   PAW_PBE Ti_pv 07Sep2000                
   VRHFIN =Ti: d3 s1                                                            
   LEXCH  = PE                                                                  
   EATOM  =  1042.3781 eV,   76.6126 Ry                                         
                                                                                
   TITEL  = PAW_PBE Ti_pv 07Sep2000                                             
   LULTRA =        F    use ultrasoft PP ?                                      
   IUNSCR =        1    unscreen: 0-lin 1-nonlin 2-no                           
   RPACOR =    2.200    partial core radius                                     
   POMASS =   47.880; ZVAL   =   10.000    mass and valenz                      
   RCORE  =    2.500    outmost cutoff radius                                   
   RWIGS  =    2.500; RWIGS  =    1.323    wigner-seitz radius (au A)           
   ENMAX  =  222.338; ENMIN  =  166.753 eV                                      
   RCLOC  =    1.701    cutoff for local pot                                    
   LCOR   =        T    correct aug charges                                     
   LPAW   =        T    paw PP                                                  
   EAUG   =  482.848                                                            
   DEXC   =    -.008                                                            
   RMAX   =    3.092    core radius for proj-oper                               
   RAUG   =    1.300    factor for augmentation sphere                          
   RDEP   =    2.538    radius for radial grids                                 
   QCUT   =   -4.042; QGAM   =    8.085    optimization parameters              
                                                                                
   Description                                                                  
     l     E      TYP  RCUT    TYP  RCUT                                        
     1   .000     23  2.300                                                     
     1  -.100     23  2.300                                                     
     2   .000     23  2.500                                                     
     2   .000     23  2.500                                                     
     0   .000     23  2.500                                                     
     0  1.500     23  2.500                                                     
     3   .000      7   .000                                                     
  local pseudopotential read in
  partial core-charges read in
  atomic valenz-charges read in
  non local Contribution for L=           1  read in
    real space projection operators read in
  non local Contribution for L=           1  read in
    real space projection operators read in
  non local Contribution for L=           2  read in
    real space projection operators read in
  non local Contribution for L=           2  read in
    real space projection operators read in
  non local Contribution for L=           0  read in
    real space projection operators read in
  non local Contribution for L=           0  read in
    real space projection operators read in
    PAW grid and wavefunctions read in
 
   number of l-projection  operators is LMAX  =           6
   number of lm-projection operators is LMMAX =          18
 
 POTCAR:   PAW_PBE O 08Apr2002                    
   VRHFIN =O: s2p4                                                              
   LEXCH  = PE                                                                  
   EATOM  =   432.3788 eV,   31.7789 Ry                                         
                                                                                
   TITEL  = PAW_PBE O 08Apr2002                                                 
   LULTRA =        F    use ultrasoft PP ?                                      
   IUNSCR =        0    unscreen: 0-lin 1-nonlin 2-no                           
   RPACOR =     .000    partial core radius                                     
   POMASS =   16.000; ZVAL   =    6.000    mass and valenz                      
   RCORE  =    1.520    outmost cutoff radius                                   
   RWIGS  =    1.550; RWIGS  =     .820    wigner-seitz radius (au A)           
   ENMAX  =  400.000; ENMIN  =  300.000 eV                                      
   ICORE  =        2    local potential                                         
   LCOR   =        T    correct aug charges                                     
   LPAW   =        T    paw PP                                                  
   EAUG   =  605.392                                                            
   DEXC   =     .000                                                            
   RMAX   =    2.264    core radius for proj-oper                               
   RAUG   =    1.300    factor for augmentation sphere                          
   RDEP   =    1.550    radius for radial grids                                 
   QCUT   =   -5.520; QGAM   =   11.041    optimization parameters              
                                                                                
   Description                                                                  
     l     E      TYP  RCUT    TYP  RCUT                                        
     0   .000     23  1.200                                                     
     0  -.700     23  1.200                                                     
     1   .000     23  1.520                                                     
     1   .600     23  1.520                                                     
     2   .000      7  1.500                                                     
  local pseudopotential read in
  atomic valenz-charges read in
  non local Contribution for L=           0  read in
    real space projection operators read in
  non local Contribution for L=           0  read in
    real space projection operators read in
  non local Contribution for L=           1  read in
    real space projection operators read in
  non local Contribution for L=           1  read in
    real space projection operators read in
    PAW grid and wavefunctions read in
 
   number of l-projection  operators is LMAX  =           4
   number of lm-projection operators is LMMAX =           8
 
 POTCAR:    PAW_PBE F 08Apr2002                   
   VRHFIN =F: s2p5                                                              
   LEXCH  = PE                                                                  
   EATOM  =   659.6475 eV,   48.4827 Ry                                         
                                                                                
   TITEL  = PAW_PBE F 08Apr2002                                                 
   LULTRA =        F    use ultrasoft PP ?                                      
   IUNSCR =        1    unscreen: 0-lin 1-nonlin 2-no                           
   RPACOR =    1.200    partial core radius                                     
   POMASS =   18.998; ZVAL   =    7.000    mass and valenz                      
   RCORE  =    1.520    outmost cutoff radius                                   
   RWIGS  =    1.500; RWIGS  =    0.794    wigner-seitz radius (au A)           
   ENMAX  =  400.000; ENMIN  =  300.000 eV                                      
   ICORE  =        2    local potential                                         
   LCOR   =        T    correct aug charges                                     
   LPAW   =        T    paw PP                                                  
   EAUG   =  613.614                                                            
   RMAX   =    1.555    core radius for proj-oper                               
   RAUG   =    1.300    factor for augmentation sphere                          
   RDEP   =    1.539    radius for radial grids                                 
   RDEPT  =    1.299    core radius for aug-charge                              
                                                                                
   Atomic configuration                                                         
    4 entries                                                                   
     n  l   j            E        occ.                                          
     1  0  0.50      -663.3661   2.0000                                         
     2  0  0.50       -29.8995   2.0000                                         
     2  1  0.50       -11.1114   5.0000                                         
     3  2  1.50       -10.8847   0.0000                                         
   Description                                                                  
     l       E           TYP  RCUT    TYP  RCUT                                 
     0    -29.8995018     23  1.200                                             
     0     -9.5240782     23  1.200                                             
     1    -11.1113914     23  1.520                                             
     1      1.3605826     23  1.520                                             
     2    -10.8846608      7  1.500                                             
  local pseudopotential read in
  partial core-charges read in
  partial kinetic energy density read in
  atomic valenz-charges read in
  non local Contribution for L=           0  read in
    real space projection operators read in
  non local Contribution for L=           0  read in
    real space projection operators read in
  non local Contribution for L=           1  read in
    real space projection operators read in
  non local Contribution for L=           1  read in
    real space projection operators read in
    PAW grid and wavefunctions read in
 
   number of l-projection  operators is LMAX  =           4
   number of lm-projection operators is LMMAX =           8
 
 Optimization of the real space projectors (new method)

 maximal supplied QI-value         = 15.12
 optimisation between [QCUT,QGAM] = [ 13.45, 27.06] = [ 50.69,205.06] Ry 
 Optimized for a Real-space Cutoff    1.49 Angstroem

   l    n(q)    QCUT    max X(q) W(low)/X(q) W(high)/X(q)  e(spline) 
   1     12    13.455     4.841    0.13E-05    0.83E-06    0.56E-07
   1     12    13.455     5.701    0.32E-04    0.25E-04    0.17E-06
   2     11    13.455     4.569    0.64E-05    0.34E-05    0.50E-07
   2     11    13.455    32.276    0.49E-04    0.38E-04    0.46E-06
   0     12    13.455    30.046    0.17E-04    0.41E-05    0.51E-07
   0     12    13.455    45.433    0.12E-04    0.27E-04    0.38E-06
 Optimization of the real space projectors (new method)

 maximal supplied QI-value         = 24.76
 optimisation between [QCUT,QGAM] = [ 13.37, 26.98] = [ 50.04,203.89] Ry 
 Optimized for a Real-space Cutoff    1.17 Angstroem

   l    n(q)    QCUT    max X(q) W(low)/X(q) W(high)/X(q)  e(spline) 
   0      9    13.368     4.192    0.20E-04    0.58E-05    0.56E-07
   0      9    13.368     8.473    0.60E-04    0.52E-04    0.21E-06
   1      9    13.368     2.474    0.22E-04    0.17E-04    0.28E-07
   1      9    13.368     3.912    0.94E-04    0.97E-04    0.20E-06
 Optimization of the real space projectors (new method)

 maximal supplied QI-value         = 24.76
 optimisation between [QCUT,QGAM] = [ 13.37, 26.98] = [ 50.04,203.89] Ry 
 Optimized for a Real-space Cutoff    1.17 Angstroem

   l    n(q)    QCUT    max X(q) W(low)/X(q) W(high)/X(q)  e(spline) 
   0      9    13.368    14.049    0.39E-04    0.34E-04    0.16E-06
   0      9    13.368     8.945    0.54E-04    0.47E-04    0.20E-06
   1      9    13.368     7.086    0.99E-04    0.10E-03    0.23E-06
   1      9    13.368     6.747    0.86E-04    0.89E-04    0.21E-06

 ----------------------------------------------------------------------------- 
|                                                                             |
|  ADVICE TO THIS USER RUNNING 'VASP/VAMP'   (HEAR YOUR MASTER'S VOICE ...):  |
|                                                                             |
|      You enforced a specific xc-type in the INCAR file,                     |
|      a different type was found on the POTCAR file                          |
|          I HOPE YOU KNOW, WHAT YOU ARE  DOING                               |
|                                                                             |
 ----------------------------------------------------------------------------- 

 PAW_PBE Ti_pv 07Sep2000                :
 energy of atom  1       EATOM=-1042.3781
 kinetic energy error for atom=    0.0006 (will be added to EATOM!!)
 PAW_PBE O 08Apr2002                    :
 energy of atom  2       EATOM= -432.3788
 kinetic energy error for atom=    0.0091 (will be added to EATOM!!)
  PAW_PBE F 08Apr2002                   :
 energy of atom  3       EATOM= -659.6475
 kinetic energy error for atom=    0.0140 (will be added to EATOM!!)
 
 
 POSCAR: TiOF2 2x2x2 config 0275                 
  positions in direct lattice
  velocities in cartesian coordinates
 exchange correlation table for  LEXCH =       14
   RHO(1)=    0.500       N(1)  =     2000
   RHO(2)=  100.500       N(2)  =     4000

 VTST: version 3.1, (03/28/14)

 CHAIN: initializing optimizer
 
 OPT: Using VASP QUASI-newton optimizer
 CHAIN: Read ICHAIN            0
 
 POSCAR: TiOF2 2x2x2 config 0275                 
  positions in direct lattice
  velocities in cartesian coordinates
 


--------------------------------------------------------------------------------------------------------


 ion  position               nearest neighbor table
   1  0.000  0.989  0.988-  13 1.83   9 1.83  17 1.98  21 1.98  25 2.00  29 2.01
   2  1.000  0.988  0.512-  10 1.83  13 1.83  22 1.97  18 1.97  26 2.01  29 2.01
   3  0.000  0.511  0.013-  14 1.82   9 1.83  19 1.97  23 1.97  25 2.00  30 2.02
   4  1.000  0.512  0.487-  14 1.82  10 1.83  24 1.97  20 1.97  26 2.01  30 2.02
   5  0.500  0.988  0.989-  12 1.83  15 1.83  17 1.98  21 1.98  31 2.00  27 2.01
   6  0.500  0.013  0.511-  11 1.82  15 1.83  22 1.97  18 1.97  31 2.00  28 2.02
   7  0.500  0.512  0.988-  16 1.83  12 1.83  19 1.97  23 1.97  32 2.01  27 2.01
   8  0.500  0.487  0.512-  11 1.82  16 1.83  24 1.97  20 1.97  32 2.01  28 2.02
   9  0.000  0.750  1.000-   1 1.83   3 1.83
  10  1.000  0.750  0.500-   2 1.83   4 1.83
  11  0.500  0.250  0.495-   6 1.82   8 1.82
  12  0.500  0.750  0.005-   5 1.83   7 1.83
  13  0.000  0.005  0.750-   1 1.83   2 1.83
  14  0.000  0.495  0.250-   3 1.82   4 1.82
  15  0.500  1.000  0.750-   5 1.83   6 1.83
  16  0.500  0.500  0.750-   7 1.83   8 1.83
  17  0.250  0.007  0.007-   1 1.98   5 1.98
  18  0.250  1.000  0.493-   2 1.97   6 1.97
  19  0.250  0.493  1.000-   7 1.97   3 1.97
  20  0.250  0.500  0.500-   4 1.97   8 1.97
  21  0.750  0.007  0.007-   1 1.98   5 1.98
  22  0.750  1.000  0.493-   2 1.97   6 1.97
  23  0.750  0.493  1.000-   7 1.97   3 1.97
  24  0.750  0.500  0.500-   4 1.97   8 1.97
  25  0.000  0.250  1.000-   3 2.00   1 2.00
  26  1.000  0.250  0.500-   4 2.01   2 2.01
  27  0.500  0.250  0.010-   7 2.01   5 2.01
  28  0.500  0.750  0.490-   8 2.02   6 2.02
  29  1.000  0.010  0.250-   2 2.01   1 2.01
  30  0.000  0.490  0.750-   4 2.02   3 2.02
  31  0.500  1.000  0.250-   6 2.00   5 2.00
  32  0.500  0.500  0.250-   8 2.01   7 2.01
 

IMPORTANT INFORMATION: All symmetrisations will be switched off!
NOSYMM: (Re-)initialisation of all symmetry stuff for point group C_1.

 
 
 KPOINTS: Title                                   

Automatic generation of k-mesh.
Space group operators:
 irot       det(A)        alpha          n_x          n_y          n_z        tau_x        tau_y        tau_z
    1     1.000000     0.000000     1.000000     0.000000     0.000000     0.000000     0.000000     0.000000
 
 Subroutine IBZKPT returns following result:
 ===========================================
 
 Found     32 irreducible k-points:
 
 Following reciprocal coordinates:
            Coordinates               Weight
  0.125000  0.125000  0.125000      2.000000
  0.375000  0.125000  0.125000      2.000000
 -0.375000  0.125000  0.125000      2.000000
 -0.125000  0.125000  0.125000      2.000000
  0.125000  0.375000  0.125000      2.000000
  0.375000  0.375000  0.125000      2.000000
 -0.375000  0.375000  0.125000      2.000000
 -0.125000  0.375000  0.125000      2.000000
  0.125000 -0.375000  0.125000      2.000000
  0.375000 -0.375000  0.125000      2.000000
 -0.375000 -0.375000  0.125000      2.000000
 -0.125000 -0.375000  0.125000      2.000000
  0.125000 -0.125000  0.125000      2.000000
  0.375000 -0.125000  0.125000      2.000000
 -0.375000 -0.125000  0.125000      2.000000
 -0.125000 -0.125000  0.125000      2.000000
  0.125000  0.125000  0.375000      2.000000
  0.375000  0.125000  0.375000      2.000000
 -0.375000  0.125000  0.375000      2.000000
 -0.125000  0.125000  0.375000      2.000000
  0.125000  0.375000  0.375000      2.000000
  0.375000  0.375000  0.375000      2.000000
 -0.375000  0.375000  0.375000      2.000000
 -0.125000  0.375000  0.375000      2.000000
  0.125000 -0.375000  0.375000      2.000000
  0.375000 -0.375000  0.375000      2.000000
 -0.375000 -0.375000  0.375000      2.000000
 -0.125000 -0.375000  0.375000      2.000000
  0.125000 -0.125000  0.375000      2.000000
  0.375000 -0.125000  0.375000      2.000000
 -0.375000 -0.125000  0.375000      2.000000
 -0.125000 -0.125000  0.375000      2.000000
 
 Following cartesian coordinates:
            Coordinates               Weight
  0.015898  0.016325  0.016325      2.000000
  0.047695  0.016325  0.016325      2.000000
 -0.047695  0.016325  0.016325      2.000000
 -0.015898  0.016325  0.016325      2.000000
  0.015898  0.048976  0.016324      2.000000
  0.047695  0.048976  0.016324      2.000000
 -0.047695  0.048976  0.016324      2.000000
 -0.015898  0.048976  0.016324      2.000000
  0.015898 -0.048977  0.016327      2.000000
  0.047695 -0.048977  0.016327      2.000000
 -0.047695 -0.048977  0.016327      2.000000
 -0.015898 -0.048977  0.016327      2.000000
  0.015898 -0.016326  0.016326      2.000000
  0.047695 -0.016326  0.016326      2.000000
 -0.047695 -0.016326  0.016326      2.000000
 -0.015898 -0.016326  0.016326      2.000000
  0.015898  0.016324  0.048976      2.000000
  0.047695  0.016324  0.048976      2.000000
 -0.047695  0.016324  0.048976      2.000000
 -0.015898  0.016324  0.048976      2.000000
  0.015898  0.048975  0.048975      2.000000
  0.047695  0.048975  0.048975      2.000000
 -0.047695  0.048975  0.048975      2.000000
 -0.015898  0.048975  0.048975      2.000000
  0.015898 -0.048978  0.048978      2.000000
  0.047695 -0.048978  0.048978      2.000000
 -0.047695 -0.048978  0.048978      2.000000
 -0.015898 -0.048978  0.048978      2.000000
  0.015898 -0.016327  0.048977      2.000000
  0.047695 -0.016327  0.048977      2.000000
 -0.047695 -0.016327  0.048977      2.000000
 -0.015898 -0.016327  0.048977      2.000000
 


--------------------------------------------------------------------------------------------------------




 Dimension of arrays:
   k-points           NKPTS =     32   k-points in BZ     NKDIM =     32   number of bands    NBANDS=    160
   number of dos      NEDOS =   3001   number of ions     NIONS =     32
   non local maximal  LDIM  =      6   non local SUM 2l+1 LMDIM =     18
   total plane-waves  NPLWV = 343000
   max r-space proj   IRMAX =  10317   max aug-charges    IRDMAX= 231293
   dimension x,y,z NGX =    70 NGY =   70 NGZ =   70
   dimension x,y,z NGXF=   140 NGYF=  140 NGZF=  140
   support grid    NGXF=   280 NGYF=  280 NGZF=  280
   ions per type =               8   8  16
   NGX,Y,Z   is equivalent  to a cutoff of  14.80, 15.20, 15.20 a.u.
   NGXF,Y,Z  is equivalent  to a cutoff of  29.60, 30.40, 30.40 a.u.

 SYSTEM =  LTO                                     
 POSCAR =  TiOF2 2x2x2 config 0275                 

 Startparameter for this run:
   NWRITE =      2    write-flag & timer
   PREC   = accura    normal or accurate (medium, high low for compatibility)
   ISTART =      1    job   : 0-new  1-cont  2-samecut
   ICHARG =      0    charge: 1-file 2-atom 10-const
   ISPIN  =      2    spin polarized calculation?
   LNONCOLLINEAR =      F non collinear calculations
   LSORBIT =      F    spin-orbit coupling
   INIWAV =      1    electr: 0-lowe 1-rand  2-diag
   LASPH  =      T    aspherical Exc in radial PAW
   METAGGA=      F    non-selfconsistent MetaGGA calc.

 Electronic Relaxation 1
   ENCUT  =  700.0 eV  51.45 Ry    7.17 a.u.  16.96 16.52 16.52*2*pi/ulx,y,z
   ENINI  =  700.0     initial cutoff
   ENAUG  =  613.6 eV  augmentation charge cutoff
   NELM   =     60;   NELMIN=  2; NELMDL=  0     # of ELM steps 
   EDIFF  = 0.1E-05   stopping-criterion for ELM
   LREAL  =      T    real-space projection
   NLSPLINE    = F    spline interpolate recip. space projectors
   LCOMPAT=      F    compatible to vasp.4.4
   GGA_COMPAT  = T    GGA compatible to vasp.4.4-vasp.4.6
   LMAXPAW     = -100 max onsite density
   LMAXMIX     =    4 max onsite mixed and CHGCAR
   VOSKOWN=      0    Vosko Wilk Nusair interpolation
   ROPT   =   -0.00010  -0.00010  -0.00010
 Ionic relaxation
   EDIFFG = -.1E-01   stopping-criterion for IOM
   NSW    =    100    number of steps for IOM
   NBLOCK =      1;   KBLOCK =    100    inner block; outer block 
   IBRION =      1    ionic relax: 0-MD 1-quasi-New 2-CG
   NFREE  =      0    steps in history (QN), initial steepest desc. (CG)
   ISIF   =      3    stress and relaxation
   IWAVPR =     11    prediction:  0-non 1-charg 2-wave 3-comb
   ISYM   =      0    0-nonsym 1-usesym 2-fastsym
   LCORR  =      T    Harris-Foulkes like correction to forces

   POTIM  = 0.5000    time-step for ionic-motion
   TEIN   =    0.0    initial temperature
   TEBEG  =    0.0;   TEEND  =   0.0 temperature during run
   SMASS  =  -3.00    Nose mass-parameter (am)
   estimated Nose-frequenzy (Omega)   =  0.10E-29 period in steps =****** mass=  -0.141E-26a.u.
   SCALEE = 1.0000    scale energy and forces
   NPACO  =    256;   APACO  = 16.0  distance and # of slots for P.C.
   PSTRESS=    0.0 pullay stress

  Mass of Ions in am
   POMASS =  47.88 16.00 19.00
  Ionic Valenz
   ZVAL   =  10.00  6.00  7.00
  Atomic Wigner-Seitz radii
   RWIGS  =  -1.00 -1.00 -1.00
  virtual crystal weights 
   VCA    =   1.00  1.00  1.00
   NELECT =     240.0000    total number of electrons
   NUPDOWN=      -1.0000    fix difference up-down

 DOS related values:
   EMIN   =  10.00;   EMAX   =-10.00  energy-range for DOS
   EFERMI =   0.00
   ISMEAR =     0;   SIGMA  =   0.01  broadening in eV -4-tet -1-fermi 0-gaus

 Electronic relaxation 2 (details)
   IALGO  =     38    algorithm
   LDIAG  =      T    sub-space diagonalisation (order eigenvalues)
   LSUBROT=      F    optimize rotation matrix (better conditioning)
   TURBO    =      0    0=normal 1=particle mesh
   IRESTART =      0    0=no restart 2=restart with 2 vectors
   NREBOOT  =      0    no. of reboots
   NMIN     =      0    reboot dimension
   EREF     =   0.00    reference energy to select bands
   IMIX   =      4    mixing-type and parameters
     AMIX     =   0.40;   BMIX     =  1.00
     AMIX_MAG =   1.60;   BMIX_MAG =  1.00
     AMIN     =   0.10
     WC   =   100.;   INIMIX=   1;  MIXPRE=   1;  MAXMIX= -45

 Intra band minimization:
   WEIMIN = 0.0010     energy-eigenvalue tresh-hold
   EBREAK =  0.16E-08  absolut break condition
   DEPER  =   0.30     relativ break condition  

   TIME   =   0.40     timestep for ELM

  volume/ion in A,a.u.               =      14.40        97.21
  Fermi-wavevector in a.u.,A,eV,Ry     =   1.317029  2.488825 23.600213  1.734567
  Thomas-Fermi vector in A             =   2.447100
 
 Write flags
   LWAVE        =      T    write WAVECAR
   LDOWNSAMPLE  =      F    k-point downsampling of WAVECAR
   LCHARG       =      T    write CHGCAR
   LVTOT        =      F    write LOCPOT, total local potential
   LVHAR        =      F    write LOCPOT, Hartree potential only
   LELF         =      F    write electronic localiz. function (ELF)
   LORBIT       =     11    0 simple, 1 ext, 2 COOP (PROOUT), +10 PAW based schemes


 Dipole corrections
   LMONO  =      F    monopole corrections only (constant potential shift)
   LDIPOL =      F    correct potential (dipole corrections)
   IDIPOL =      0    1-x, 2-y, 3-z, 4-all directions 
   EPSILON=  1.0000000 bulk dielectric constant

 LDA+U is selected, type is set to LDAUTYPE =  2
   angular momentum for each species LDAUL =     2   -1   -1
   U (eV)           for each species LDAUU =   4.2  0.0  0.0
   J (eV)           for each species LDAUJ =   0.0  0.0  0.0
 Exchange correlation treatment:
   GGA     =    PS    GGA type
   LEXCH   =    14    internal setting for exchange type
   VOSKOWN=      0    Vosko Wilk Nusair interpolation
   LHFCALC =     F    Hartree Fock is set to
   LHFONE  =     F    Hartree Fock one center treatment
   AEXX    =    0.0000 exact exchange contribution

 Linear response parameters
   LEPSILON=     F    determine dielectric tensor
   LRPA    =     F    only Hartree local field effects (RPA)
   LNABLA  =     F    use nabla operator in PAW spheres
   LVEL    =     F    velocity operator in full k-point grid
   LINTERFAST=   F  fast interpolation
   KINTER  =     0    interpolate to denser k-point grid
   CSHIFT  =0.1000    complex shift for real part using Kramers Kronig
   OMEGAMAX=  -1.0    maximum frequency
   DEG_THRESHOLD= 0.2000000E-02 threshold for treating states as degnerate
   RTIME   =   -0.100 relaxation time in fs
  (WPLASMAI=    0.000 imaginary part of plasma frequency in eV, 0.658/RTIME)
   DFIELD  = 0.0000000 0.0000000 0.0000000 field for delta impulse in time
 
 Orbital magnetization related:
   ORBITALMAG=     F  switch on orbital magnetization
   LCHIMAG   =     F  perturbation theory with respect to B field
   DQ        =  0.001000  dq finite difference perturbation B field
   LLRAUG    =     F  two centre corrections for induced B field



--------------------------------------------------------------------------------------------------------


 quasi-Newton-method for relaxation of ions
 charge density and potential will be updated during run
 spin polarized calculation
 Variant of blocked Davidson
 Davidson routine will perform the subspace rotation
 perform sub-space diagonalisation
    after iterative eigenvector-optimisation
 modified Broyden-mixing scheme, WC =      100.0
 initial mixing is a Kerker type mixing with AMIX =  0.4000 and BMIX =      1.0000
 Hartree-type preconditioning will be used
 using additional bands           40
 real space projection scheme for non local part
 use partial core corrections
 calculate Harris-corrections to forces 
   (improved forces if not selfconsistent)
 use gradient corrections 
 use of overlap-Matrix (Vanderbilt PP)
 Gauss-broadening in eV      SIGMA  =   0.01


--------------------------------------------------------------------------------------------------------


  energy-cutoff  :      700.00
  volume of cell :      460.95
      direct lattice vectors                 reciprocal lattice vectors
     7.862519556 -0.000000002  0.000000010     0.127185693  0.000000000 -0.000000000
    -0.000000006  7.656737211  0.000185638     0.000000000  0.130603934 -0.000003166
     0.000000008  0.000185636  7.656737319    -0.000000000 -0.000003167  0.130603932

  length of vectors
     7.862519556  7.656737213  7.656737321     0.127185693  0.130603934  0.130603932


 
 old parameters found on file WAVECAR:
  energy-cutoff  :      700.00
  volume of cell :      460.84
      direct lattice vectors                 reciprocal lattice vectors
     7.861061937 -0.000000003  0.000000010     0.127209276  0.000000000 -0.000000000
    -0.000000007  7.656553772  0.000223488     0.000000000  0.130607063 -0.000003812
     0.000000007  0.000223485  7.656553417    -0.000000000 -0.000003812  0.130607069

  length of vectors

 
 k-points in units of 2pi/SCALE and weight: Title                                   
   0.01589821  0.01632510  0.01632510       0.031
   0.04769463  0.01632510  0.01632510       0.031
  -0.04769463  0.01632510  0.01632510       0.031
  -0.01589821  0.01632510  0.01632510       0.031
   0.01589821  0.04897608  0.01632430       0.031
   0.04769463  0.04897608  0.01632430       0.031
  -0.04769463  0.04897608  0.01632430       0.031
  -0.01589821  0.04897608  0.01632430       0.031
   0.01589821 -0.04897687  0.01632668       0.031
   0.04769463 -0.04897687  0.01632668       0.031
  -0.04769463 -0.04897687  0.01632668       0.031
  -0.01589821 -0.04897687  0.01632668       0.031
   0.01589821 -0.01632589  0.01632589       0.031
   0.04769463 -0.01632589  0.01632589       0.031
  -0.04769463 -0.01632589  0.01632589       0.031
  -0.01589821 -0.01632589  0.01632589       0.031
   0.01589821  0.01632430  0.04897608       0.031
   0.04769463  0.01632430  0.04897608       0.031
  -0.04769464  0.01632430  0.04897608       0.031
  -0.01589821  0.01632430  0.04897608       0.031
   0.01589821  0.04897529  0.04897529       0.031
   0.04769463  0.04897529  0.04897529       0.031
  -0.04769463  0.04897529  0.04897529       0.031
  -0.01589821  0.04897529  0.04897529       0.031
   0.01589821 -0.04897766  0.04897766       0.031
   0.04769463 -0.04897766  0.04897766       0.031
  -0.04769464 -0.04897766  0.04897766       0.031
  -0.01589821 -0.04897766  0.04897766       0.031
   0.01589821 -0.01632668  0.04897687       0.031
   0.04769463 -0.01632668  0.04897687       0.031
  -0.04769464 -0.01632668  0.04897687       0.031
  -0.01589821 -0.01632668  0.04897687       0.031
 
 k-points in reciprocal lattice and weights: Title                                   
   0.12500000  0.12500000  0.12500000       0.031
   0.37500000  0.12500000  0.12500000       0.031
  -0.37500000  0.12500000  0.12500000       0.031
  -0.12500000  0.12500000  0.12500000       0.031
   0.12500000  0.37500000  0.12500000       0.031
   0.37500000  0.37500000  0.12500000       0.031
  -0.37500000  0.37500000  0.12500000       0.031
  -0.12500000  0.37500000  0.12500000       0.031
   0.12500000 -0.37500000  0.12500000       0.031
   0.37500000 -0.37500000  0.12500000       0.031
  -0.37500000 -0.37500000  0.12500000       0.031
  -0.12500000 -0.37500000  0.12500000       0.031
   0.12500000 -0.12500000  0.12500000       0.031
   0.37500000 -0.12500000  0.12500000       0.031
  -0.37500000 -0.12500000  0.12500000       0.031
  -0.12500000 -0.12500000  0.12500000       0.031
   0.12500000  0.12500000  0.37500000       0.031
   0.37500000  0.12500000  0.37500000       0.031
  -0.37500000  0.12500000  0.37500000       0.031
  -0.12500000  0.12500000  0.37500000       0.031
   0.12500000  0.37500000  0.37500000       0.031
   0.37500000  0.37500000  0.37500000       0.031
  -0.37500000  0.37500000  0.37500000       0.031
  -0.12500000  0.37500000  0.37500000       0.031
   0.12500000 -0.37500000  0.37500000       0.031
   0.37500000 -0.37500000  0.37500000       0.031
  -0.37500000 -0.37500000  0.37500000       0.031
  -0.12500000 -0.37500000  0.37500000       0.031
   0.12500000 -0.12500000  0.37500000       0.031
   0.37500000 -0.12500000  0.37500000       0.031
  -0.37500000 -0.12500000  0.37500000       0.031
  -0.12500000 -0.12500000  0.37500000       0.031
 
 position of ions in fractional coordinates (direct lattice) 
   0.00000000  0.98869338  0.98779850
   1.00000000  0.98807566  0.51209663
   0.00000000  0.51126151  0.01272860
   1.00000000  0.51184274  0.48738158
   0.50000000  0.98779854  0.98869338
   0.50000000  0.01272860  0.51126151
   0.50000000  0.51209664  0.98807566
   0.50000000  0.48738160  0.51184277
   0.00000000  0.74999268  0.99956082
   0.99999999  0.75000167  0.50043968
   0.50000000  0.25000455  0.49476764
   0.50000000  0.74997481  0.00542062
   0.00000000  0.00542053  0.74997480
   0.00000000  0.49476758  0.25000454
   0.50000000  0.99956077  0.74999270
   0.50000000  0.50043976  0.75000171
   0.25000000  0.00653849  0.00653852
   0.25001244  0.99950129  0.49334928
   0.24998756  0.49334934  0.99950127
   0.24999999  0.50047408  0.50047412
   0.75000001  0.00653849  0.00653851
   0.74998756  0.99950129  0.49334928
   0.75001244  0.49334933  0.99950128
   0.75000001  0.50047408  0.50047412
   0.00000002  0.25007942  0.99966598
   0.99999999  0.25008519  0.50033405
   0.49999998  0.25005431  0.00982902
   0.50000001  0.74993164  0.49025287
   0.99999999  0.00982907  0.25005429
   0.00000000  0.49025291  0.74993164
   0.50000000  0.99966605  0.25007942
   0.50000000  0.50033401  0.25008520
 
 position of ions in cartesian coordinates  (Angst):
   0.00000004  7.57034874  7.56349715
   7.86251953  7.56553073  3.92117282
  -0.00000000  3.91459737  0.09755447
   7.86251955  3.91913583  3.73184774
   3.93125980  7.56349736  7.57034887
   3.93125977  0.09755443  3.91459744
   3.93125978  3.92117286  7.56553088
   3.93125979  3.73184784  3.91913609
   0.00000003  5.74268240  7.65351390
   7.86251950  5.74265861  3.83187443
   3.93125981  1.91431101  3.78835230
   3.93125976  5.74236104  0.04164352
   0.00000004  0.04164280  5.74236103
   0.00000000  3.78835173  1.91431093
   3.93125975  7.65351340  5.74268264
   3.93125979  3.83187497  5.74265898
   1.96562989  0.05006471  0.05006494
   1.96572766  7.65301028  3.77763136
   1.96553209  3.77763177  7.65301029
   1.96562984  3.83209144  3.83209178
   5.89688971  0.05006473  0.05006486
   5.89679185  7.65301027  3.77763142
   5.89698748  3.77763171  7.65301031
   5.89688972  3.83209143  3.83209176
   0.00000014  1.91497794  7.65422627
   7.86251948  1.91492946  3.83097286
   3.93125966  1.91460196  0.07530467
   3.93125985  5.74212054  3.75387670
   7.86251952  0.07530499  1.91460186
   0.00000000  3.75387691  5.74212059
   3.93125980  7.65422667  1.91497800
   3.93125977  3.83097248  1.91492958
 


--------------------------------------------------------------------------------------------------------


 k-point  1 :   0.1250 0.1250 0.1250  plane waves:   19409
 k-point  2 :   0.3750 0.1250 0.1250  plane waves:   19415
 k-point  3 :  -0.3750 0.1250 0.1250  plane waves:   19415
 k-point  4 :  -0.1250 0.1250 0.1250  plane waves:   19409
 k-point  5 :   0.1250 0.3750 0.1250  plane waves:   19376
 k-point  6 :   0.3750 0.3750 0.1250  plane waves:   19388
 k-point  7 :  -0.3750 0.3750 0.1250  plane waves:   19388
 k-point  8 :  -0.1250 0.3750 0.1250  plane waves:   19376
 k-point  9 :   0.1250-0.3750 0.1250  plane waves:   19376
 k-point 10 :   0.3750-0.3750 0.1250  plane waves:   19389
 k-point 11 :  -0.3750-0.3750 0.1250  plane waves:   19389
 k-point 12 :  -0.1250-0.3750 0.1250  plane waves:   19376
 k-point 13 :   0.1250-0.1250 0.1250  plane waves:   19409
 k-point 14 :   0.3750-0.1250 0.1250  plane waves:   19415
 k-point 15 :  -0.3750-0.1250 0.1250  plane waves:   19415
 k-point 16 :  -0.1250-0.1250 0.1250  plane waves:   19409
 k-point 17 :   0.1250 0.1250 0.3750  plane waves:   19376
 k-point 18 :   0.3750 0.1250 0.3750  plane waves:   19388
 k-point 19 :  -0.3750 0.1250 0.3750  plane waves:   19388
 k-point 20 :  -0.1250 0.1250 0.3750  plane waves:   19376
 k-point 21 :   0.1250 0.3750 0.3750  plane waves:   19375
 k-point 22 :   0.3750 0.3750 0.3750  plane waves:   19379
 k-point 23 :  -0.3750 0.3750 0.3750  plane waves:   19379
 k-point 24 :  -0.1250 0.3750 0.3750  plane waves:   19375
 k-point 25 :   0.1250-0.3750 0.3750  plane waves:   19375
 k-point 26 :   0.3750-0.3750 0.3750  plane waves:   19381
 k-point 27 :  -0.3750-0.3750 0.3750  plane waves:   19381
 k-point 28 :  -0.1250-0.3750 0.3750  plane waves:   19375
 k-point 29 :   0.1250-0.1250 0.3750  plane waves:   19376
 k-point 30 :   0.3750-0.1250 0.3750  plane waves:   19389
 k-point 31 :  -0.3750-0.1250 0.3750  plane waves:   19389
 k-point 32 :  -0.1250-0.1250 0.3750  plane waves:   19376

 maximum and minimum number of plane-waves per node :      2450     2385

 maximum number of plane-waves:     19415
 maximum index in each direction: 
   IXMAX=   17   IYMAX=   16   IZMAX=   16
   IXMIN=  -17   IYMIN=  -16   IZMIN=  -16


 real space projection operators:
  total allocation   :      18574.38 KBytes
  max/ min on nodes  :       2477.44       1924.95


 parallel 3D FFT for wavefunctions:
    minimum data exchange during FFTs selected (reduces bandwidth)
 parallel 3D FFT for charge:
    minimum data exchange during FFTs selected (reduces bandwidth)


 total amount of memory used by VASP MPI-rank0   106717. kBytes
=======================================================================

   base      :      30000. kBytes
   nonlr-proj:       8597. kBytes
   fftplans  :       8423. kBytes
   grid      :       8783. kBytes
   one-center:        124. kBytes
   wavefun   :      50790. kBytes
 
     INWAV:  cpu time   29.6435: real time   34.3222
 Broyden mixing: mesh for mixing (old mesh)
   NGX = 33   NGY = 33   NGZ = 33
  (NGX  =140   NGY  =140   NGZ  =140)
  gives a total of  35937 points

 charge density for first step will be calculated from the start-wavefunctions


--------------------------------------------------------------------------------------------------------


 Maximum index for non-local projection operator         1381
 Maximum index for augmentation-charges         7181 (set IRDMAX)


--------------------------------------------------------------------------------------------------------


 initial charge from wavefunction
 First call to EWALD:  gamma=   0.229
 Maximum number of real-space cells 3x 3x 3
 Maximum number of reciprocal cells 3x 3x 3

    FEWALD:  cpu time    0.0030: real time    0.0033


--------------------------------------- Iteration      1(   1)  ---------------------------------------


    POTLOK:  cpu time    0.1980: real time    0.2057
    SETDIJ:  cpu time    0.8489: real time    0.8553
     EDDAV:  cpu time   25.7871: real time   25.8591
       DOS:  cpu time    0.0040: real time    0.0034
    CHARGE:  cpu time    1.1438: real time    1.1506
    MIXING:  cpu time    0.0010: real time    0.0019
    --------------------------------------------
      LOOP:  cpu time   27.9827: real time   28.0761

 eigenvalue-minimisations  : 18080
 total energy-change (2. order) :-0.2135955E+03  (-0.2308878E-03)
 number of electron     240.0000004 magnetization      -0.0000000
 augmentation part       61.9544212 magnetization      -0.0000000

 Broyden mixing:
  rms(total) = 0.22220E-03    rms(broyden)= 0.22031E-03
  rms(prec ) = 0.36456E-03
  weight for this iteration     100.00

 Free energy of the ion-electron system (eV)
  ---------------------------------------------------
  alpha Z        PSCENC =       759.66982427
  Ewald energy   TEWEN  =    -12818.23444002
  -Hartree energ DENC   =     -8224.65240696
  -exchange      EXHF   =         0.00000000
  -V(xc)+E(xc)   XCENC  =      1119.89387429
  PAW double counting   =     18023.35163989   -18147.02658650
  entropy T*S    EENTRO =        -0.00000000
  eigenvalues    EBANDS =     -3228.95065801
  atomic energy  EATOM  =     22302.35321627
  Solvation  Ediel_sol  =         0.00000000
  ---------------------------------------------------
  free energy    TOTEN  =      -213.59553676 eV

  energy without entropy =     -213.59553676  energy(sigma->0) =     -213.59553676


--------------------------------------------------------------------------------------------------------




--------------------------------------- Iteration      1(   2)  ---------------------------------------


    POTLOK:  cpu time    0.1470: real time    0.1639
    SETDIJ:  cpu time    0.8399: real time    0.8392
     EDDAV:  cpu time   18.8421: real time   18.9073
       DOS:  cpu time    0.0030: real time    0.0035
    --------------------------------------------
      LOOP:  cpu time   19.8320: real time   19.9139

 eigenvalue-minimisations  : 10784
 total energy-change (2. order) : 0.5306720E-07  (-0.4830846E-07)
 number of electron     240.0000004 magnetization      -0.0000000
 augmentation part       61.9544212 magnetization      -0.0000000

 Free energy of the ion-electron system (eV)
  ---------------------------------------------------
  alpha Z        PSCENC =       759.66982427
  Ewald energy   TEWEN  =    -12818.23444002
  -Hartree energ DENC   =     -8224.64897151
  -exchange      EXHF   =         0.00000000
  -V(xc)+E(xc)   XCENC  =      1119.89413445
  PAW double counting   =     18023.34140039   -18147.01658212
  entropy T*S    EENTRO =        -0.00000000
  eigenvalues    EBANDS =     -3228.95411843
  atomic energy  EATOM  =     22302.35321627
  Solvation  Ediel_sol  =         0.00000000
  ---------------------------------------------------
  free energy    TOTEN  =      -213.59553671 eV

  energy without entropy =     -213.59553671  energy(sigma->0) =     -213.59553671


--------------------------------------------------------------------------------------------------------




 average (electrostatic) potential at core
  the test charge radii are     1.0397  0.7215  0.7167
  (the norm of the test charge is              1.0000)
       1 -58.9206       2 -58.9087       3 -58.9095       4 -58.9007       5 -58.9206
       6 -58.9095       7 -58.9087       8 -58.9007       9 -74.1224      10 -74.1260
      11 -74.1300      12 -74.1241      13 -74.1241      14 -74.1300      15 -74.1224
      16 -74.1260      17 -79.2744      18 -79.2907      19 -79.2907      20 -79.3097
      21 -79.2744      22 -79.2907      23 -79.2907      24 -79.3097      25 -78.6703
      26 -78.6843      27 -78.6559      28 -78.6679      29 -78.6559      30 -78.6679
      31 -78.6703      32 -78.6843
 
 
 
 E-fermi :  -0.6769     XC(G=0):  -8.9874     alpha+bet : -7.6659


 spin component 1

 k-point     1 :       0.1250    0.1250    0.1250
  band No.  band energies     occupation 
      1     -34.9675      1.00000
      2     -34.9611      1.00000
      3     -34.9605      1.00000
      4     -34.9561      1.00000
      5     -34.8799      1.00000
      6     -34.8724      1.00000
      7     -34.8721      1.00000
      8     -34.8670      1.00000
      9     -34.8088      1.00000
     10     -34.8072      1.00000
     11     -34.7987      1.00000
     12     -34.7978      1.00000
     13     -34.7949      1.00000
     14     -34.7941      1.00000
     15     -34.7833      1.00000
     16     -34.7827      1.00000
     17     -34.7212      1.00000
     18     -34.7201      1.00000
     19     -34.7084      1.00000
     20     -34.7077      1.00000
     21     -34.7038      1.00000
     22     -34.7031      1.00000
     23     -34.6929      1.00000
     24     -34.6920      1.00000
     25     -23.1900      1.00000
     26     -23.1486      1.00000
     27     -23.1446      1.00000
     28     -23.1052      1.00000
     29     -22.7465      1.00000
     30     -22.7282      1.00000
     31     -22.7265      1.00000
     32     -22.7093      1.00000
     33     -22.4774      1.00000
     34     -22.4308      1.00000
     35     -22.3606      1.00000
     36     -22.3593      1.00000
     37     -22.3111      1.00000
     38     -22.3102      1.00000
     39     -22.2253      1.00000
     40     -22.2215      1.00000
     41     -16.7538      1.00000
     42     -16.7532      1.00000
     43     -16.6402      1.00000
     44     -16.6371      1.00000
     45     -16.5753      1.00000
     46     -16.5731      1.00000
     47     -16.4798      1.00000
     48     -16.4719      1.00000
     49      -6.7773      1.00000
     50      -6.7435      1.00000
     51      -6.7299      1.00000
     52      -6.6865      1.00000
     53      -6.0804      1.00000
     54      -6.0132      1.00000
     55      -5.9841      1.00000
     56      -5.9695      1.00000
     57      -5.8782      1.00000
     58      -5.8728      1.00000
     59      -5.8025      1.00000
     60      -5.7868      1.00000
     61      -5.5953      1.00000
     62      -5.4426      1.00000
     63      -5.4349      1.00000
     64      -5.3039      1.00000
     65      -5.2964      1.00000
     66      -5.2494      1.00000
     67      -5.2427      1.00000
     68      -5.1976      1.00000
     69      -4.9291      1.00000
     70      -4.8663      1.00000
     71      -4.4716      1.00000
     72      -4.4434      1.00000
     73      -4.4117      1.00000
     74      -4.4070      1.00000
     75      -4.3966      1.00000
     76      -4.3859      1.00000
     77      -4.3683      1.00000
     78      -4.3547      1.00000
     79      -4.2784      1.00000
     80      -4.2704      1.00000
     81      -4.2414      1.00000
     82      -4.2315      1.00000
     83      -3.9504      1.00000
     84      -3.9358      1.00000
     85      -3.7840      1.00000
     86      -3.7005      1.00000
     87      -3.6552      1.00000
     88      -3.6049      1.00000
     89      -3.5124      1.00000
     90      -3.4914      1.00000
     91      -3.3915      1.00000
     92      -3.3906      1.00000
     93      -3.3340      1.00000
     94      -3.3150      1.00000
     95      -3.3060      1.00000
     96      -3.1207      1.00000
     97      -3.0866      1.00000
     98      -3.0764      1.00000
     99      -3.0626      1.00000
    100      -3.0309      1.00000
    101      -2.9877      1.00000
    102      -2.9414      1.00000
    103      -2.8702      1.00000
    104      -2.8588      1.00000
    105      -2.4912      1.00000
    106      -2.4901      1.00000
    107      -2.4238      1.00000
    108      -2.2699      1.00000
    109      -2.2545      1.00000
    110      -2.2243      1.00000
    111      -2.2048      1.00000
    112      -2.0666      1.00000
    113      -1.8812      1.00000
    114      -1.8759      1.00000
    115      -1.8637      1.00000
    116      -1.7232      1.00000
    117      -1.6809      1.00000
    118      -1.5931      1.00000
    119      -0.7375      1.00000
    120      -0.7338      1.00000
    121       1.9416      0.00000
    122       1.9450      0.00000
    123       1.9770      0.00000
    124       2.0217      0.00000
    125       2.0297      0.00000
    126       2.0476      0.00000
    127       2.6415      0.00000
    128       2.6693      0.00000
    129       2.6938      0.00000
    130       2.7145      0.00000
    131       3.0118      0.00000
    132       3.1366      0.00000
    133       3.1406      0.00000
    134       3.2100      0.00000
    135       3.2166      0.00000
    136       3.3801      0.00000
    137       3.3955      0.00000
    138       3.3995      0.00000
    139       3.4826      0.00000
    140       3.5296      0.00000
    141       3.5413      0.00000
    142       3.6988      0.00000
    143       3.7236      0.00000
    144       3.7740      0.00000
    145       3.8051      0.00000
    146       3.8369      0.00000
    147       3.8654      0.00000
    148       3.9391      0.00000
    149       4.0988      0.00000
    150       4.1240      0.00000
    151       4.2291      0.00000
    152       4.2339      0.00000
    153       4.6506      0.00000
    154       5.2628      0.00000
    155       5.2676      0.00000
    156       5.9043      0.00000
    157       6.0338      0.00000
    158       6.2396      0.00000
    159       6.2591      0.00000
    160       6.9753      0.00000

 k-point     2 :       0.3750    0.1250    0.1250
  band No.  band energies     occupation 
      1     -34.9422      1.00000
      2     -34.9355      1.00000
      3     -34.9350      1.00000
      4     -34.9304      1.00000
      5     -34.9060      1.00000
      6     -34.8988      1.00000
      7     -34.8983      1.00000
      8     -34.8935      1.00000
      9     -34.8082      1.00000
     10     -34.8076      1.00000
     11     -34.7983      1.00000
     12     -34.7980      1.00000
     13     -34.7946      1.00000
     14     -34.7943      1.00000
     15     -34.7832      1.00000
     16     -34.7830      1.00000
     17     -34.7208      1.00000
     18     -34.7204      1.00000
     19     -34.7082      1.00000
     20     -34.7079      1.00000
     21     -34.7036      1.00000
     22     -34.7033      1.00000
     23     -34.6927      1.00000
     24     -34.6923      1.00000
     25     -23.0694      1.00000
     26     -23.0313      1.00000
     27     -23.0277      1.00000
     28     -22.9921      1.00000
     29     -22.8888      1.00000
     30     -22.8588      1.00000
     31     -22.8556      1.00000
     32     -22.8287      1.00000
     33     -22.4517      1.00000
     34     -22.4361      1.00000
     35     -22.3540      1.00000
     36     -22.3536      1.00000
     37     -22.3096      1.00000
     38     -22.3093      1.00000
     39     -22.2241      1.00000
     40     -22.2225      1.00000
     41     -16.7531      1.00000
     42     -16.7528      1.00000
     43     -16.6392      1.00000
     44     -16.6379      1.00000
     45     -16.5745      1.00000
     46     -16.5736      1.00000
     47     -16.4778      1.00000
     48     -16.4745      1.00000
     49      -6.4109      1.00000
     50      -6.3927      1.00000
     51      -6.3801      1.00000
     52      -6.3698      1.00000
     53      -6.1067      1.00000
     54      -6.0106      1.00000
     55      -6.0035      1.00000
     56      -5.9664      1.00000
     57      -5.9178      1.00000
     58      -5.8872      1.00000
     59      -5.8870      1.00000
     60      -5.8033      1.00000
     61      -5.7950      1.00000
     62      -5.7734      1.00000
     63      -5.7728      1.00000
     64      -5.6839      1.00000
     65      -5.1253      1.00000
     66      -5.1212      1.00000
     67      -5.0522      1.00000
     68      -5.0428      1.00000
     69      -4.9192      1.00000
     70      -4.8808      1.00000
     71      -4.7752      1.00000
     72      -4.7510      1.00000
     73      -4.6836      1.00000
     74      -4.6431      1.00000
     75      -4.4504      1.00000
     76      -4.4428      1.00000
     77      -4.3684      1.00000
     78      -4.3581      1.00000
     79      -4.3370      1.00000
     80      -4.3252      1.00000
     81      -4.2753      1.00000
     82      -4.2725      1.00000
     83      -3.9504      1.00000
     84      -3.9401      1.00000
     85      -3.6909      1.00000
     86      -3.6885      1.00000
     87      -3.5316      1.00000
     88      -3.4435      1.00000
     89      -3.4041      1.00000
     90      -3.3830      1.00000
     91      -3.3600      1.00000
     92      -3.3306      1.00000
     93      -3.2765      1.00000
     94      -3.2697      1.00000
     95      -3.2469      1.00000
     96      -3.2264      1.00000
     97      -3.1665      1.00000
     98      -3.1341      1.00000
     99      -3.1042      1.00000
    100      -3.1028      1.00000
    101      -2.9823      1.00000
    102      -2.9628      1.00000
    103      -2.8796      1.00000
    104      -2.8720      1.00000
    105      -2.4932      1.00000
    106      -2.4925      1.00000
    107      -2.2695      1.00000
    108      -2.2660      1.00000
    109      -2.2037      1.00000
    110      -2.1458      1.00000
    111      -2.0450      1.00000
    112      -1.9986      1.00000
    113      -1.9518      1.00000
    114      -1.8898      1.00000
    115      -1.8733      1.00000
    116      -1.8477      1.00000
    117      -1.8022      1.00000
    118      -1.7400      1.00000
    119      -0.7363      1.00000
    120      -0.7348      1.00000
    121       2.0337      0.00000
    122       2.0420      0.00000
    123       2.1507      0.00000
    124       2.1519      0.00000
    125       2.1847      0.00000
    126       2.1912      0.00000
    127       2.4315      0.00000
    128       2.4526      0.00000
    129       2.4819      0.00000
    130       2.5001      0.00000
    131       3.2060      0.00000
    132       3.2084      0.00000
    133       3.2574      0.00000
    134       3.3923      0.00000
    135       3.3967      0.00000
    136       3.4075      0.00000
    137       3.4536      0.00000
    138       3.5159      0.00000
    139       3.5491      0.00000
    140       3.5830      0.00000
    141       3.6878      0.00000
    142       3.7103      0.00000
    143       3.7417      0.00000
    144       3.7570      0.00000
    145       3.7659      0.00000
    146       3.7807      0.00000
    147       3.8634      0.00000
    148       4.0179      0.00000
    149       4.0306      0.00000
    150       4.1814      0.00000
    151       4.1985      0.00000
    152       4.3397      0.00000
    153       4.5516      0.00000
    154       5.3585      0.00000
    155       5.4645      0.00000
    156       5.4687      0.00000
    157       5.9069      0.00000
    158       5.9099      0.00000
    159       6.4689      0.00000
    160       6.9743      0.00000

 k-point     3 :      -0.3750    0.1250    0.1250
  band No.  band energies     occupation 
      1     -34.9422      1.00000
      2     -34.9355      1.00000
      3     -34.9350      1.00000
      4     -34.9304      1.00000
      5     -34.9060      1.00000
      6     -34.8988      1.00000
      7     -34.8983      1.00000
      8     -34.8935      1.00000
      9     -34.8082      1.00000
     10     -34.8076      1.00000
     11     -34.7983      1.00000
     12     -34.7980      1.00000
     13     -34.7946      1.00000
     14     -34.7943      1.00000
     15     -34.7832      1.00000
     16     -34.7830      1.00000
     17     -34.7208      1.00000
     18     -34.7204      1.00000
     19     -34.7082      1.00000
     20     -34.7079      1.00000
     21     -34.7036      1.00000
     22     -34.7033      1.00000
     23     -34.6927      1.00000
     24     -34.6923      1.00000
     25     -23.0694      1.00000
     26     -23.0313      1.00000
     27     -23.0277      1.00000
     28     -22.9921      1.00000
     29     -22.8888      1.00000
     30     -22.8588      1.00000
     31     -22.8556      1.00000
     32     -22.8287      1.00000
     33     -22.4517      1.00000
     34     -22.4361      1.00000
     35     -22.3540      1.00000
     36     -22.3536      1.00000
     37     -22.3096      1.00000
     38     -22.3093      1.00000
     39     -22.2241      1.00000
     40     -22.2225      1.00000
     41     -16.7531      1.00000
     42     -16.7528      1.00000
     43     -16.6392      1.00000
     44     -16.6379      1.00000
     45     -16.5745      1.00000
     46     -16.5736      1.00000
     47     -16.4778      1.00000
     48     -16.4745      1.00000
     49      -6.4109      1.00000
     50      -6.3927      1.00000
     51      -6.3801      1.00000
     52      -6.3698      1.00000
     53      -6.1067      1.00000
     54      -6.0106      1.00000
     55      -6.0035      1.00000
     56      -5.9664      1.00000
     57      -5.9178      1.00000
     58      -5.8872      1.00000
     59      -5.8870      1.00000
     60      -5.8033      1.00000
     61      -5.7950      1.00000
     62      -5.7734      1.00000
     63      -5.7728      1.00000
     64      -5.6839      1.00000
     65      -5.1253      1.00000
     66      -5.1212      1.00000
     67      -5.0522      1.00000
     68      -5.0428      1.00000
     69      -4.9192      1.00000
     70      -4.8808      1.00000
     71      -4.7752      1.00000
     72      -4.7510      1.00000
     73      -4.6836      1.00000
     74      -4.6431      1.00000
     75      -4.4504      1.00000
     76      -4.4428      1.00000
     77      -4.3684      1.00000
     78      -4.3581      1.00000
     79      -4.3370      1.00000
     80      -4.3252      1.00000
     81      -4.2753      1.00000
     82      -4.2725      1.00000
     83      -3.9504      1.00000
     84      -3.9401      1.00000
     85      -3.6909      1.00000
     86      -3.6885      1.00000
     87      -3.5316      1.00000
     88      -3.4435      1.00000
     89      -3.4041      1.00000
     90      -3.3830      1.00000
     91      -3.3600      1.00000
     92      -3.3306      1.00000
     93      -3.2765      1.00000
     94      -3.2697      1.00000
     95      -3.2469      1.00000
     96      -3.2264      1.00000
     97      -3.1665      1.00000
     98      -3.1341      1.00000
     99      -3.1042      1.00000
    100      -3.1028      1.00000
    101      -2.9823      1.00000
    102      -2.9628      1.00000
    103      -2.8796      1.00000
    104      -2.8720      1.00000
    105      -2.4932      1.00000
    106      -2.4925      1.00000
    107      -2.2695      1.00000
    108      -2.2660      1.00000
    109      -2.2037      1.00000
    110      -2.1458      1.00000
    111      -2.0450      1.00000
    112      -1.9986      1.00000
    113      -1.9518      1.00000
    114      -1.8898      1.00000
    115      -1.8733      1.00000
    116      -1.8477      1.00000
    117      -1.8022      1.00000
    118      -1.7400      1.00000
    119      -0.7363      1.00000
    120      -0.7348      1.00000
    121       2.0337      0.00000
    122       2.0420      0.00000
    123       2.1507      0.00000
    124       2.1519      0.00000
    125       2.1847      0.00000
    126       2.1912      0.00000
    127       2.4315      0.00000
    128       2.4526      0.00000
    129       2.4819      0.00000
    130       2.5001      0.00000
    131       3.2060      0.00000
    132       3.2084      0.00000
    133       3.2574      0.00000
    134       3.3923      0.00000
    135       3.3967      0.00000
    136       3.4075      0.00000
    137       3.4536      0.00000
    138       3.5159      0.00000
    139       3.5491      0.00000
    140       3.5830      0.00000
    141       3.6878      0.00000
    142       3.7103      0.00000
    143       3.7417      0.00000
    144       3.7570      0.00000
    145       3.7659      0.00000
    146       3.7807      0.00000
    147       3.8634      0.00000
    148       4.0179      0.00000
    149       4.0306      0.00000
    150       4.1814      0.00000
    151       4.1985      0.00000
    152       4.3397      0.00000
    153       4.5516      0.00000
    154       5.3585      0.00000
    155       5.4645      0.00000
    156       5.4687      0.00000
    157       5.9069      0.00000
    158       5.9099      0.00000
    159       6.4689      0.00000
    160       6.9743      0.00000

 k-point     4 :      -0.1250    0.1250    0.1250
  band No.  band energies     occupation 
      1     -34.9675      1.00000
      2     -34.9611      1.00000
      3     -34.9605      1.00000
      4     -34.9561      1.00000
      5     -34.8799      1.00000
      6     -34.8724      1.00000
      7     -34.8721      1.00000
      8     -34.8670      1.00000
      9     -34.8088      1.00000
     10     -34.8072      1.00000
     11     -34.7987      1.00000
     12     -34.7978      1.00000
     13     -34.7949      1.00000
     14     -34.7941      1.00000
     15     -34.7833      1.00000
     16     -34.7827      1.00000
     17     -34.7212      1.00000
     18     -34.7201      1.00000
     19     -34.7084      1.00000
     20     -34.7077      1.00000
     21     -34.7038      1.00000
     22     -34.7031      1.00000
     23     -34.6929      1.00000
     24     -34.6920      1.00000
     25     -23.1900      1.00000
     26     -23.1486      1.00000
     27     -23.1446      1.00000
     28     -23.1052      1.00000
     29     -22.7465      1.00000
     30     -22.7282      1.00000
     31     -22.7265      1.00000
     32     -22.7093      1.00000
     33     -22.4774      1.00000
     34     -22.4308      1.00000
     35     -22.3606      1.00000
     36     -22.3593      1.00000
     37     -22.3111      1.00000
     38     -22.3102      1.00000
     39     -22.2253      1.00000
     40     -22.2215      1.00000
     41     -16.7538      1.00000
     42     -16.7532      1.00000
     43     -16.6402      1.00000
     44     -16.6371      1.00000
     45     -16.5753      1.00000
     46     -16.5731      1.00000
     47     -16.4798      1.00000
     48     -16.4719      1.00000
     49      -6.7773      1.00000
     50      -6.7435      1.00000
     51      -6.7299      1.00000
     52      -6.6865      1.00000
     53      -6.0804      1.00000
     54      -6.0132      1.00000
     55      -5.9841      1.00000
     56      -5.9695      1.00000
     57      -5.8782      1.00000
     58      -5.8728      1.00000
     59      -5.8025      1.00000
     60      -5.7868      1.00000
     61      -5.5953      1.00000
     62      -5.4426      1.00000
     63      -5.4349      1.00000
     64      -5.3039      1.00000
     65      -5.2964      1.00000
     66      -5.2494      1.00000
     67      -5.2427      1.00000
     68      -5.1976      1.00000
     69      -4.9291      1.00000
     70      -4.8663      1.00000
     71      -4.4716      1.00000
     72      -4.4434      1.00000
     73      -4.4117      1.00000
     74      -4.4070      1.00000
     75      -4.3966      1.00000
     76      -4.3859      1.00000
     77      -4.3683      1.00000
     78      -4.3547      1.00000
     79      -4.2784      1.00000
     80      -4.2704      1.00000
     81      -4.2414      1.00000
     82      -4.2315      1.00000
     83      -3.9504      1.00000
     84      -3.9358      1.00000
     85      -3.7840      1.00000
     86      -3.7005      1.00000
     87      -3.6552      1.00000
     88      -3.6049      1.00000
     89      -3.5124      1.00000
     90      -3.4914      1.00000
     91      -3.3915      1.00000
     92      -3.3906      1.00000
     93      -3.3340      1.00000
     94      -3.3150      1.00000
     95      -3.3060      1.00000
     96      -3.1207      1.00000
     97      -3.0866      1.00000
     98      -3.0764      1.00000
     99      -3.0626      1.00000
    100      -3.0309      1.00000
    101      -2.9877      1.00000
    102      -2.9414      1.00000
    103      -2.8702      1.00000
    104      -2.8588      1.00000
    105      -2.4912      1.00000
    106      -2.4901      1.00000
    107      -2.4238      1.00000
    108      -2.2699      1.00000
    109      -2.2545      1.00000
    110      -2.2243      1.00000
    111      -2.2048      1.00000
    112      -2.0666      1.00000
    113      -1.8812      1.00000
    114      -1.8759      1.00000
    115      -1.8637      1.00000
    116      -1.7232      1.00000
    117      -1.6809      1.00000
    118      -1.5931      1.00000
    119      -0.7375      1.00000
    120      -0.7338      1.00000
    121       1.9416      0.00000
    122       1.9450      0.00000
    123       1.9770      0.00000
    124       2.0217      0.00000
    125       2.0297      0.00000
    126       2.0476      0.00000
    127       2.6415      0.00000
    128       2.6693      0.00000
    129       2.6938      0.00000
    130       2.7145      0.00000
    131       3.0118      0.00000
    132       3.1366      0.00000
    133       3.1406      0.00000
    134       3.2100      0.00000
    135       3.2166      0.00000
    136       3.3801      0.00000
    137       3.3955      0.00000
    138       3.3995      0.00000
    139       3.4826      0.00000
    140       3.5296      0.00000
    141       3.5413      0.00000
    142       3.6988      0.00000
    143       3.7236      0.00000
    144       3.7740      0.00000
    145       3.8051      0.00000
    146       3.8369      0.00000
    147       3.8654      0.00000
    148       3.9391      0.00000
    149       4.0988      0.00000
    150       4.1240      0.00000
    151       4.2291      0.00000
    152       4.2339      0.00000
    153       4.6506      0.00000
    154       5.2628      0.00000
    155       5.2676      0.00000
    156       5.9043      0.00000
    157       6.0338      0.00000
    158       6.2396      0.00000
    159       6.2591      0.00000
    160       6.9746      0.00000

 k-point     5 :       0.1250    0.3750    0.1250
  band No.  band energies     occupation 
      1     -34.9673      1.00000
      2     -34.9611      1.00000
      3     -34.9602      1.00000
      4     -34.9567      1.00000
      5     -34.8798      1.00000
      6     -34.8725      1.00000
      7     -34.8718      1.00000
      8     -34.8674      1.00000
      9     -34.8030      1.00000
     10     -34.8010      1.00000
     11     -34.7962      1.00000
     12     -34.7946      1.00000
     13     -34.7774      1.00000
     14     -34.7736      1.00000
     15     -34.7684      1.00000
     16     -34.7676      1.00000
     17     -34.7371      1.00000
     18     -34.7357      1.00000
     19     -34.7286      1.00000
     20     -34.7265      1.00000
     21     -34.7067      1.00000
     22     -34.7051      1.00000
     23     -34.6993      1.00000
     24     -34.6980      1.00000
     25     -23.1809      1.00000
     26     -23.1563      1.00000
     27     -23.1394      1.00000
     28     -23.1095      1.00000
     29     -22.7441      1.00000
     30     -22.7297      1.00000
     31     -22.7252      1.00000
     32     -22.7110      1.00000
     33     -22.4598      1.00000
     34     -22.4234      1.00000
     35     -22.3941      1.00000
     36     -22.3531      1.00000
     37     -22.3102      1.00000
     38     -22.2696      1.00000
     39     -22.2378      1.00000
     40     -22.2220      1.00000
     41     -16.7779      1.00000
     42     -16.7456      1.00000
     43     -16.7068      1.00000
     44     -16.6494      1.00000
     45     -16.5826      1.00000
     46     -16.5340      1.00000
     47     -16.5024      1.00000
     48     -16.4796      1.00000
     49      -6.7671      1.00000
     50      -6.7369      1.00000
     51      -6.7234      1.00000
     52      -6.6806      1.00000
     53      -6.0037      1.00000
     54      -5.9727      1.00000
     55      -5.9316      1.00000
     56      -5.8740      1.00000
     57      -5.7014      1.00000
     58      -5.6044      1.00000
     59      -5.5773      1.00000
     60      -5.5561      1.00000
     61      -5.4979      1.00000
     62      -5.4727      1.00000
     63      -5.3829      1.00000
     64      -5.2932      1.00000
     65      -5.2842      1.00000
     66      -5.2370      1.00000
     67      -5.1243      1.00000
     68      -5.0533      1.00000
     69      -4.7775      1.00000
     70      -4.7335      1.00000
     71      -4.6938      1.00000
     72      -4.6577      1.00000
     73      -4.5695      1.00000
     74      -4.4399      1.00000
     75      -4.4220      1.00000
     76      -4.3954      1.00000
     77      -4.3704      1.00000
     78      -4.3328      1.00000
     79      -4.2868      1.00000
     80      -4.2468      1.00000
     81      -4.2213      1.00000
     82      -4.1581      1.00000
     83      -4.0997      1.00000
     84      -4.0470      1.00000
     85      -3.8905      1.00000
     86      -3.8698      1.00000
     87      -3.7974      1.00000
     88      -3.6891      1.00000
     89      -3.6556      1.00000
     90      -3.6048      1.00000
     91      -3.4992      1.00000
     92      -3.4745      1.00000
     93      -3.4459      1.00000
     94      -3.4172      1.00000
     95      -3.3571      1.00000
     96      -3.2649      1.00000
     97      -3.2306      1.00000
     98      -3.1847      1.00000
     99      -3.0681      1.00000
    100      -3.0406      1.00000
    101      -3.0213      1.00000
    102      -2.9993      1.00000
    103      -2.9258      1.00000
    104      -2.8318      1.00000
    105      -2.6852      1.00000
    106      -2.5036      1.00000
    107      -2.4656      1.00000
    108      -2.3580      1.00000
    109      -2.2622      1.00000
    110      -2.2076      1.00000
    111      -2.1208      1.00000
    112      -2.0769      1.00000
    113      -1.8785      1.00000
    114      -1.8130      1.00000
    115      -1.7107      1.00000
    116      -1.6821      1.00000
    117      -1.6350      1.00000
    118      -1.4098      1.00000
    119      -0.9777      1.00000
    120      -0.8543      1.00000
    121       1.9514      0.00000
    122       1.9867      0.00000
    123       2.2369      0.00000
    124       2.2689      0.00000
    125       2.3085      0.00000
    126       2.3412      0.00000
    127       2.6550      0.00000
    128       2.6693      0.00000
    129       2.7068      0.00000
    130       2.8128      0.00000
    131       2.8439      0.00000
    132       3.0424      0.00000
    133       3.1236      0.00000
    134       3.2505      0.00000
    135       3.2751      0.00000
    136       3.3295      0.00000
    137       3.4142      0.00000
    138       3.4378      0.00000
    139       3.5068      0.00000
    140       3.5210      0.00000
    141       3.5338      0.00000
    142       3.5607      0.00000
    143       3.6236      0.00000
    144       3.7642      0.00000
    145       3.7933      0.00000
    146       3.8355      0.00000
    147       3.8561      0.00000
    148       3.9784      0.00000
    149       4.0269      0.00000
    150       4.1946      0.00000
    151       4.2820      0.00000
    152       4.7525      0.00000
    153       4.8992      0.00000
    154       5.2086      0.00000
    155       5.6565      0.00000
    156       5.7284      0.00000
    157       5.9274      0.00000
    158       6.3127      0.00000
    159       6.4946      0.00000
    160       6.5323      0.00000

 k-point     6 :       0.3750    0.3750    0.1250
  band No.  band energies     occupation 
      1     -34.9420      1.00000
      2     -34.9355      1.00000
      3     -34.9347      1.00000
      4     -34.9309      1.00000
      5     -34.9058      1.00000
      6     -34.8988      1.00000
      7     -34.8981      1.00000
      8     -34.8939      1.00000
      9     -34.8024      1.00000
     10     -34.8015      1.00000
     11     -34.7959      1.00000
     12     -34.7947      1.00000
     13     -34.7772      1.00000
     14     -34.7737      1.00000
     15     -34.7682      1.00000
     16     -34.7678      1.00000
     17     -34.7367      1.00000
     18     -34.7360      1.00000
     19     -34.7286      1.00000
     20     -34.7265      1.00000
     21     -34.7063      1.00000
     22     -34.7055      1.00000
     23     -34.6990      1.00000
     24     -34.6984      1.00000
     25     -23.0611      1.00000
     26     -23.0386      1.00000
     27     -23.0230      1.00000
     28     -22.9961      1.00000
     29     -22.8820      1.00000
     30     -22.8638      1.00000
     31     -22.8522      1.00000
     32     -22.8316      1.00000
     33     -22.4401      1.00000
     34     -22.4219      1.00000
     35     -22.3889      1.00000
     36     -22.3492      1.00000
     37     -22.3083      1.00000
     38     -22.2684      1.00000
     39     -22.2371      1.00000
     40     -22.2221      1.00000
     41     -16.7774      1.00000
     42     -16.7452      1.00000
     43     -16.7066      1.00000
     44     -16.6493      1.00000
     45     -16.5823      1.00000
     46     -16.5338      1.00000
     47     -16.5019      1.00000
     48     -16.4808      1.00000
     49      -6.3955      1.00000
     50      -6.3812      1.00000
     51      -6.3735      1.00000
     52      -6.3603      1.00000
     53      -6.0237      1.00000
     54      -5.9959      1.00000
     55      -5.9308      1.00000
     56      -5.9020      1.00000
     57      -5.8896      1.00000
     58      -5.8506      1.00000
     59      -5.7613      1.00000
     60      -5.7148      1.00000
     61      -5.6649      1.00000
     62      -5.6018      1.00000
     63      -5.5734      1.00000
     64      -5.5237      1.00000
     65      -5.1105      1.00000
     66      -5.0670      1.00000
     67      -4.9287      1.00000
     68      -4.8721      1.00000
     69      -4.7984      1.00000
     70      -4.7393      1.00000
     71      -4.6874      1.00000
     72      -4.6405      1.00000
     73      -4.6279      1.00000
     74      -4.5737      1.00000
     75      -4.5669      1.00000
     76      -4.5220      1.00000
     77      -4.4658      1.00000
     78      -4.4372      1.00000
     79      -4.3937      1.00000
     80      -4.3425      1.00000
     81      -4.3312      1.00000
     82      -4.2789      1.00000
     83      -4.2461      1.00000
     84      -4.1063      1.00000
     85      -3.8781      1.00000
     86      -3.8649      1.00000
     87      -3.8260      1.00000
     88      -3.7828      1.00000
     89      -3.7130      1.00000
     90      -3.4511      1.00000
     91      -3.4237      1.00000
     92      -3.3810      1.00000
     93      -3.3526      1.00000
     94      -3.3154      1.00000
     95      -3.2602      1.00000
     96      -3.2457      1.00000
     97      -3.2168      1.00000
     98      -3.1772      1.00000
     99      -3.1284      1.00000
    100      -3.0887      1.00000
    101      -3.0674      1.00000
    102      -3.0016      1.00000
    103      -2.9319      1.00000
    104      -2.8459      1.00000
    105      -2.6875      1.00000
    106      -2.5058      1.00000
    107      -2.4678      1.00000
    108      -2.2106      1.00000
    109      -2.1701      1.00000
    110      -2.1304      1.00000
    111      -2.0351      1.00000
    112      -2.0019      1.00000
    113      -1.9310      1.00000
    114      -1.8743      1.00000
    115      -1.8051      1.00000
    116      -1.7817      1.00000
    117      -1.6774      1.00000
    118      -1.4083      1.00000
    119      -0.9775      1.00000
    120      -0.8536      1.00000
    121       2.1578      0.00000
    122       2.1771      0.00000
    123       2.2703      0.00000
    124       2.3386      0.00000
    125       2.3780      0.00000
    126       2.4329      0.00000
    127       2.4484      0.00000
    128       2.4946      0.00000
    129       2.6024      0.00000
    130       2.6272      0.00000
    131       2.8474      0.00000
    132       3.1618      0.00000
    133       3.2553      0.00000
    134       3.2922      0.00000
    135       3.3472      0.00000
    136       3.3697      0.00000
    137       3.4182      0.00000
    138       3.4517      0.00000
    139       3.4979      0.00000
    140       3.5929      0.00000
    141       3.6386      0.00000
    142       3.6771      0.00000
    143       3.7259      0.00000
    144       3.7940      0.00000
    145       3.8947      0.00000
    146       3.9657      0.00000
    147       4.0110      0.00000
    148       4.0667      0.00000
    149       4.1034      0.00000
    150       4.2588      0.00000
    151       4.3861      0.00000
    152       4.6120      0.00000
    153       4.7085      0.00000
    154       5.2053      0.00000
    155       5.2524      0.00000
    156       5.5125      0.00000
    157       5.8437      0.00000
    158       6.1017      0.00000
    159       6.4910      0.00000
    160       6.5754      0.00000

 k-point     7 :      -0.3750    0.3750    0.1250
  band No.  band energies     occupation 
      1     -34.9420      1.00000
      2     -34.9355      1.00000
      3     -34.9347      1.00000
      4     -34.9309      1.00000
      5     -34.9058      1.00000
      6     -34.8988      1.00000
      7     -34.8981      1.00000
      8     -34.8939      1.00000
      9     -34.8024      1.00000
     10     -34.8015      1.00000
     11     -34.7959      1.00000
     12     -34.7947      1.00000
     13     -34.7772      1.00000
     14     -34.7737      1.00000
     15     -34.7682      1.00000
     16     -34.7678      1.00000
     17     -34.7367      1.00000
     18     -34.7360      1.00000
     19     -34.7286      1.00000
     20     -34.7265      1.00000
     21     -34.7063      1.00000
     22     -34.7055      1.00000
     23     -34.6990      1.00000
     24     -34.6984      1.00000
     25     -23.0611      1.00000
     26     -23.0386      1.00000
     27     -23.0230      1.00000
     28     -22.9961      1.00000
     29     -22.8820      1.00000
     30     -22.8638      1.00000
     31     -22.8522      1.00000
     32     -22.8316      1.00000
     33     -22.4401      1.00000
     34     -22.4219      1.00000
     35     -22.3889      1.00000
     36     -22.3492      1.00000
     37     -22.3083      1.00000
     38     -22.2684      1.00000
     39     -22.2371      1.00000
     40     -22.2221      1.00000
     41     -16.7774      1.00000
     42     -16.7452      1.00000
     43     -16.7066      1.00000
     44     -16.6493      1.00000
     45     -16.5823      1.00000
     46     -16.5338      1.00000
     47     -16.5019      1.00000
     48     -16.4808      1.00000
     49      -6.3955      1.00000
     50      -6.3812      1.00000
     51      -6.3735      1.00000
     52      -6.3603      1.00000
     53      -6.0237      1.00000
     54      -5.9959      1.00000
     55      -5.9308      1.00000
     56      -5.9020      1.00000
     57      -5.8896      1.00000
     58      -5.8506      1.00000
     59      -5.7613      1.00000
     60      -5.7148      1.00000
     61      -5.6649      1.00000
     62      -5.6018      1.00000
     63      -5.5734      1.00000
     64      -5.5237      1.00000
     65      -5.1105      1.00000
     66      -5.0670      1.00000
     67      -4.9287      1.00000
     68      -4.8721      1.00000
     69      -4.7984      1.00000
     70      -4.7393      1.00000
     71      -4.6874      1.00000
     72      -4.6405      1.00000
     73      -4.6279      1.00000
     74      -4.5737      1.00000
     75      -4.5669      1.00000
     76      -4.5220      1.00000
     77      -4.4658      1.00000
     78      -4.4372      1.00000
     79      -4.3937      1.00000
     80      -4.3425      1.00000
     81      -4.3312      1.00000
     82      -4.2789      1.00000
     83      -4.2461      1.00000
     84      -4.1063      1.00000
     85      -3.8781      1.00000
     86      -3.8649      1.00000
     87      -3.8260      1.00000
     88      -3.7828      1.00000
     89      -3.7130      1.00000
     90      -3.4511      1.00000
     91      -3.4237      1.00000
     92      -3.3810      1.00000
     93      -3.3526      1.00000
     94      -3.3154      1.00000
     95      -3.2602      1.00000
     96      -3.2457      1.00000
     97      -3.2168      1.00000
     98      -3.1772      1.00000
     99      -3.1284      1.00000
    100      -3.0887      1.00000
    101      -3.0674      1.00000
    102      -3.0016      1.00000
    103      -2.9319      1.00000
    104      -2.8459      1.00000
    105      -2.6875      1.00000
    106      -2.5058      1.00000
    107      -2.4678      1.00000
    108      -2.2106      1.00000
    109      -2.1701      1.00000
    110      -2.1304      1.00000
    111      -2.0351      1.00000
    112      -2.0019      1.00000
    113      -1.9310      1.00000
    114      -1.8743      1.00000
    115      -1.8051      1.00000
    116      -1.7817      1.00000
    117      -1.6774      1.00000
    118      -1.4083      1.00000
    119      -0.9775      1.00000
    120      -0.8536      1.00000
    121       2.1578      0.00000
    122       2.1771      0.00000
    123       2.2703      0.00000
    124       2.3386      0.00000
    125       2.3780      0.00000
    126       2.4329      0.00000
    127       2.4484      0.00000
[...]
 -0.000   0.000  -0.000  -0.000  -0.000  -0.000  -0.000  -0.000   0.000  -0.000  -0.000   0.000   0.000  -0.000   0.000  -0.000
 -0.000   0.000   0.000   0.000   0.000   0.000  -0.000  -0.000   0.000  -0.000  -0.000  -0.000   0.000  -0.000   0.000   0.000
 -0.000   0.000   0.000  -0.000  -0.000   0.000   0.000   0.000   0.000   0.000  -0.000  -0.000  -0.000  -0.000  -0.000   0.000
  0.000   0.000   0.000   0.000   0.000   0.000   0.000   0.000   0.000   0.000   0.000  -0.000  -0.000  -0.000  -0.000  -0.000
  0.000   0.000   0.000  -0.000   0.000   0.000   0.000   0.000   0.000  -0.000  -0.000  -0.000  -0.000   0.000   0.000   0.000
  0.000  -0.000   0.000   0.000   0.000   0.000   0.000   0.000  -0.000   0.000   0.000  -0.000  -0.000   0.000  -0.000  -0.000
  0.000   0.000  -0.000  -0.000  -0.000   0.000  -0.000   0.000  -0.000  -0.000   0.000   0.000  -0.000   0.000  -0.000   0.000
  0.000  -0.000  -0.000   0.000   0.000  -0.000   0.000  -0.000  -0.000   0.000   0.000  -0.000   0.000   0.000  -0.000  -0.000
 -0.000   0.000  -0.000   0.000   0.000  -0.000  -0.000   0.000  -0.000   0.000   0.000  -0.000  -0.000   0.000  -0.000  -0.000


------------------------ aborting loop because EDIFF is reached ----------------------------------------


 


 total charge     
 
# of ion       s       p       d       tot
------------------------------------------
    1        0.317   6.463   1.755   8.535
    2        0.318   6.464   1.760   8.542
    3        0.318   6.464   1.760   8.541
    4        0.319   6.465   1.763   8.547
    5        0.317   6.463   1.755   8.535
    6        0.318   6.464   1.760   8.541
    7        0.318   6.464   1.760   8.542
    8        0.319   6.465   1.763   8.547
    9        1.569   3.472   0.000   5.041
   10        1.570   3.474   0.000   5.044
   11        1.571   3.475   0.000   5.046
   12        1.570   3.473   0.000   5.043
   13        1.570   3.473   0.000   5.043
   14        1.571   3.475   0.000   5.046
   15        1.569   3.472   0.000   5.041
   16        1.570   3.474   0.000   5.044
   17        1.729   4.382   0.000   6.111
   18        1.729   4.383   0.000   6.112
   19        1.729   4.383   0.000   6.112
   20        1.729   4.384   0.000   6.113
   21        1.729   4.382   0.000   6.111
   22        1.729   4.383   0.000   6.112
   23        1.729   4.383   0.000   6.112
   24        1.729   4.384   0.000   6.113
   25        1.730   4.380   0.000   6.110
   26        1.729   4.379   0.000   6.109
   27        1.729   4.378   0.000   6.107
   28        1.729   4.377   0.000   6.106
   29        1.729   4.378   0.000   6.107
   30        1.729   4.377   0.000   6.106
   31        1.730   4.380   0.000   6.110
   32        1.729   4.379   0.000   6.109
--------------------------------------------------
tot         42.770 149.593  14.076 206.439
 


 magnetization (x)
 
# of ion       s       p       d       tot
------------------------------------------
    1        0.000  -0.000  -0.000  -0.000
    2        0.000  -0.000   0.000   0.000
    3        0.000  -0.000   0.000   0.000
    4        0.000   0.000   0.000   0.000
    5        0.000   0.000  -0.000  -0.000
    6        0.000   0.000   0.000   0.000
    7        0.000   0.000  -0.000   0.000
    8        0.000   0.000  -0.000  -0.000
    9        0.000  -0.000   0.000  -0.000
   10       -0.000  -0.000   0.000  -0.000
   11       -0.000   0.000   0.000  -0.000
   12       -0.000   0.000   0.000   0.000
   13       -0.000  -0.000   0.000  -0.000
   14       -0.000  -0.000   0.000  -0.000
   15       -0.000   0.000   0.000   0.000
   16       -0.000   0.000   0.000   0.000
   17        0.000   0.000   0.000   0.000
   18        0.000  -0.000   0.000  -0.000
   19       -0.000  -0.000   0.000  -0.000
   20        0.000   0.000   0.000   0.000
   21        0.000   0.000   0.000   0.000
   22        0.000  -0.000   0.000  -0.000
   23       -0.000  -0.000   0.000  -0.000
   24       -0.000   0.000   0.000   0.000
   25       -0.000   0.000   0.000   0.000
   26        0.000  -0.000   0.000  -0.000
   27        0.000  -0.000   0.000  -0.000
   28        0.000  -0.000   0.000  -0.000
   29       -0.000   0.000   0.000   0.000
   30        0.000   0.000   0.000   0.000
   31        0.000  -0.000   0.000  -0.000
   32       -0.000   0.000   0.000  -0.000
--------------------------------------------------
tot         -0.000  -0.000  -0.000  -0.000
 
    CHARGE:  cpu time    1.1788: real time    1.1770
    FORLOC:  cpu time    0.0100: real time    0.0100
    FORNL :  cpu time    6.9179: real time    6.9100
    STRESS:  cpu time   20.9088: real time   20.8722
    FORCOR:  cpu time    0.1290: real time    0.1291
    FORHAR:  cpu time    0.0220: real time    0.0213
    MIXING:  cpu time    0.0010: real time    0.0015
    OFIELD:  cpu time    0.0000: real time    0.0000

  FORCE on cell =-STRESS in cart. coord.  units (eV):
  Direction    XX          YY          ZZ          XY          YZ          ZX
  --------------------------------------------------------------------------------------
  Alpha Z   759.66982   759.66982   759.66982
  Ewald   -4338.78103 -4239.75455 -4239.75462    -0.00000     3.52703     0.00001
  Hartree  2710.06740  2757.29464  2757.29456    -0.00000     0.85969     0.00001
  E(xc)   -1232.09585 -1232.59563 -1232.59563    -0.00000     0.00091    -0.00000
  Local   -2013.24977 -2218.14053 -2218.14038     0.00000    -4.27989    -0.00002
  n-local  -974.99696  -963.26152  -963.26151    -0.00000     0.05290     0.00000
  augment   744.28857   763.65039   763.65040    -0.00000     0.00689     0.00000
  Kinetic  4345.07064  4373.16572  4373.16574     0.00000    -0.16891    -0.00000
  Fock        0.00000     0.00000     0.00000     0.00000     0.00000     0.00000
  -------------------------------------------------------------------------------------
  Total      -0.02718     0.02834     0.02837    -0.00000    -0.00138    -0.00000
  in kB      -0.09447     0.09850     0.09862    -0.00000    -0.00479    -0.00000
  external pressure =        0.03 kB  Pullay stress =        0.00 kB


 VOLUME and BASIS-vectors are now :
 -----------------------------------------------------------------------------
  energy-cutoff  :      700.00
  volume of cell :      460.95
      direct lattice vectors                 reciprocal lattice vectors
     7.862519556 -0.000000002  0.000000010     0.127185693  0.000000000 -0.000000000
    -0.000000006  7.656737211  0.000185638     0.000000000  0.130603934 -0.000003166
     0.000000008  0.000185636  7.656737319    -0.000000000 -0.000003167  0.130603932

  length of vectors
     7.862519556  7.656737213  7.656737321     0.127185693  0.130603934  0.130603932


 FORCES acting on ions
    electron-ion (+dipol)            ewald-force                    non-local-force                 convergence-correction
 -----------------------------------------------------------------------------------------------
   0.158E-04 0.311E+02 0.136E+02   -.157E-04 -.319E+02 -.146E+02   -.148E-06 0.829E+00 0.947E+00   0.678E-07 -.226E-03 -.405E-03
   -.132E-04 0.170E+02 -.143E+02   0.131E-04 -.179E+02 0.152E+02   0.125E-06 0.924E+00 -.952E+00   0.113E-06 -.534E-03 0.341E-03
   0.262E-04 -.316E+02 0.587E+01   -.259E-04 0.325E+02 -.486E+01   -.353E-06 -.836E+00 -.102E+01   0.108E-06 0.160E-03 0.133E-02
   -.188E-04 -.174E+02 -.534E+01   0.185E-04 0.184E+02 0.432E+01   0.314E-06 -.931E+00 0.102E+01   0.606E-07 0.523E-03 -.132E-02
   -.298E-04 0.136E+02 0.311E+02   0.293E-04 -.146E+02 -.319E+02   0.509E-06 0.946E+00 0.829E+00   0.429E-07 -.406E-03 -.218E-03
   0.221E-04 0.587E+01 -.316E+02   -.219E-04 -.486E+01 0.325E+02   -.312E-06 -.102E+01 -.836E+00   0.324E-07 0.132E-02 0.154E-03
   -.228E-04 -.143E+02 0.170E+02   0.225E-04 0.152E+02 -.179E+02   0.339E-06 -.952E+00 0.924E+00   0.138E-07 0.343E-03 -.531E-03
   0.150E-04 -.534E+01 -.174E+02   -.148E-04 0.432E+01 0.184E+02   -.230E-06 0.102E+01 -.931E+00   0.224E-07 -.131E-02 0.519E-03
   0.447E-05 0.133E+00 0.510E+01   -.414E-05 -.161E+00 -.519E+01   -.472E-06 0.307E-01 0.910E-01   0.467E-07 0.209E-03 0.293E-03
   0.120E-05 0.223E+00 -.533E+01   -.211E-05 -.264E+00 0.543E+01   0.871E-06 0.386E-01 -.922E-01   0.487E-07 -.393E-03 -.314E-03
   -.398E-07 -.334E+00 0.978E+01   0.812E-06 0.370E+00 -.126E+02   -.761E-06 -.343E-01 0.285E+01   -.692E-08 0.375E-03 -.380E-03
   -.497E-05 0.259E+00 -.996E+01   0.446E-05 -.285E+00 0.128E+02   0.511E-06 0.288E-01 -.285E+01   0.393E-07 0.243E-03 0.410E-03
   -.640E-05 -.996E+01 0.260E+00   0.696E-05 0.128E+02 -.286E+00   -.665E-06 -.285E+01 0.288E-01   0.682E-07 0.406E-03 0.240E-03
   -.573E-06 0.979E+01 -.334E+00   0.672E-06 -.126E+02 0.370E+00   -.179E-06 0.285E+01 -.343E-01   0.783E-07 -.376E-03 0.377E-03
   0.706E-05 0.510E+01 0.133E+00   -.782E-05 -.519E+01 -.161E+00   0.765E-06 0.910E-01 0.307E-01   -.744E-09 0.289E-03 0.212E-03
   -.474E-05 -.533E+01 0.223E+00   0.502E-05 0.543E+01 -.264E+00   -.284E-06 -.922E-01 0.386E-01   -.148E-07 -.310E-03 -.388E-03
   -.503E-05 -.581E+01 -.581E+01   0.438E-05 0.907E+01 0.907E+01   -.837E-06 -.325E+01 -.325E+01   0.211E-05 0.730E-03 0.734E-03
   0.239E+00 0.646E+01 0.597E+01   -.236E+00 -.659E+01 -.926E+01   -.333E-02 0.125E+00 0.328E+01   0.464E-04 0.329E-03 -.788E-03
   -.239E+00 0.597E+01 0.646E+01   0.236E+00 -.926E+01 -.659E+01   0.333E-02 0.328E+01 0.125E+00   -.460E-04 -.784E-03 0.333E-03
   -.347E-04 -.642E+01 -.642E+01   0.386E-04 0.654E+01 0.654E+01   0.541E-06 -.118E+00 -.118E+00   -.288E-05 -.342E-03 -.346E-03
   0.107E-04 -.581E+01 -.581E+01   -.926E-05 0.907E+01 0.907E+01   0.862E-07 -.325E+01 -.325E+01   -.216E-05 0.729E-03 0.734E-03
   -.239E+00 0.646E+01 0.597E+01   0.236E+00 -.659E+01 -.926E+01   0.333E-02 0.125E+00 0.328E+01   -.466E-04 0.329E-03 -.788E-03
   0.239E+00 0.597E+01 0.646E+01   -.236E+00 -.926E+01 -.659E+01   -.333E-02 0.328E+01 0.125E+00   0.460E-04 -.784E-03 0.333E-03
   0.370E-04 -.642E+01 -.642E+01   -.409E-04 0.654E+01 0.654E+01   -.503E-06 -.118E+00 -.118E+00   0.284E-05 -.342E-03 -.346E-03
   -.479E-05 0.479E+00 0.583E+01   0.787E-05 -.531E+00 -.590E+01   -.304E-05 0.521E-01 0.617E-01   0.495E-07 -.362E-03 0.400E-03
   0.257E-05 0.529E+00 -.559E+01   -.439E-05 -.600E+00 0.565E+01   0.189E-05 0.712E-01 -.590E-01   -.156E-07 0.574E-03 -.400E-03
   0.238E-05 0.209E+00 -.618E+01   -.570E-05 -.266E+00 0.939E+01   0.327E-05 0.560E-01 -.320E+01   -.767E-08 -.420E-03 0.853E-03
   -.131E-05 -.258E+00 0.568E+01   0.329E-05 0.329E+00 -.882E+01   -.202E-05 -.712E-01 0.313E+01   0.128E-07 -.527E-03 -.764E-03
   0.104E-04 -.618E+01 0.209E+00   -.114E-04 0.939E+01 -.266E+00   0.887E-06 -.320E+01 0.560E-01   0.617E-07 0.849E-03 -.419E-03
   0.308E-05 0.568E+01 -.258E+00   -.297E-05 -.882E+01 0.329E+00   -.159E-06 0.313E+01 -.712E-01   0.263E-07 -.759E-03 -.529E-03
   -.913E-05 0.583E+01 0.479E+00   0.951E-05 -.590E+01 -.531E+00   -.272E-06 0.617E-01 0.521E-01   -.383E-07 0.396E-03 -.365E-03
   0.274E-06 -.559E+01 0.529E+00   -.439E-06 0.565E+01 -.600E+00   0.112E-06 -.590E-01 0.712E-01   0.343E-07 -.395E-03 0.571E-03
 -----------------------------------------------------------------------------------------------
   -.129E-05 -.165E+00 -.165E+00   -.230E-13 -.385E-12 0.899E-14   0.839E-06 0.165E+00 0.165E+00   0.635E-06 -.463E-03 -.465E-03
 
 
 POSITION                                       TOTAL-FORCE (eV/Angst)
 -----------------------------------------------------------------------------------
      0.00000      7.57035      7.56350         0.000000      0.002634      0.001764
      7.86252      7.56553      3.92117         0.000000      0.003030     -0.004043
     -0.00000      3.91460      0.09755         0.000000     -0.004091     -0.002734
      7.86252      3.91914      3.73185         0.000000     -0.001610      0.001468
      3.93126      7.56350      7.57035         0.000000      0.001753      0.002640
      3.93126      0.09755      3.91460        -0.000000     -0.002729     -0.004092
      3.93126      3.92117      7.56553         0.000000     -0.004035      0.003037
      3.93126      3.73185      3.91914        -0.000000      0.001464     -0.001611
      0.00000      5.74268      7.65351        -0.000000      0.002946     -0.001663
      7.86252      5.74266      3.83187         0.000000     -0.002331      0.001723
      3.93126      1.91431      3.78835        -0.000000      0.002040      0.001298
      3.93126      5.74236      0.04164         0.000000      0.003056      0.000671
      0.00000      0.04164      5.74236        -0.000000      0.000673      0.003052
      0.00000      3.78835      1.91431        -0.000000      0.001296      0.002043
      3.93126      7.65351      5.74268        -0.000000     -0.001662      0.002939
      3.93126      3.83187      5.74266        -0.000000      0.001721     -0.002341
      1.96563      0.05006      0.05006         0.000001      0.004960      0.004959
      1.96573      7.65301      3.77763         0.000273     -0.002169     -0.006311
      1.96553      3.77763      7.65301        -0.000272     -0.006312     -0.002170
      1.96563      3.83209      3.83209         0.000002      0.001963      0.001963
      5.89689      0.05006      0.05006        -0.000001      0.004960      0.004959
      5.89679      7.65301      3.77763        -0.000273     -0.002169     -0.006311
      5.89699      3.77763      7.65301         0.000272     -0.006312     -0.002170
      5.89689      3.83209      3.83209        -0.000002      0.001963      0.001963
      0.00000      1.91498      7.65423         0.000000     -0.000651     -0.001297
      7.86252      1.91493      3.83097         0.000000      0.001089      0.000758
      3.93126      1.91460      0.07530        -0.000000     -0.000850      0.007910
      3.93126      5.74212      3.75388        -0.000000     -0.000822     -0.007175
      7.86252      0.07530      1.91460        -0.000000      0.007911     -0.000849
      0.00000      3.75388      5.74212        -0.000000     -0.007176     -0.000823
      3.93126      7.65423      1.91498         0.000000     -0.001297     -0.000648
      3.93126      3.83097      1.91493        -0.000000      0.000758      0.001091
 -----------------------------------------------------------------------------------
    total drift:                                0.000000     -0.000477     -0.000477


--------------------------------------------------------------------------------------------------------



  FREE ENERGIE OF THE ION-ELECTRON SYSTEM (eV)
  ---------------------------------------------------
  free  energy   TOTEN  =      -213.59553671 eV

  energy  without entropy=     -213.59553671  energy(sigma->0) =     -213.59553671
 


--------------------------------------------------------------------------------------------------------


    POTLOK:  cpu time    0.9739: real time    0.9730


--------------------------------------------------------------------------------------------------------


 stress matrix after NEB project (eV)
     -0.02718     -0.00000     -0.00000
     -0.00000      0.02834     -0.00138
     -0.00000     -0.00138      0.02837
  FORCES: max atom, RMS     0.007956    0.004779
  FORCE total and by dimension    0.027035    0.007911
  Stress total and by dimension    0.048483    0.028372
 Quasi-Newton relaxation of ions (Broydens 2nd method)
  g(Force)  = 0.353E-04   g(Stress)= 0.354E-05

 Reset! Starting new Quasi-Newton update for ions 


--------------------------------------------------------------------------------------------------------


  
 reached required accuracy - stopping structural energy minimisation
 writing wavefunctions
     LOOP+:  cpu time  109.8003: real time  111.0304
    4ORBIT:  cpu time    0.0000: real time    0.0000
 


 total charge     
 
# of ion       s       p       d       tot
------------------------------------------
    1        0.317   6.463   1.755   8.535
    2        0.318   6.464   1.760   8.542
    3        0.318   6.464   1.760   8.541
    4        0.319   6.465   1.763   8.547
    5        0.317   6.463   1.755   8.535
    6        0.318   6.464   1.760   8.541
    7        0.318   6.464   1.760   8.542
    8        0.319   6.465   1.763   8.547
    9        1.569   3.472   0.000   5.041
   10        1.570   3.474   0.000   5.044
   11        1.571   3.475   0.000   5.046
   12        1.570   3.473   0.000   5.043
   13        1.570   3.473   0.000   5.043
   14        1.571   3.475   0.000   5.046
   15        1.569   3.472   0.000   5.041
   16        1.570   3.474   0.000   5.044
   17        1.729   4.382   0.000   6.111
   18        1.729   4.383   0.000   6.112
   19        1.729   4.383   0.000   6.112
   20        1.729   4.384   0.000   6.113
   21        1.729   4.382   0.000   6.111
   22        1.729   4.383   0.000   6.112
   23        1.729   4.383   0.000   6.112
   24        1.729   4.384   0.000   6.113
   25        1.730   4.380   0.000   6.110
   26        1.729   4.379   0.000   6.109
   27        1.729   4.378   0.000   6.107
   28        1.729   4.377   0.000   6.106
   29        1.729   4.378   0.000   6.107
   30        1.729   4.377   0.000   6.106
   31        1.730   4.380   0.000   6.110
   32        1.729   4.379   0.000   6.109
--------------------------------------------------
tot         42.770 149.593  14.076 206.439
 


 magnetization (x)
 
# of ion       s       p       d       tot
------------------------------------------
    1        0.000  -0.000  -0.000  -0.000
    2        0.000  -0.000   0.000   0.000
    3        0.000  -0.000   0.000   0.000
    4        0.000   0.000   0.000   0.000
    5        0.000   0.000  -0.000  -0.000
    6        0.000   0.000   0.000   0.000
    7        0.000   0.000  -0.000   0.000
    8        0.000   0.000  -0.000  -0.000
    9        0.000  -0.000   0.000  -0.000
   10       -0.000  -0.000   0.000  -0.000
   11       -0.000   0.000   0.000  -0.000
   12       -0.000   0.000   0.000   0.000
   13       -0.000  -0.000   0.000  -0.000
   14       -0.000  -0.000   0.000  -0.000
   15       -0.000   0.000   0.000   0.000
   16       -0.000   0.000   0.000   0.000
   17        0.000   0.000   0.000   0.000
   18        0.000  -0.000   0.000  -0.000
   19       -0.000  -0.000   0.000  -0.000
   20        0.000   0.000   0.000   0.000
   21        0.000   0.000   0.000   0.000
   22        0.000  -0.000   0.000  -0.000
   23       -0.000  -0.000   0.000  -0.000
   24       -0.000   0.000   0.000   0.000
   25       -0.000   0.000   0.000   0.000
   26        0.000  -0.000   0.000  -0.000
   27        0.000  -0.000   0.000  -0.000
   28        0.000  -0.000   0.000  -0.000
   29       -0.000   0.000   0.000   0.000
   30        0.000   0.000   0.000   0.000
   31        0.000  -0.000   0.000  -0.000
   32       -0.000   0.000   0.000  -0.000
--------------------------------------------------
tot         -0.000  -0.000  -0.000  -0.000
 

 total amount of memory used by VASP MPI-rank0   106717. kBytes
=======================================================================

   base      :      30000. kBytes
   nonlr-proj:       8597. kBytes
   fftplans  :       8423. kBytes
   grid      :       8783. kBytes
   one-center:        124. kBytes
   wavefun   :      50790. kBytes
 
  
  
 General timing and accounting informations for this job:
 ========================================================
  
                  Total CPU time used (sec):      159.308
                            User time (sec):      144.208
                          System time (sec):       15.100
                         Elapsed time (sec):      172.994
  
                   Maximum memory used (kb):      224332.
                   Average memory used (kb):           0.
  
                          Minor page faults:        85813
                          Major page faults:            2
                 Voluntary context switches:        65409
