 vasp.6.3.0 20Jan22 (build Jan 25 2022 13:20:17) complex                        
  
 executed on             LinuxIFC date 2024.06.05  15:58:48
 running on   80 total cores
 distrk:  each k-point on   80 cores,    1 groups
 distr:  one band on NCORE=   8 cores,   10 groups


--------------------------------------------------------------------------------------------------------


 INCAR:
   SYSTEM = LTO
   ISTART = 1
   ENCUT = 700.0
   IALGO = 38
   EDIFF = 1E-6
   PREC = Accurate
   ISPIN = 2
   LMAXMIX = 4
   ADDGRID = .TRUE.
   LASPH = .TRUE.
   LREAL = Auto
   ROPT = 1E-4 1E-4 1E-4
   GGA = PS
   LDAU = .TRUE.
   LDAUTYPE = 2
   LDAUL = 2   -1    -1
   LDAUU = 4.2  0.0  0.0
   LDAUJ = 0.0  0.0  0.0
   NSW = 100
   EDIFFG = -0.01
   IBRION = 1
   ISIF = 3
   ISMEAR = 0
   SIGMA = 0.01
   ISYM = 0
   LORBIT = 11
   NEDOS = 3001
   NWRITE = 2
   NCORE = 8

 POTCAR:   PAW_PBE Ti_pv 07Sep2000                
 POTCAR:   PAW_PBE O 08Apr2002                    
 POTCAR:    PAW_PBE F 08Apr2002                   
 -----------------------------------------------------------------------------
|                                                                             |
|           W    W    AA    RRRRR   N    N  II  N    N   GGGG   !!!           |
|           W    W   A  A   R    R  NN   N  II  NN   N  G    G  !!!           |
|           W    W  A    A  R    R  N N  N  II  N N  N  G       !!!           |
|           W WW W  AAAAAA  RRRRR   N  N N  II  N  N N  G  GGG   !            |
|           WW  WW  A    A  R   R   N   NN  II  N   NN  G    G                |
|           W    W  A    A  R    R  N    N  II  N    N   GGGG   !!!           |
|                                                                             |
|     You use a magnetic or noncollinear calculation, but did not specify     |
|     the initial magnetic moment with the MAGMOM tag. Note that a            |
|     default of 1 will be used for all atoms. This ferromagnetic setup       |
|     may break the symmetry of the crystal, in particular it may rule        |
|     out finding an antiferromagnetic solution. Thence, we recommend         |
|     setting the initial magnetic moment manually or verifying carefully     |
|     that this magnetic setup is desired.                                    |
|                                                                             |
 -----------------------------------------------------------------------------

 POTCAR:   PAW_PBE Ti_pv 07Sep2000                
   VRHFIN =Ti: d3 s1                                                                                
   LEXCH  = PE                                                                                      
   EATOM  =  1042.3781 eV,   76.6126 Ry                                                             
                                                                                                    
   TITEL  = PAW_PBE Ti_pv 07Sep2000                                                                 
   LULTRA =        F    use ultrasoft PP ?                                                          
   IUNSCR =        1    unscreen: 0-lin 1-nonlin 2-no                                               
   RPACOR =    2.200    partial core radius                                                         
   POMASS =   47.880; ZVAL   =   10.000    mass and valenz                                          
   RCORE  =    2.500    outmost cutoff radius                                                       
   RWIGS  =    2.500; RWIGS  =    1.323    wigner-seitz radius (au A)                               
   ENMAX  =  222.338; ENMIN  =  166.753 eV                                                          
   RCLOC  =    1.701    cutoff for local pot                                                        
   LCOR   =        T    correct aug charges                                                         
   LPAW   =        T    paw PP                                                                      
   EAUG   =  482.848                                                                                
   DEXC   =    -.008                                                                                
   RMAX   =    3.092    core radius for proj-oper                                                   
   RAUG   =    1.300    factor for augmentation sphere                                              
   RDEP   =    2.538    radius for radial grids                                                     
   QCUT   =   -4.042; QGAM   =    8.085    optimization parameters                                  
                                                                                                    
   Description                                                                                      
     l     E      TYP  RCUT    TYP  RCUT                                                            
     1   .000     23  2.300                                                                         
     1  -.100     23  2.300                                                                         
     2   .000     23  2.500                                                                         
     2   .000     23  2.500                                                                         
     0   .000     23  2.500                                                                         
     0  1.500     23  2.500                                                                         
     3   .000      7   .000                                                                         
  local pseudopotential read in
  partial core-charges read in
  atomic valenz-charges read in
  non local Contribution for L=           1  read in
    real space projection operators read in
  non local Contribution for L=           1  read in
    real space projection operators read in
  non local Contribution for L=           2  read in
    real space projection operators read in
  non local Contribution for L=           2  read in
    real space projection operators read in
  non local Contribution for L=           0  read in
    real space projection operators read in
  non local Contribution for L=           0  read in
    real space projection operators read in
    PAW grid and wavefunctions read in
 
   number of l-projection  operators is LMAX  =           6
   number of lm-projection operators is LMMAX =          18
 
 POTCAR:   PAW_PBE O 08Apr2002                    
   VRHFIN =O: s2p4                                                                                  
   LEXCH  = PE                                                                                      
   EATOM  =   432.3788 eV,   31.7789 Ry                                                             
                                                                                                    
   TITEL  = PAW_PBE O 08Apr2002                                                                     
   LULTRA =        F    use ultrasoft PP ?                                                          
   IUNSCR =        0    unscreen: 0-lin 1-nonlin 2-no                                               
   RPACOR =     .000    partial core radius                                                         
   POMASS =   16.000; ZVAL   =    6.000    mass and valenz                                          
   RCORE  =    1.520    outmost cutoff radius                                                       
   RWIGS  =    1.550; RWIGS  =     .820    wigner-seitz radius (au A)                               
   ENMAX  =  400.000; ENMIN  =  300.000 eV                                                          
   ICORE  =        2    local potential                                                             
   LCOR   =        T    correct aug charges                                                         
   LPAW   =        T    paw PP                                                                      
   EAUG   =  605.392                                                                                
   DEXC   =     .000                                                                                
   RMAX   =    2.264    core radius for proj-oper                                                   
   RAUG   =    1.300    factor for augmentation sphere                                              
   RDEP   =    1.550    radius for radial grids                                                     
   QCUT   =   -5.520; QGAM   =   11.041    optimization parameters                                  
                                                                                                    
   Description                                                                                      
     l     E      TYP  RCUT    TYP  RCUT                                                            
     0   .000     23  1.200                                                                         
     0  -.700     23  1.200                                                                         
     1   .000     23  1.520                                                                         
     1   .600     23  1.520                                                                         
     2   .000      7  1.500                                                                         
  local pseudopotential read in
  atomic valenz-charges read in
  non local Contribution for L=           0  read in
    real space projection operators read in
  non local Contribution for L=           0  read in
    real space projection operators read in
  non local Contribution for L=           1  read in
    real space projection operators read in
  non local Contribution for L=           1  read in
    real space projection operators read in
    PAW grid and wavefunctions read in
 
   number of l-projection  operators is LMAX  =           4
   number of lm-projection operators is LMMAX =           8
 
 POTCAR:    PAW_PBE F 08Apr2002                   
   VRHFIN =F: s2p5                                                                                  
   LEXCH  = PE                                                                                      
   EATOM  =   659.6475 eV,   48.4827 Ry                                                             
                                                                                                    
   TITEL  = PAW_PBE F 08Apr2002                                                                     
   LULTRA =        F    use ultrasoft PP ?                                                          
   IUNSCR =        1    unscreen: 0-lin 1-nonlin 2-no                                               
   RPACOR =    1.200    partial core radius                                                         
   POMASS =   18.998; ZVAL   =    7.000    mass and valenz                                          
   RCORE  =    1.520    outmost cutoff radius                                                       
   RWIGS  =    1.500; RWIGS  =    0.794    wigner-seitz radius (au A)                               
   ENMAX  =  400.000; ENMIN  =  300.000 eV                                                          
   ICORE  =        2    local potential                                                             
   LCOR   =        T    correct aug charges                                                         
   LPAW   =        T    paw PP                                                                      
   EAUG   =  613.614                                                                                
   RMAX   =    1.555    core radius for proj-oper                                                   
   RAUG   =    1.300    factor for augmentation sphere                                              
   RDEP   =    1.539    radius for radial grids                                                     
   RDEPT  =    1.299    core radius for aug-charge                                                  
                                                                                                    
   Atomic configuration                                                                             
    4 entries                                                                                       
     n  l   j            E        occ.                                                              
     1  0  0.50      -663.3661   2.0000                                                             
     2  0  0.50       -29.8995   2.0000                                                             
     2  1  0.50       -11.1114   5.0000                                                             
     3  2  1.50       -10.8847   0.0000                                                             
   Description                                                                                      
     l       E           TYP  RCUT    TYP  RCUT                                                     
     0    -29.8995018     23  1.200                                                                 
     0     -9.5240782     23  1.200                                                                 
     1    -11.1113914     23  1.520                                                                 
     1      1.3605826     23  1.520                                                                 
     2    -10.8846608      7  1.500                                                                 
  local pseudopotential read in
  partial core-charges read in
  partial kinetic energy density read in
  atomic valenz-charges read in
  non local Contribution for L=           0  read in
    real space projection operators read in
  non local Contribution for L=           0  read in
    real space projection operators read in
  non local Contribution for L=           1  read in
    real space projection operators read in
  non local Contribution for L=           1  read in
    real space projection operators read in
    PAW grid and wavefunctions read in
 
   number of l-projection  operators is LMAX  =           4
   number of lm-projection operators is LMMAX =           8
 
 Optimization of the real space projectors (new method)

 maximal supplied QI-value         = 15.12
 optimisation between [QCUT,QGAM] = [ 13.45, 27.06] = [ 50.69,205.06] Ry 
 Optimized for a Real-space Cutoff    1.49 Angstroem

   l    n(q)    QCUT    max X(q) W(low)/X(q) W(high)/X(q)  e(spline) 
   1     12    13.455     4.841    0.13E-05    0.83E-06    0.56E-07
   1     12    13.455     5.701    0.32E-04    0.25E-04    0.17E-06
   2     11    13.455     4.569    0.64E-05    0.34E-05    0.50E-07
   2     11    13.455    32.276    0.49E-04    0.38E-04    0.46E-06
   0     12    13.455    30.046    0.17E-04    0.41E-05    0.51E-07
   0     12    13.455    45.433    0.12E-04    0.27E-04    0.38E-06
 Optimization of the real space projectors (new method)

 maximal supplied QI-value         = 24.76
 optimisation between [QCUT,QGAM] = [ 13.37, 26.98] = [ 50.04,203.89] Ry 
 Optimized for a Real-space Cutoff    1.17 Angstroem

   l    n(q)    QCUT    max X(q) W(low)/X(q) W(high)/X(q)  e(spline) 
   0      9    13.368     4.192    0.20E-04    0.58E-05    0.56E-07
   0      9    13.368     8.473    0.60E-04    0.52E-04    0.21E-06
   1      9    13.368     2.474    0.22E-04    0.17E-04    0.28E-07
   1      9    13.368     3.912    0.94E-04    0.97E-04    0.20E-06
 Optimization of the real space projectors (new method)

 maximal supplied QI-value         = 24.76
 optimisation between [QCUT,QGAM] = [ 13.37, 26.98] = [ 50.04,203.89] Ry 
 Optimized for a Real-space Cutoff    1.17 Angstroem

   l    n(q)    QCUT    max X(q) W(low)/X(q) W(high)/X(q)  e(spline) 
   0      9    13.368    14.049    0.39E-04    0.34E-04    0.16E-06
   0      9    13.368     8.945    0.54E-04    0.47E-04    0.20E-06
   1      9    13.368     7.086    0.99E-04    0.10E-03    0.23E-06
   1      9    13.368     6.747    0.86E-04    0.89E-04    0.21E-06
 -----------------------------------------------------------------------------
|                                                                             |
|               ----> ADVICE to this user running VASP <----                  |
|                                                                             |
|     You enforced a specific xc type in the INCAR file but a different       |
|     type was found in the POTCAR file.                                      |
|     I HOPE YOU KNOW WHAT YOU ARE DOING!                                     |
|                                                                             |
 -----------------------------------------------------------------------------

 PAW_PBE Ti_pv 07Sep2000                :
 energy of atom  1       EATOM=-1042.3781
 kinetic energy error for atom=    0.0006 (will be added to EATOM!!)
 PAW_PBE O 08Apr2002                    :
 energy of atom  2       EATOM= -432.3788
 kinetic energy error for atom=    0.0091 (will be added to EATOM!!)
  PAW_PBE F 08Apr2002                   :
 energy of atom  3       EATOM= -659.6475
 kinetic energy error for atom=    0.0140 (will be added to EATOM!!)
 
 
 POSCAR: Ti27 O27 F54
  positions in direct lattice
  velocities in cartesian coordinates
 exchange correlation table for  LEXCH =       14
   RHO(1)=    0.500       N(1)  =     2000
   RHO(2)=  100.500       N(2)  =     4000
 


--------------------------------------------------------------------------------------------------------


 ion  position               nearest neighbor table
   1  0.987  0.001  1.000-  45 1.77  91 1.92  92 1.93  55 1.93  59 1.94  73 2.07
   2  0.011  0.991  0.342-  37 1.82  30 1.85  46 1.86  91 2.06  56 2.07  83 2.10
   3  0.009  0.000  0.654-  46 1.79  38 1.83  60 1.95  57 1.96  84 2.08  92 2.09
   4  1.000  0.347  0.001-  28 1.76  93 1.92  74 1.93  94 1.93  85 1.94  55 2.08
   5  0.999  0.333  0.347-  47 1.76  56 1.93  58 1.93  75 1.94  86 1.94  93 2.09
   6  0.012  0.343  0.662-  39 1.80  29 1.82  47 1.90  94 2.03  57 2.06  87 2.13
   7  0.007  0.661  0.989-  48 1.79  40 1.89  28 1.89  59 2.02  95 2.06  88 2.06
   8  0.011  0.678  0.332-  41 1.80  30 1.80  95 1.96  96 1.96  58 2.09  89 2.12
   9  0.010  0.657  0.675-  29 1.84  42 1.84  48 1.87  96 2.04  60 2.06  90 2.10
  10  0.332  0.009  0.011-  49 1.79  31 1.83  73 1.96  76 1.97  98 2.06  65 2.07
  11  0.323  0.990  0.326-  37 1.83  33 1.84  49 1.87  97 2.04  61 2.07  77 2.10
  12  0.324  0.011  0.668-  32 1.81  38 1.83  97 1.95  98 1.95  66 2.08  78 2.08
  13  0.345  0.323  1.000-  31 1.81  43 1.81 100 1.94  99 1.94  62 2.07  74 2.09
  14  0.344  0.334  0.344-  50 1.81  44 1.83  61 1.94  63 1.94  99 2.07  75 2.09
  15  0.322  0.325  0.659-  39 1.82  50 1.85  32 1.86 100 2.04  64 2.05  79 2.14
  16  0.320  0.666  1.000-  40 1.76  65 1.92 101 1.92 102 1.93  62 1.93  80 2.12
  17  0.323  0.676  0.342-  33 1.82  41 1.85  51 1.85  63 2.06 101 2.08  81 2.11
  18  0.323  0.666  0.655-  51 1.80  42 1.81  66 1.95  64 1.96 102 2.10  82 2.11
  19  0.672  0.012  0.994-  34 1.80  52 1.87  45 1.89  76 2.00 103 2.05  71 2.11
  20  0.667  0.014  0.334-  35 1.76  77 1.92  83 1.92 104 1.94 103 1.95  72 2.12
  21  0.666  0.993  0.679-  52 1.78  36 1.87  78 1.92  84 1.93  67 2.06 104 2.08
  22  0.657  0.325  0.012-  53 1.82  43 1.84  34 1.84  85 2.06  68 2.08 106 2.11
  23  0.657  0.328  0.321-  53 1.81  44 1.82  35 1.89  69 2.04  86 2.05 105 2.12
  24  0.667  0.335  0.667-  79 1.88  87 1.88 105 1.89 106 1.89  70 1.90  67 1.91
  25  0.666  0.666  0.010-  54 1.82  71 1.90  80 1.91  88 1.92  68 1.92 108 2.04
  26  0.667  0.667  0.324-  54 1.83  81 1.90  89 1.90  72 1.91  69 1.92 107 2.04
  27  0.667  0.680  0.667-  36 1.76  90 1.90  82 1.91 107 1.94 108 1.94  70 2.10
  28  0.997  0.499  0.998-   4 1.76   7 1.89
  29  0.994  0.499  0.670-   6 1.82   9 1.84
  30  0.996  0.833  0.331-   8 1.80   2 1.85
  31  0.334  0.167  0.992-  13 1.81  10 1.83
  32  0.339  0.166  0.673-  12 1.81  15 1.86
  33  0.338  0.832  0.333-  17 1.82  11 1.84
  34  0.664  0.166  0.007-  19 1.80  22 1.84
  35  0.670  0.166  0.329-  20 1.76  23 1.89
  36  0.667  0.832  0.665-  27 1.76  21 1.87
  37  0.167  0.004  0.338-   2 1.82  11 1.83
  38  0.167  0.997  0.666-  12 1.83   3 1.83
  39  0.166  0.333  0.673-   6 1.80  15 1.82
  40  0.168  0.669  0.004-  16 1.76   7 1.89
  41  0.165  0.663  0.328-   8 1.80  17 1.85
  42  0.168  0.670  0.667-  18 1.81   9 1.84
  43  0.500  0.341  0.001-  13 1.81  22 1.84
  44  0.501  0.336  0.332-  23 1.82  14 1.83
  45  0.834  0.999  0.003-   1 1.77  19 1.89
  46  0.992  0.007  0.500-   3 1.79   2 1.86
  47  0.001  0.328  0.498-   5 1.76   6 1.90
  48  0.996  0.674  0.835-   7 1.79   9 1.87
  49  0.333  0.002  0.165-  10 1.79  11 1.87
  50  0.332  0.339  0.500-  14 1.81  15 1.85
  51  0.338  0.660  0.500-  18 1.80  17 1.85
  52  0.664  0.002  0.833-  21 1.78  19 1.87
  53  0.674  0.348  0.167-  23 1.81  22 1.82
  54  0.666  0.662  0.167-  25 1.82  26 1.83
  55  0.004  0.167  0.998-   1 1.93   4 2.08
  56  0.991  0.168  0.324-   5 1.93   2 2.07
  57  0.994  0.167  0.676-   3 1.96   6 2.06
  58  0.995  0.498  0.330-   5 1.93   8 2.09
  59  1.000  0.834  0.010-   1 1.94   7 2.02
  60  0.989  0.833  0.662-   3 1.95   9 2.06
  61  0.337  0.167  0.335-  14 1.94  11 2.07
  62  0.329  0.500  0.002-  16 1.93  13 2.07
  63  0.333  0.500  0.322-  14 1.94  17 2.06
  64  0.341  0.500  0.675-  18 1.96  15 2.05
  65  0.339  0.831  0.999-  16 1.92  10 2.07
  66  0.345  0.833  0.666-  18 1.95  12 2.08
  67  0.663  0.170  0.662-  24 1.91  21 2.06
  68  0.677  0.503  0.988-  25 1.92  22 2.08
  69  0.672  0.502  0.345-  26 1.92  23 2.04
  70  0.671  0.499  0.668-  24 1.90  27 2.10
  71  0.662  0.830  0.998-  25 1.90  19 2.11
  72  0.665  0.831  0.339-  26 1.91  20 2.12
  73  0.164  0.995  0.994-  10 1.96   1 2.07
  74  0.165  0.335  0.997-   4 1.93  13 2.09
  75  0.165  0.332  0.327-   5 1.94  14 2.09
  76  0.501  0.992  0.001-  10 1.97  19 2.00
  77  0.503  0.000  0.338-  20 1.92  11 2.10
  78  0.502  0.001  0.661-  21 1.92  12 2.08
  79  0.506  0.338  0.668-  24 1.88  15 2.14
  80  0.502  0.660  0.995-  25 1.91  16 2.12
  81  0.504  0.660  0.333-  26 1.90  17 2.11
  82  0.504  0.660  0.673-  27 1.91  18 2.11
  83  0.831  0.996  0.323-  20 1.92   2 2.10
  84  0.832  0.006  0.671-  21 1.93   3 2.08
  85  0.834  0.329  0.994-   4 1.94  22 2.06
  86  0.833  0.337  0.338-   5 1.94  23 2.05
  87  0.829  0.328  0.668-  24 1.88   6 2.13
  88  0.830  0.674  0.001-  25 1.92   7 2.06
  89  0.830  0.665  0.338-  26 1.90   8 2.12
  90  0.830  0.665  0.662-  27 1.90   9 2.10
  91  0.005  0.006  0.165-   1 1.92   2 2.06
  92  0.997  0.994  0.834-   1 1.93   3 2.09
  93  0.996  0.331  0.166-   4 1.92   5 2.09
  94  0.994  0.326  0.835-   4 1.93   6 2.03
  95  0.988  0.663  0.165-   8 1.96   7 2.06
  96  0.994  0.664  0.499-   8 1.96   9 2.04
  97  0.341  0.001  0.501-  12 1.95  11 2.04
  98  0.339  0.989  0.834-  12 1.95  10 2.06
  99  0.326  0.331  0.166-  13 1.94  14 2.07
 100  0.337  0.343  0.833-  13 1.94  15 2.04
 101  0.346  0.666  0.164-  16 1.92  17 2.08
 102  0.339  0.667  0.835-  16 1.93  18 2.10
 103  0.660  0.986  0.168-  20 1.95  19 2.05
 104  0.673  0.002  0.500-  20 1.94  21 2.08
 105  0.669  0.336  0.503-  24 1.89  23 2.12
 106  0.669  0.332  0.830-  24 1.89  22 2.11
 107  0.662  0.663  0.500-  27 1.94  26 2.04
 108  0.671  0.666  0.834-  27 1.94  25 2.04
 

IMPORTANT INFORMATION: All symmetrisations will be switched off!
NOSYMM: (Re-)initialisation of all symmetry stuff for point group C_1.


----------------------------------------------------------------------------------------

                                     Primitive cell                                     

  volume of cell :    1559.8754

  direct lattice vectors                    reciprocal lattice vectors
    11.618799081 -0.006444500 -0.002734697     0.086067446  0.000047659  0.000020144
    -0.006416911 11.588486525 -0.000557530     0.000047864  0.086292572  0.000004293
    -0.002711237 -0.000574829 11.585162035     0.000020319  0.000004164  0.086317313

  length of vectors
    11.618801190 11.588488315 11.585162367     0.086067462  0.086292586  0.086317315

  position of ions in fractional coordinates (direct lattice)
     0.986632291  0.001095229  0.999936470
     0.011042726  0.991351859  0.342109046
     0.009456034  0.000362186  0.653992178
     0.999649836  0.346528552  0.000654940
     0.999470129  0.332590220  0.346793136
     0.011879629  0.342754793  0.661565661
     0.006652505  0.661325998  0.988561369
     0.011332168  0.678038375  0.331665360
     0.010037704  0.656817805  0.674873502
     0.331939168  0.009327958  0.010688797
     0.323101740  0.989537308  0.325573113
     0.323543955  0.011081916  0.667620620
     0.345210656  0.322510887  0.999783279
     0.344163872  0.334042530  0.344200697
     0.322206880  0.325112037  0.658850688
     0.319936623  0.666204768  0.999942691
     0.323372091  0.675899143  0.341928509
     0.323135644  0.666393513  0.654764781
     0.671747728  0.011930387  0.993696638
     0.667409617  0.014017999  0.333623922
     0.666407318  0.993007134  0.679384305
     0.657350966  0.325314966  0.011902425
     0.657253036  0.328407147  0.320671287
     0.667426281  0.334809070  0.666522021
     0.665954909  0.666085330  0.009930171
     0.666622052  0.666596709  0.324297091
     0.666808524  0.680426794  0.666729618
     0.996577217  0.498624996  0.998435214
     0.994475612  0.499002809  0.669734505
     0.996416786  0.832776920  0.331131534
     0.334417477  0.166556264  0.992233425
     0.338987412  0.166426130  0.672506762
     0.338115040  0.831975814  0.333299534
     0.663501444  0.166326117  0.006822097
     0.669921760  0.165709899  0.329439789
     0.666569737  0.832153685  0.664773337
     0.166772452  0.003921102  0.337857970
     0.166654183  0.997318932  0.665789651
     0.166400866  0.333145600  0.672545449
     0.168265238  0.669253130  0.004004728
     0.165339308  0.662964276  0.327915063
     0.167768175  0.669564119  0.666953174
     0.500339015  0.340978024  0.001374600
     0.501353132  0.336213330  0.332121362
     0.834001129  0.998960992  0.003496154
     0.991919883  0.007476028  0.500375424
     0.001253747  0.327899389  0.498408624
     0.995613856  0.673804564  0.834848506
     0.332843696  0.002032207  0.164623725
     0.332275731  0.338559883  0.499634731
     0.338402109  0.659904936  0.500461270
     0.664146865  0.001884661  0.832591640
     0.674366091  0.347580593  0.166557448
     0.666125713  0.662375624  0.166780802
     0.004084802  0.167137522  0.998483537
     0.990964973  0.167834787  0.323809319
     0.993503289  0.166867550  0.676411177
     0.995027931  0.498483267  0.330349755
     0.999990513  0.834437370  0.010031015
     0.988970962  0.833085581  0.661656346
     0.337319320  0.166966397  0.334741813
     0.329127596  0.500326021  0.001770218
     0.333194021  0.499930473  0.321835720
     0.340804348  0.499860617  0.675190185
     0.338776097  0.831193859  0.999079875
     0.344967488  0.833228635  0.666200188
     0.662739737  0.169984013  0.661752049
     0.676771529  0.502511375  0.988002336
     0.671524839  0.502199564  0.345083852
     0.671097664  0.498904083  0.668217802
     0.662046101  0.829859048  0.998094170
     0.665216580  0.830766031  0.339407576
     0.164294680  0.994893856  0.993693376
     0.165438384  0.334796116  0.997338273
     0.164867814  0.331934934  0.326690841
     0.500654732  0.992096019  0.000652095
     0.503134055  0.000497282  0.337858475
     0.502310980  0.000742659  0.660957877
     0.505697936  0.338421257  0.668409230
     0.502468102  0.659620742  0.995048608
     0.503713015  0.659672915  0.332801608
     0.503922515  0.660149009  0.672999487
     0.831041122  0.996333932  0.323469647
     0.831537966  0.005651338  0.670848317
     0.833862567  0.329096781  0.994331219
     0.832589478  0.337166522  0.338039025
     0.829291289  0.328198373  0.667798676
     0.830396226  0.674324560  0.000667110
     0.829636470  0.664687395  0.337543573
     0.829730672  0.664748021  0.662185360
     0.004627678  0.005985939  0.164907371
     0.997106501  0.994347272  0.834121253
     0.995744119  0.331161322  0.166041610
     0.994164140  0.326374646  0.835118217
     0.987732001  0.663126805  0.165077837
     0.994266976  0.664088092  0.499349441
     0.340742722  0.001407986  0.500608585
     0.338827879  0.989443270  0.833979283
     0.326125775  0.330644290  0.166310401
     0.336750169  0.342561655  0.833431947
     0.346338011  0.665840998  0.163953812
     0.339309690  0.667202148  0.834892189
     0.660213934  0.986359257  0.168002632
     0.673382020  0.001532749  0.500370609
     0.669392398  0.336087752  0.503424584
     0.669299819  0.332391221  0.829950265
     0.662132984  0.663457004  0.500110778
     0.670559634  0.666419050  0.833920624

  ion indices of the primitive-cell ions
   primitive index   ion index
                 1           1
                 2           2
                 3           3
                 4           4
                 5           5
                 6           6
                 7           7
                 8           8
                 9           9
                10          10
                11          11
                12          12
                13          13
                14          14
                15          15
                16          16
                17          17
                18          18
                19          19
                20          20
                21          21
                22          22
                23          23
                24          24
                25          25
                26          26
                27          27
                28          28
                29          29
                30          30
                31          31
                32          32
                33          33
                34          34
                35          35
                36          36
                37          37
                38          38
                39          39
                40          40
                41          41
                42          42
                43          43
                44          44
                45          45
                46          46
                47          47
                48          48
                49          49
                50          50
                51          51
                52          52
                53          53
                54          54
                55          55
                56          56
                57          57
                58          58
                59          59
                60          60
                61          61
                62          62
                63          63
                64          64
                65          65
                66          66
                67          67
                68          68
                69          69
                70          70
                71          71
                72          72
                73          73
                74          74
                75          75
                76          76
                77          77
                78          78
                79          79
                80          80
                81          81
                82          82
                83          83
                84          84
                85          85
                86          86
                87          87
                88          88
                89          89
                90          90
                91          91
                92          92
                93          93
                94          94
                95          95
                96          96
                97          97
                98          98
                99          99
               100         100
               101         101
               102         102
               103         103
               104         104
               105         105
               106         106
               107         107
               108         108

----------------------------------------------------------------------------------------

 
 
 KPOINTS: Title                                   

Automatic generation of k-mesh.
 Grid dimensions read from file:
 generate k-points for:    3    3    3

 Generating k-lattice:

  Cartesian coordinates                     Fractional coordinates (reciprocal lattice)
     0.028689149  0.000015886  0.000006715     0.333333333 -0.000000000 -0.000000000
     0.000015955  0.028764191  0.000001431     0.000000000  0.333333333 -0.000000000
     0.000006773  0.000001388  0.028772438    -0.000000000 -0.000000000  0.333333333

  Length of vectors
     0.028689154  0.028764195  0.028772438

  Shift w.r.t. Gamma in fractional coordinates (k-lattice)
     0.000000000  0.000000000  0.000000000

 
 Subroutine IBZKPT returns following result:
 ===========================================
 
 Found     14 irreducible k-points:
 
 Following reciprocal coordinates:
            Coordinates               Weight
  0.000000  0.000000  0.000000      1.000000
  0.333333 -0.000000  0.000000      2.000000
 -0.000000  0.333333  0.000000      2.000000
  0.333333  0.333333 -0.000000      2.000000
 -0.333333  0.333333 -0.000000      2.000000
 -0.000000  0.000000  0.333333      2.000000
  0.333333 -0.000000  0.333333      2.000000
 -0.333333  0.000000  0.333333      2.000000
 -0.000000  0.333333  0.333333      2.000000
  0.333333  0.333333  0.333333      2.000000
 -0.333333  0.333333  0.333333      2.000000
  0.000000 -0.333333  0.333333      2.000000
  0.333333 -0.333333  0.333333      2.000000
 -0.333333 -0.333333  0.333333      2.000000
 
 Following cartesian coordinates:
            Coordinates               Weight
  0.000000  0.000000  0.000000      1.000000
  0.028689  0.000016  0.000007      2.000000
  0.000016  0.028764  0.000001      2.000000
  0.028705  0.028780  0.000008      2.000000
 -0.028673  0.028748 -0.000005      2.000000
  0.000007  0.000001  0.028772      2.000000
  0.028696  0.000017  0.028779      2.000000
 -0.028682 -0.000014  0.028766      2.000000
  0.000023  0.028766  0.028774      2.000000
  0.028712  0.028781  0.028781      2.000000
 -0.028666  0.028750  0.028767      2.000000
 -0.000009 -0.028763  0.028771      2.000000
  0.028680 -0.028747  0.028778      2.000000
 -0.028698 -0.028779  0.028764      2.000000
 


--------------------------------------------------------------------------------------------------------




 Dimension of arrays:
   k-points           NKPTS =     14   k-points in BZ     NKDIM =     14   number of bands    NBANDS=    540
   number of dos      NEDOS =   3001   number of ions     NIONS =    108
   non local maximal  LDIM  =      6   non local SUM 2l+1 LMDIM =     18
   total plane-waves  NPLWV = ******
   max r-space proj   IRMAX =   8895   max aug-charges    IRDMAX= 199291
   dimension x,y,z NGX =   100 NGY =  100 NGZ =  100
   dimension x,y,z NGXF=   200 NGYF=  200 NGZF=  200
   support grid    NGXF=   400 NGYF=  400 NGZF=  400
   ions per type =              27  27  54
   NGX,Y,Z   is equivalent  to a cutoff of  14.31, 14.35, 14.35 a.u.
   NGXF,Y,Z  is equivalent  to a cutoff of  28.62, 28.69, 28.70 a.u.

 SYSTEM =  LTO                                     
 POSCAR =  Ti27 O27 F54                            

 Startparameter for this run:
   NWRITE =      2    write-flag & timer
   PREC   = accura    normal or accurate (medium, high low for compatibility)
   ISTART =      1    job   : 0-new  1-cont  2-samecut
   ICHARG =      0    charge: 1-file 2-atom 10-const
   ISPIN  =      2    spin polarized calculation?
   LNONCOLLINEAR =      F non collinear calculations
   LSORBIT =      F    spin-orbit coupling
   INIWAV =      1    electr: 0-lowe 1-rand  2-diag
   LASPH  =      T    aspherical Exc in radial PAW
 Electronic Relaxation 1
   ENCUT  =  700.0 eV  51.45 Ry    7.17 a.u.  25.06 25.00 24.99*2*pi/ulx,y,z
   ENINI  =  700.0     initial cutoff
   ENAUG  =  613.6 eV  augmentation charge cutoff
   NELM   =     60;   NELMIN=  2; NELMDL=  0     # of ELM steps 
   EDIFF  = 0.1E-05   stopping-criterion for ELM
   LREAL  =      T    real-space projection
   NLSPLINE    = F    spline interpolate recip. space projectors
   LCOMPAT=      F    compatible to vasp.4.4
   GGA_COMPAT  = T    GGA compatible to vasp.4.4-vasp.4.6
   LMAXPAW     = -100 max onsite density
   LMAXMIX     =    4 max onsite mixed and CHGCAR
   VOSKOWN=      0    Vosko Wilk Nusair interpolation
   ROPT   =   -0.00010  -0.00010  -0.00010
 Ionic relaxation
   EDIFFG = -.1E-01   stopping-criterion for IOM
   NSW    =    100    number of steps for IOM
   NBLOCK =      1;   KBLOCK =    100    inner block; outer block 
   IBRION =      1    ionic relax: 0-MD 1-quasi-New 2-CG
   NFREE  =      0    steps in history (QN), initial steepest desc. (CG)
   ISIF   =      3    stress and relaxation
   IWAVPR =     11    prediction:  0-non 1-charg 2-wave 3-comb
   ISYM   =      0    0-nonsym 1-usesym 2-fastsym
   LCORR  =      T    Harris-Foulkes like correction to forces

   POTIM  = 0.5000    time-step for ionic-motion
   TEIN   =    0.0    initial temperature
   TEBEG  =    0.0;   TEEND  =   0.0 temperature during run
   SMASS  =  -3.00    Nose mass-parameter (am)
   estimated Nose-frequenzy (Omega)   =  0.10E-29 period in steps = 0.13E+47 mass=  -0.309E-26a.u.
   SCALEE = 1.0000    scale energy and forces
   NPACO  =    256;   APACO  = 10.0  distance and # of slots for P.C.
   PSTRESS=    0.0 pullay stress

  Mass of Ions in am
   POMASS =  47.88 16.00 19.00
  Ionic Valenz
   ZVAL   =  10.00  6.00  7.00
  Atomic Wigner-Seitz radii
   RWIGS  =  -1.00 -1.00 -1.00
  virtual crystal weights 
   VCA    =   1.00  1.00  1.00
   NELECT =     810.0000    total number of electrons
   NUPDOWN=      -1.0000    fix difference up-down

 DOS related values:
   EMIN   =  10.00;   EMAX   =-10.00  energy-range for DOS
   EFERMI =   0.00
   ISMEAR =     0;   SIGMA  =   0.01  broadening in eV -4-tet -1-fermi 0-gaus

 Electronic relaxation 2 (details)
   IALGO  =     38    algorithm
   LDIAG  =      T    sub-space diagonalisation (order eigenvalues)
   LSUBROT=      F    optimize rotation matrix (better conditioning)
   TURBO    =      0    0=normal 1=particle mesh
   IRESTART =      0    0=no restart 2=restart with 2 vectors
   NREBOOT  =      0    no. of reboots
   NMIN     =      0    reboot dimension
   EREF     =   0.00    reference energy to select bands
   IMIX   =      4    mixing-type and parameters
     AMIX     =   0.40;   BMIX     =  1.00
     AMIX_MAG =   1.60;   BMIX_MAG =  1.00
     AMIN     =   0.10
     WC   =   100.;   INIMIX=   1;  MIXPRE=   1;  MAXMIX= -45

 Intra band minimization:
   WEIMIN = 0.0010     energy-eigenvalue tresh-hold
   EBREAK =  0.46E-09  absolut break condition
   DEPER  =   0.30     relativ break condition  

   TIME   =   0.40     timestep for ELM

  volume/ion in A,a.u.               =      14.44        97.47
  Fermi-wavevector in a.u.,A,eV,Ry     =   1.315850  2.486597 23.557976  1.731462
  Thomas-Fermi vector in A             =   2.446004
 
 Write flags
   LWAVE        =      T    write WAVECAR
   LDOWNSAMPLE  =      F    k-point downsampling of WAVECAR
   LCHARG       =      T    write CHGCAR
   LVTOT        =      F    write LOCPOT, total local potential
   LVHAR        =      F    write LOCPOT, Hartree potential only
   LELF         =      F    write electronic localiz. function (ELF)
   LORBIT       =     11    0 simple, 1 ext, 2 COOP (PROOUT), +10 PAW based schemes


 Dipole corrections
   LMONO  =      F    monopole corrections only (constant potential shift)
   LDIPOL =      F    correct potential (dipole corrections)
   IDIPOL =      0    1-x, 2-y, 3-z, 4-all directions 
   EPSILON=  1.0000000 bulk dielectric constant

 LDA+U is selected, type is set to LDAUTYPE =  2
   angular momentum for each species LDAUL =     2   -1   -1
   U (eV)           for each species LDAUU =   4.2  0.0  0.0
   J (eV)           for each species LDAUJ =   0.0  0.0  0.0
 Exchange correlation treatment:
   GGA     =    PS    GGA type
   LEXCH   =    14    internal setting for exchange type
   LIBXC   =     F    Libxc                    
   VOSKOWN =     0    Vosko Wilk Nusair interpolation
   LHFCALC =     F    Hartree Fock is set to
   LHFONE  =     F    Hartree Fock one center treatment
   AEXX    =    0.0000 exact exchange contribution

 Linear response parameters
   LEPSILON=     F    determine dielectric tensor
   LRPA    =     F    only Hartree local field effects (RPA)
   LNABLA  =     F    use nabla operator in PAW spheres
   LVEL    =     F    velocity operator in full k-point grid
   CSHIFT  =0.1000    complex shift for real part using Kramers Kronig
   OMEGAMAX=  -1.0    maximum frequency
   DEG_THRESHOLD= 0.2000000E-02 threshold for treating states as degnerate
   RTIME   =   -0.100 relaxation time in fs
  (WPLASMAI=    0.000 imaginary part of plasma frequency in eV, 0.658/RTIME)
   DFIELD  = 0.0000000 0.0000000 0.0000000 field for delta impulse in time
 
  Optional k-point grid parameters
   LKPOINTS_OPT  =     F    use optional k-point grid
   KPOINTS_OPT_MODE=     1    mode for optional k-point grid
 
 Orbital magnetization related:
   ORBITALMAG=     F  switch on orbital magnetization
   LCHIMAG   =     F  perturbation theory with respect to B field
   DQ        =  0.001000  dq finite difference perturbation B field
   LLRAUG    =     F  two centre corrections for induced B field



--------------------------------------------------------------------------------------------------------


 quasi-Newton-method for relaxation of ions
 charge density and potential will be updated during run
 spin polarized calculation
 Variant of blocked Davidson
 Davidson routine will perform the subspace rotation
 perform sub-space diagonalisation
    after iterative eigenvector-optimisation
 modified Broyden-mixing scheme, WC =      100.0
 initial mixing is a Kerker type mixing with AMIX =  0.4000 and BMIX =      1.0000
 Hartree-type preconditioning will be used
 using additional bands          135
 real space projection scheme for non local part
 use partial core corrections
 calculate Harris-corrections to forces 
   (improved forces if not selfconsistent)
 use gradient corrections 
 use of overlap-Matrix (Vanderbilt PP)
 Gauss-broadening in eV      SIGMA  =   0.01


--------------------------------------------------------------------------------------------------------


  energy-cutoff  :      700.00
  volume of cell :     1559.88
      direct lattice vectors                 reciprocal lattice vectors
    11.618799081 -0.006444500 -0.002734697     0.086067446  0.000047659  0.000020144
    -0.006416911 11.588486525 -0.000557530     0.000047864  0.086292572  0.000004293
    -0.002711237 -0.000574829 11.585162035     0.000020319  0.000004164  0.086317313

  length of vectors
    11.618801190 11.588488315 11.585162367     0.086067462  0.086292586  0.086317315


 
 old parameters found on file WAVECAR:
  energy-cutoff  :      700.00
  volume of cell :     1559.88
      direct lattice vectors                 reciprocal lattice vectors
    11.618799081 -0.006444500 -0.002734697     0.086067446  0.000047659  0.000020144
    -0.006416911 11.588486525 -0.000557530     0.000047864  0.086292572  0.000004293
    -0.002711237 -0.000574829 11.585162035     0.000020319  0.000004164  0.086317313

  length of vectors

 
 k-points in units of 2pi/SCALE and weight: Title                                   
   0.00000000  0.00000000  0.00000000       0.037
   0.02868915  0.00001589  0.00000671       0.074
   0.00001595  0.02876419  0.00000143       0.074
   0.02870510  0.02878008  0.00000815       0.074
  -0.02867319  0.02874830 -0.00000528       0.074
   0.00000677  0.00000139  0.02877244       0.074
   0.02869592  0.00001727  0.02877915       0.074
  -0.02868238 -0.00001450  0.02876572       0.074
   0.00002273  0.02876558  0.02877387       0.074
   0.02871188  0.02878147  0.02878058       0.074
  -0.02866642  0.02874969  0.02876715       0.074
  -0.00000918 -0.02876280  0.02877101       0.074
   0.02867997 -0.02874692  0.02877772       0.074
  -0.02869833 -0.02877869  0.02876429       0.074
 
 k-points in reciprocal lattice and weights: Title                                   
   0.00000000  0.00000000  0.00000000       0.037
   0.33333333 -0.00000000  0.00000000       0.074
  -0.00000000  0.33333333  0.00000000       0.074
   0.33333333  0.33333333 -0.00000000       0.074
  -0.33333333  0.33333333 -0.00000000       0.074
  -0.00000000  0.00000000  0.33333333       0.074
   0.33333333 -0.00000000  0.33333333       0.074
  -0.33333333  0.00000000  0.33333333       0.074
  -0.00000000  0.33333333  0.33333333       0.074
   0.33333333  0.33333333  0.33333333       0.074
  -0.33333333  0.33333333  0.33333333       0.074
   0.00000000 -0.33333333  0.33333333       0.074
   0.33333333 -0.33333333  0.33333333       0.074
  -0.33333333 -0.33333333  0.33333333       0.074
 
 position of ions in fractional coordinates (direct lattice) 
   0.98663229  0.00109523  0.99993647
   0.01104273  0.99135186  0.34210905
   0.00945603  0.00036219  0.65399218
   0.99964984  0.34652855  0.00065494
   0.99947013  0.33259022  0.34679314
   0.01187963  0.34275479  0.66156566
   0.00665251  0.66132600  0.98856137
   0.01133217  0.67803837  0.33166536
   0.01003770  0.65681780  0.67487350
   0.33193917  0.00932796  0.01068880
   0.32310174  0.98953731  0.32557311
   0.32354396  0.01108192  0.66762062
   0.34521066  0.32251089  0.99978328
   0.34416387  0.33404253  0.34420070
   0.32220688  0.32511204  0.65885069
   0.31993662  0.66620477  0.99994269
   0.32337209  0.67589914  0.34192851
   0.32313564  0.66639351  0.65476478
   0.67174773  0.01193039  0.99369664
   0.66740962  0.01401800  0.33362392
   0.66640732  0.99300713  0.67938431
   0.65735097  0.32531497  0.01190243
   0.65725304  0.32840715  0.32067129
   0.66742628  0.33480907  0.66652202
   0.66595491  0.66608533  0.00993017
   0.66662205  0.66659671  0.32429709
   0.66680852  0.68042679  0.66672962
   0.99657722  0.49862500  0.99843521
   0.99447561  0.49900281  0.66973450
   0.99641679  0.83277692  0.33113153
   0.33441748  0.16655626  0.99223343
   0.33898741  0.16642613  0.67250676
   0.33811504  0.83197581  0.33329953
   0.66350144  0.16632612  0.00682210
   0.66992176  0.16570990  0.32943979
   0.66656974  0.83215369  0.66477334
   0.16677245  0.00392110  0.33785797
   0.16665418  0.99731893  0.66578965
   0.16640087  0.33314560  0.67254545
   0.16826524  0.66925313  0.00400473
   0.16533931  0.66296428  0.32791506
   0.16776817  0.66956412  0.66695317
   0.50033902  0.34097802  0.00137460
   0.50135313  0.33621333  0.33212136
   0.83400113  0.99896099  0.00349615
   0.99191988  0.00747603  0.50037542
   0.00125375  0.32789939  0.49840862
   0.99561386  0.67380456  0.83484851
   0.33284370  0.00203221  0.16462373
   0.33227573  0.33855988  0.49963473
   0.33840211  0.65990494  0.50046127
   0.66414687  0.00188466  0.83259164
   0.67436609  0.34758059  0.16655745
   0.66612571  0.66237562  0.16678080
   0.00408480  0.16713752  0.99848354
   0.99096497  0.16783479  0.32380932
   0.99350329  0.16686755  0.67641118
   0.99502793  0.49848327  0.33034976
   0.99999051  0.83443737  0.01003101
   0.98897096  0.83308558  0.66165635
   0.33731932  0.16696640  0.33474181
   0.32912760  0.50032602  0.00177022
   0.33319402  0.49993047  0.32183572
   0.34080435  0.49986062  0.67519019
   0.33877610  0.83119386  0.99907987
   0.34496749  0.83322863  0.66620019
   0.66273974  0.16998401  0.66175205
   0.67677153  0.50251137  0.98800234
   0.67152484  0.50219956  0.34508385
   0.67109766  0.49890408  0.66821780
   0.66204610  0.82985905  0.99809417
   0.66521658  0.83076603  0.33940758
   0.16429468  0.99489386  0.99369338
   0.16543838  0.33479612  0.99733827
   0.16486781  0.33193493  0.32669084
   0.50065473  0.99209602  0.00065209
   0.50313405  0.00049728  0.33785848
   0.50231098  0.00074266  0.66095788
   0.50569794  0.33842126  0.66840923
   0.50246810  0.65962074  0.99504861
   0.50371302  0.65967292  0.33280161
   0.50392251  0.66014901  0.67299949
   0.83104112  0.99633393  0.32346965
   0.83153797  0.00565134  0.67084832
   0.83386257  0.32909678  0.99433122
   0.83258948  0.33716652  0.33803902
   0.82929129  0.32819837  0.66779868
   0.83039623  0.67432456  0.00066711
   0.82963647  0.66468739  0.33754357
   0.82973067  0.66474802  0.66218536
   0.00462768  0.00598594  0.16490737
   0.99710650  0.99434727  0.83412125
   0.99574412  0.33116132  0.16604161
   0.99416414  0.32637465  0.83511822
   0.98773200  0.66312680  0.16507784
   0.99426698  0.66408809  0.49934944
   0.34074272  0.00140799  0.50060858
   0.33882788  0.98944327  0.83397928
   0.32612578  0.33064429  0.16631040
   0.33675017  0.34256166  0.83343195
   0.34633801  0.66584100  0.16395381
   0.33930969  0.66720215  0.83489219
   0.66021393  0.98635926  0.16800263
   0.67338202  0.00153275  0.50037061
   0.66939240  0.33608775  0.50342458
   0.66929982  0.33239122  0.82995027
   0.66213298  0.66345700  0.50011078
   0.67055963  0.66641905  0.83392062
 
 position of ions in cartesian coordinates  (Angst):
  11.46076426  0.00575890 11.58172727
   0.12101426 11.48799984  3.96280582
   0.10809231  0.00376032  7.57657929
  11.61250518  4.00929884  0.00466065
  11.60956817  3.84757685  4.01473599
   0.13403394  3.97155245  7.66412180
   0.07037023  7.66315629 11.45225674
   0.12641605  7.85717489  3.84198792
   0.11058158  7.61107166  7.81812523
   3.85664566  0.10595159  0.12291849
   3.74682172 11.46497038  3.77038198
   3.75731102  0.12595379  7.73360209
   4.00615308  3.73461366 11.58152743
   3.99569415  3.86863154  3.98649343
   3.73978449  3.76510127  7.63182958
   3.71029329  7.71766835 11.58325174
   3.75193112  7.83036759  3.96003602
   3.74839671  7.72003342  7.58430087
   7.80213119  0.13335485 11.51029288
   7.75350376  0.15795449  3.86325422
   7.73463872 11.50276459  7.86840121
   7.63550901  3.76566496  0.13591250
   7.63351419  3.80132180  3.71304834
   7.75073632  3.87524603  7.71975374
   7.73329515  7.71462341  0.11285009
   7.74019095  7.72036452  3.75483969
   7.74134036  7.88043623  7.72196778
  11.57312382  5.77131267 11.56403040
  11.54959446  5.77589345  7.75598496
  11.57092481  9.64401237  3.83302328
   3.88177051  1.92740950 11.49417762
   3.93573536  1.92605579  7.79007999
   3.92224835  9.63896993  3.85994062
   7.70800417  1.92318811  0.07712789
   7.78172979  1.91582025  3.81468892
   7.73759764  9.63872393  7.69922001
   1.93675444  0.04417066  3.91368107
   1.92811665 11.55596029  7.71226920
   1.92941703  3.85919433  7.79090721
   1.95073460  7.75454419  0.04556213
   1.91590096  7.68149855  3.79812736
   1.94315991  7.75777021  7.72592849
   5.81114674  3.94819401  0.01436658
   5.82206340  3.89278176  3.84612130
   9.68367183 11.57106926  0.03766582
  11.52351322  0.07995579  5.79421360
   0.01111163  3.79956307  5.77395843
  11.56125013  7.80147899  9.66875685
   3.86678465  0.02131056  1.90628117
   3.85711782  3.92096809  5.78725189
   3.92623469  7.64483094  5.79663156
   7.71431954  0.01708168  9.64389177
   7.83264215  4.02349132  1.92755704
   7.73487824  7.67154228  1.92999167
   0.04368086  1.93627064 11.56748921
  11.51186801  1.93837876  3.74857987
  11.54041041  1.92695090  7.83352313
  11.55693524  5.77006426  3.82415642
  11.61330714  9.66341601  0.11301104
  11.48351516  9.64744727  7.66222698
   3.91726644  1.93252157  3.87702259
   3.82085206  5.79589927  0.01932925
   3.86723381  5.79110528  3.72732905
   3.95469909  5.79004360  7.82097701
   3.92812897  9.62952129 11.57311237
   4.00095495  9.65325271  7.71662919
   7.69735491  1.96520603  7.66459755
   7.85736914  5.81841691 11.44403622
   7.79815401  5.81520688  3.99573594
   7.79233581  5.77683425  7.73929811
   7.68414943  9.61197011 11.56080952
   7.72276662  9.62283887  3.92980942
   1.89982859 11.52768404 11.51109480
   1.91734296  3.87814081 11.55368642
   1.91255028  3.84537323  3.78413040
   5.81063878 11.49366451  0.00563236
   5.84489429  0.00232609  3.91276898
   5.83445357  0.00498922  7.65593002
   5.87161888  3.91814698  7.74205763
   5.83114538  7.64019594 11.52605751
   5.84740495  7.64117321  3.85381526
   5.84891367  7.64649350  7.79506198
   9.64842944 11.54046076  3.74462014
   9.65961747  0.05974598  7.76960930
   9.68367397  3.80778822 11.51702445
   9.67060979  3.90168976  3.91377202
   9.63145229  3.79759418  7.73410502
   9.64387802  7.80904920  0.00508174
   9.63419906  7.69718030  3.90785760
   9.63441299  7.69769564  7.66888501
   0.05328254  0.06924336  1.91046262
  11.57653796 11.51607463  9.66014871
  11.56677564  3.83114600  1.92071127
  11.54663487  3.77530124  9.67207916
  11.47155688  7.67817571  1.90938263
  11.54657298  7.68908131  5.78195491
   3.95765492  0.01383275  5.79869896
   3.92816276 11.46348703  9.66030690
   3.78661724  3.82946958  1.92565675
   3.90817474  3.96712186  9.65433226
   4.01931460  7.71376321  1.89811312
   3.93582615  7.72919651  9.67106140
   7.66410818 11.42605964  1.94398231
   7.82252394  0.01313501  5.79503223
   7.77401423  3.89014510  5.83023741
   7.77207701  3.84712081  9.61309265
   7.68757684  7.68390796  5.79168377
   7.78456035  7.71798740  9.65890023
 


--------------------------------------------------------------------------------------------------------


 k-point   1 :   0.0000 0.0000 0.0000  plane waves:   65445
 k-point   2 :   0.3333-0.0000 0.0000  plane waves:   65550
 k-point   3 :  -0.0000 0.3333 0.0000  plane waves:   65539
 k-point   4 :   0.3333 0.3333-0.0000  plane waves:   65590
 k-point   5 :  -0.3333 0.3333-0.0000  plane waves:   65580
 k-point   6 :  -0.0000 0.0000 0.3333  plane waves:   65542
 k-point   7 :   0.3333-0.0000 0.3333  plane waves:   65579
 k-point   8 :  -0.3333 0.0000 0.3333  plane waves:   65578
 k-point   9 :  -0.0000 0.3333 0.3333  plane waves:   65607
 k-point  10 :   0.3333 0.3333 0.3333  plane waves:   65637
 k-point  11 :  -0.3333 0.3333 0.3333  plane waves:   65631
 k-point  12 :   0.0000-0.3333 0.3333  plane waves:   65607
 k-point  13 :   0.3333-0.3333 0.3333  plane waves:   65626
 k-point  14 :  -0.3333-0.3333 0.3333  plane waves:   65631

 maximum and minimum number of plane-waves per node :      8236     8145

 maximum number of plane-waves:     65637
 maximum index in each direction: 
   IXMAX=   25   IYMAX=   25   IZMAX=   24
   IXMIN=  -25   IYMIN=  -25   IZMIN=  -25


 real space projection operators:
  total allocation   :      53956.98 KBytes
  max/ min on nodes  :       7357.97       6142.20


 parallel 3D FFT for wavefunctions:
    minimum data exchange during FFTs selected (reduces bandwidth)
 parallel 3D FFT for charge:
    minimum data exchange during FFTs selected (reduces bandwidth)


 total amount of memory used by VASP MPI-rank0   298121. kBytes
=======================================================================

   base      :      30000. kBytes
   nonlr-proj:      25238. kBytes
   fftplans  :      18873. kBytes
   grid      :      21088. kBytes
   one-center:        435. kBytes
   wavefun   :     202487. kBytes
 
     INWAV:  cpu time     35.0686: real time     35.1758
 Broyden mixing: mesh for mixing (old mesh)
   NGX = 51   NGY = 49   NGZ = 49
  (NGX  =200   NGY  =200   NGZ  =200)
  gives a total of 122451 points

 charge density for first step will be calculated from the start-wavefunctions


--------------------------------------------------------------------------------------------------------


 Maximum index for non-local projection operator         1368
 Maximum index for augmentation-charges         4053 (set IRDMAX)


--------------------------------------------------------------------------------------------------------


 initial charge from wavefunction
 First call to EWALD:  gamma=   0.153
 Maximum number of real-space cells 3x 3x 3
 Maximum number of reciprocal cells 3x 3x 3

    FEWALD:  cpu time      0.0064: real time      0.0072


--------------------------------------- Iteration      1(   1)  ---------------------------------------


    POTLOK:  cpu time      0.1595: real time      0.1642
    SETDIJ:  cpu time      0.8957: real time      0.9010
     EDDAV:  cpu time    114.4426: real time    114.7973
       DOS:  cpu time      0.0031: real time      0.0038
    CHARGE:  cpu time      4.0086: real time      4.0187
    MIXING:  cpu time      0.0053: real time      0.0055
    --------------------------------------------
      LOOP:  cpu time    119.5148: real time    119.8905

 eigenvalue-minimisations  : 40660
 total energy-change (2. order) :-0.7207692E+03  (-0.9117164E-06)
 number of electron     810.0000011 magnetization       0.0000000
 augmentation part      209.1403369 magnetization       0.0000000

 Broyden mixing:
  rms(total) = 0.76659E-03    rms(broyden)= 0.76281E-03
  rms(prec ) = 0.10782E-02
  weight for this iteration     100.00

 Free energy of the ion-electron system (eV)
  ---------------------------------------------------
  alpha Z        PSCENC =      2557.00597145
  Ewald energy   TEWEN  =    -43226.82477247
  -Hartree energ DENC   =    -27781.09931671
  -exchange      EXHF   =         0.00000000
  -V(xc)+E(xc)   XCENC  =      3779.42295922
  PAW double counting   =     60879.83374326   -61294.92290274
  entropy T*S    EENTRO =        -0.00000000
  eigenvalues    EBANDS =    -10904.62696089
  atomic energy  EATOM  =     75270.44210491
  Solvation  Ediel_sol  =         0.00000000
  ---------------------------------------------------
  free energy    TOTEN  =      -720.76917398 eV

  energy without entropy =     -720.76917398  energy(sigma->0) =     -720.76917398


--------------------------------------------------------------------------------------------------------




--------------------------------------- Iteration      1(   2)  ---------------------------------------


    POTLOK:  cpu time      0.1675: real time      0.2025
    SETDIJ:  cpu time      0.9018: real time      0.9041
     EDDAV:  cpu time    103.6196: real time    103.8877
       DOS:  cpu time      0.0050: real time      0.0050
    CHARGE:  cpu time      3.9427: real time      3.9529
    MIXING:  cpu time      0.0062: real time      0.0071
    --------------------------------------------
      LOOP:  cpu time    108.6428: real time    108.9592

 eigenvalue-minimisations  : 35880
 total energy-change (2. order) : 0.1175096E-05  (-0.6264673E-06)
 number of electron     810.0000011 magnetization       0.0000000
 augmentation part      209.1405868 magnetization       0.0000000

 Broyden mixing:
  rms(total) = 0.47321E-03    rms(broyden)= 0.46711E-03
  rms(prec ) = 0.64071E-03
  weight for this iteration     100.00

 eigenvalues of (default mixing * dielectric matrix)
  average eigenvalue GAMMA=   0.6616
  0.6616

 Free energy of the ion-electron system (eV)
  ---------------------------------------------------
  alpha Z        PSCENC =      2557.00597145
  Ewald energy   TEWEN  =    -43226.82477247
  -Hartree energ DENC   =    -27781.14233464
  -exchange      EXHF   =         0.00000000
  -V(xc)+E(xc)   XCENC  =      3779.42620529
  PAW double counting   =     60879.87785802   -61294.97140471
  entropy T*S    EENTRO =        -0.00000000
  eigenvalues    EBANDS =    -10904.58280064
  atomic energy  EATOM  =     75270.44210491
  Solvation  Ediel_sol  =         0.00000000
  ---------------------------------------------------
  free energy    TOTEN  =      -720.76917280 eV

  energy without entropy =     -720.76917280  energy(sigma->0) =     -720.76917280


--------------------------------------------------------------------------------------------------------




--------------------------------------- Iteration      1(   3)  ---------------------------------------


    POTLOK:  cpu time      0.2760: real time      0.2881
    SETDIJ:  cpu time      0.9043: real time      0.9066
     EDDAV:  cpu time     70.0007: real time     70.1800
       DOS:  cpu time      0.0038: real time      0.0038
    --------------------------------------------
      LOOP:  cpu time     71.1847: real time     71.3784

 eigenvalue-minimisations  : 20440
 total energy-change (2. order) : 0.5066831E-06  (-0.1032384E-06)
 number of electron     810.0000011 magnetization       0.0000000
 augmentation part      209.1405868 magnetization       0.0000000

 Free energy of the ion-electron system (eV)
  ---------------------------------------------------
  alpha Z        PSCENC =      2557.00597145
  Ewald energy   TEWEN  =    -43226.82477247
  -Hartree energ DENC   =    -27781.15798707
  -exchange      EXHF   =         0.00000000
  -V(xc)+E(xc)   XCENC  =      3779.42695900
  PAW double counting   =     60879.88592230   -61294.97988544
  entropy T*S    EENTRO =        -0.00000000
  eigenvalues    EBANDS =    -10904.56748496
  atomic energy  EATOM  =     75270.44210491
  Solvation  Ediel_sol  =         0.00000000
  ---------------------------------------------------
  free energy    TOTEN  =      -720.76917229 eV

  energy without entropy =     -720.76917229  energy(sigma->0) =     -720.76917229


--------------------------------------------------------------------------------------------------------




 average (electrostatic) potential at core
  the test charge radii are     1.0397  0.7215  0.7167
  (the norm of the test charge is              1.0000)
       1 -59.2346       2 -58.2258       3 -58.5836       4 -59.2280       5 -59.1007
       6 -58.3400       7 -58.6102       8 -58.4777       9 -58.3716      10 -58.5771
      11 -58.2037      12 -58.6055      13 -58.6636      14 -58.6196      15 -58.3164
      16 -59.2106      17 -58.2208      18 -58.5148      19 -58.6407      20 -59.2177
      21 -59.0096      22 -58.4330      23 -58.4878      24 -60.4219      25 -59.8048
      26 -59.7856      27 -59.4626      28 -74.3600      29 -73.8272      30 -73.8556
      31 -74.0298      32 -73.8713      33 -73.7132      34 -74.1332      35 -74.4092
      36 -74.6967      37 -73.7716      38 -73.9775      39 -73.9871      40 -74.4028
      41 -73.9141      42 -73.9527      43 -74.0213      44 -74.0012      45 -74.2921
      46 -73.9095      47 -74.2522      48 -73.9603      49 -73.8611      50 -73.9006
      51 -73.8868      52 -74.2952      53 -74.1079      54 -74.8968      55 -79.0660
      56 -78.9159      57 -78.7127      58 -78.9010      59 -79.1397      60 -78.7099
      61 -78.6591      62 -79.0292      63 -78.6871      64 -78.7061      65 -79.0311
      66 -78.6821      67 -79.7051      68 -79.3295      69 -79.3684      70 -79.6802
      71 -79.2981      72 -79.3245      73 -78.8019      74 -78.9944      75 -78.9084
      76 -78.8752      77 -78.9173      78 -78.9479      79 -79.5072      80 -79.3093
      81 -79.2133      82 -79.1468      83 -78.9250      84 -78.9558      85 -79.0249
      86 -78.9643      87 -79.5115      88 -79.3526      89 -79.2081      90 -79.1408
      91 -78.9791      92 -78.9607      93 -79.0540      94 -79.0849      95 -78.7583
      96 -78.7481      97 -78.6841      98 -78.7039      99 -78.7364     100 -78.7884
     101 -78.9767     102 -78.9623     103 -79.1343     104 -79.1238     105 -79.5647
     106 -79.5744     107 -79.4511     108 -79.4410
 
 
 
 E-fermi :  -0.6433     XC(G=0):  -8.9802     alpha+bet : -7.6453

 Fermi energy:        -0.6433391173

 spin component 1

 k-point     1 :       0.0000    0.0000    0.0000
  band No.  band energies     occupation 
      1     -36.2932      1.00000
      2     -36.2847      1.00000
      3     -36.2777      1.00000
      4     -35.7192      1.00000
      5     -35.7165      1.00000
      6     -35.6998      1.00000
      7     -35.6921      1.00000
      8     -35.6386      1.00000
      9     -35.5822      1.00000
     10     -35.4172      1.00000
     11     -35.4154      1.00000
     12     -35.3274      1.00000
     13     -35.1868      1.00000
     14     -35.1803      1.00000
     15     -35.1790      1.00000
     16     -35.1775      1.00000
     17     -35.1766      1.00000
     18     -35.1690      1.00000
     19     -35.1606      1.00000
     20     -35.1524      1.00000
     21     -35.0668      1.00000
     22     -35.0590      1.00000
     23     -35.0550      1.00000
     24     -35.0547      1.00000
     25     -35.0478      1.00000
     26     -35.0373      1.00000
     27     -34.9892      1.00000
     28     -34.9377      1.00000
     29     -34.9352      1.00000
     30     -34.8747      1.00000
     31     -34.6446      1.00000
     32     -34.5990      1.00000
     33     -34.5902      1.00000
     34     -34.5811      1.00000
     35     -34.5764      1.00000
     36     -34.5691      1.00000
     37     -34.5647      1.00000
     38     -34.5622      1.00000
     39     -34.5455      1.00000
     40     -34.5438      1.00000
     41     -34.5318      1.00000
     42     -34.5279      1.00000
     43     -34.5200      1.00000
     44     -34.5178      1.00000
     45     -34.5046      1.00000
     46     -34.5004      1.00000
     47     -34.4799      1.00000
     48     -34.4780      1.00000
     49     -34.4756      1.00000
     50     -34.4693      1.00000
     51     -34.4693      1.00000
     52     -34.4625      1.00000
     53     -34.4443      1.00000
     54     -34.4412      1.00000
     55     -34.4363      1.00000
     56     -34.4344      1.00000
     57     -34.4041      1.00000
     58     -34.4008      1.00000
     59     -34.4005      1.00000
     60     -34.3868      1.00000
     61     -34.3666      1.00000
     62     -34.3560      1.00000
     63     -34.3426      1.00000
     64     -34.3281      1.00000
     65     -34.3077      1.00000
     66     -34.2933      1.00000
     67     -34.2767      1.00000
     68     -34.2642      1.00000
     69     -34.2607      1.00000
     70     -34.2270      1.00000
     71     -34.2152      1.00000
     72     -34.2081      1.00000
     73     -34.1888      1.00000
     74     -34.1820      1.00000
     75     -34.1643      1.00000
     76     -34.1476      1.00000
     77     -34.1419      1.00000
     78     -34.1409      1.00000
     79     -34.1238      1.00000
     80     -34.0992      1.00000
     81     -34.0783      1.00000
     82     -23.6249      1.00000
     83     -23.3697      1.00000
     84     -23.3404      1.00000
     85     -23.2651      1.00000
     86     -23.2372      1.00000
     87     -23.2038      1.00000
     88     -23.1028      1.00000
     89     -23.0613      1.00000
     90     -23.0407      1.00000
     91     -23.0203      1.00000
     92     -22.9894      1.00000
     93     -22.9630      1.00000
     94     -22.9499      1.00000
     95     -22.9417      1.00000
     96     -22.9236      1.00000
     97     -22.9088      1.00000
     98     -22.8962      1.00000
     99     -22.8384      1.00000
    100     -22.8099      1.00000
    101     -22.8044      1.00000
    102     -22.7843      1.00000
    103     -22.7605      1.00000
    104     -22.7352      1.00000
    105     -22.7201      1.00000
    106     -22.7115      1.00000
    107     -22.6823      1.00000
    108     -22.6666      1.00000
    109     -22.6599      1.00000
    110     -22.6372      1.00000
    111     -22.6284      1.00000
    112     -22.6040      1.00000
    113     -22.5872      1.00000
    114     -22.5737      1.00000
    115     -22.5501      1.00000
    116     -22.5366      1.00000
    117     -22.5131      1.00000
    118     -22.5069      1.00000
    119     -22.4872      1.00000
    120     -22.4748      1.00000
    121     -22.4638      1.00000
    122     -22.4424      1.00000
    123     -22.4203      1.00000
    124     -22.4061      1.00000
    125     -22.3755      1.00000
    126     -22.3709      1.00000
    127     -22.3634      1.00000
    128     -22.3611      1.00000
    129     -22.3504      1.00000
    130     -22.2818      1.00000
    131     -22.2587      1.00000
    132     -22.2163      1.00000
    133     -22.2134      1.00000
    134     -22.1860      1.00000
    135     -22.1609      1.00000
    136     -17.3646      1.00000
    137     -17.1519      1.00000
    138     -16.9194      1.00000
    139     -16.8975      1.00000
    140     -16.8606      1.00000
    141     -16.7498      1.00000
    142     -16.7393      1.00000
    143     -16.6977      1.00000
    144     -16.6735      1.00000
    145     -16.5823      1.00000
    146     -16.5814      1.00000
    147     -16.5562      1.00000
    148     -16.5457      1.00000
    149     -16.5272      1.00000
    150     -16.4924      1.00000
    151     -16.4524      1.00000
    152     -16.4349      1.00000
    153     -16.4250      1.00000
    154     -16.3676      1.00000
    155     -16.3582      1.00000
    156     -16.3313      1.00000
    157     -16.3039      1.00000
    158     -16.2689      1.00000
    159     -16.2456      1.00000
    160     -16.2390      1.00000
    161     -16.1844      1.00000
    162     -16.1165      1.00000
    163      -7.0042      1.00000
    164      -6.8940      1.00000
    165      -6.7834      1.00000
    166      -6.7347      1.00000
    167      -6.6304      1.00000
    168      -6.5933      1.00000
    169      -6.4923      1.00000
    170      -6.4816      1.00000
    171      -6.4193      1.00000
    172      -6.4071      1.00000
    173      -6.3672      1.00000
    174      -6.3275      1.00000
    175      -6.2905      1.00000
    176      -6.2761      1.00000
    177      -6.2686      1.00000
    178      -6.2362      1.00000
    179      -6.1827      1.00000
    180      -6.1770      1.00000
    181      -6.1708      1.00000
    182      -6.1502      1.00000
    183      -6.1034      1.00000
    184      -6.0701      1.00000
    185      -6.0425      1.00000
    186      -6.0318      1.00000
    187      -5.9900      1.00000
    188      -5.9629      1.00000
    189      -5.9355      1.00000
    190      -5.9147      1.00000
    191      -5.8921      1.00000
    192      -5.8605      1.00000
    193      -5.8232      1.00000
    194      -5.8133      1.00000
    195      -5.7873      1.00000
    196      -5.7594      1.00000
    197      -5.7477      1.00000
    198      -5.7326      1.00000
    199      -5.7013      1.00000
    200      -5.6767      1.00000
    201      -5.6597      1.00000
    202      -5.6489      1.00000
    203      -5.6289      1.00000
    204      -5.6057      1.00000
    205      -5.5934      1.00000
    206      -5.5872      1.00000
    207      -5.5596      1.00000
    208      -5.5432      1.00000
    209      -5.5371      1.00000
    210      -5.4977      1.00000
    211      -5.4801      1.00000
    212      -5.4421      1.00000
    213      -5.4310      1.00000
    214      -5.3985      1.00000
    215      -5.3932      1.00000
    216      -5.3515      1.00000
    217      -5.3447      1.00000
    218      -5.3212      1.00000
    219      -5.3188      1.00000
    220      -5.3003      1.00000
    221      -5.2603      1.00000
    222      -5.2173      1.00000
    223      -5.2092      1.00000
    224      -5.1959      1.00000
    225      -5.1725      1.00000
    226      -5.0746      1.00000
    227      -5.0654      1.00000
    228      -5.0333      1.00000
    229      -5.0076      1.00000
    230      -5.0022      1.00000
    231      -4.9520      1.00000
    232      -4.9354      1.00000
    233      -4.9140      1.00000
    234      -4.9027      1.00000
    235      -4.8376      1.00000
    236      -4.7912      1.00000
    237      -4.7783      1.00000
    238      -4.7554      1.00000
    239      -4.7340      1.00000
    240      -4.7265      1.00000
    241      -4.7061      1.00000
    242      -4.6911      1.00000
    243      -4.6802      1.00000
    244      -4.6426      1.00000
    245      -4.6258      1.00000
    246      -4.6167      1.00000
    247      -4.5903      1.00000
    248      -4.5821      1.00000
    249      -4.5469      1.00000
    250      -4.5247      1.00000
    251      -4.5057      1.00000
    252      -4.4862      1.00000
    253      -4.4479      1.00000
    254      -4.4355      1.00000
    255      -4.4092      1.00000
    256      -4.3737      1.00000
    257      -4.3384      1.00000
    258      -4.3204      1.00000
    259      -4.3060      1.00000
    260      -4.2840      1.00000
    261      -4.2695      1.00000
    262      -4.2532      1.00000
    263      -4.2154      1.00000
    264      -4.1875      1.00000
    265      -4.1722      1.00000
    266      -4.1489      1.00000
    267      -4.1394      1.00000
    268      -4.1311      1.00000
    269      -4.1213      1.00000
    270      -4.1014      1.00000
    271      -4.0942      1.00000
    272      -4.0746      1.00000
    273      -4.0443      1.00000
    274      -4.0401      1.00000
    275      -4.0111      1.00000
    276      -3.9859      1.00000
    277      -3.9768      1.00000
    278      -3.9652      1.00000
    279      -3.9596      1.00000
    280      -3.9426      1.00000
    281      -3.9365      1.00000
    282      -3.9073      1.00000
    283      -3.8983      1.00000
    284      -3.8833      1.00000
    285      -3.8702      1.00000
    286      -3.8651      1.00000
    287      -3.8408      1.00000
    288      -3.8316      1.00000
    289      -3.8151      1.00000
    290      -3.7966      1.00000
    291      -3.7862      1.00000
    292      -3.7717      1.00000
    293      -3.7484      1.00000
    294      -3.7458      1.00000
    295      -3.7289      1.00000
    296      -3.7233      1.00000
    297      -3.6910      1.00000
    298      -3.6847      1.00000
    299      -3.6792      1.00000
    300      -3.6636      1.00000
    301      -3.6386      1.00000
    302      -3.6234      1.00000
    303      -3.6212      1.00000
    304      -3.6075      1.00000
    305      -3.6048      1.00000
    306      -3.5967      1.00000
    307      -3.5859      1.00000
    308      -3.5625      1.00000
    309      -3.5544      1.00000
    310      -3.5519      1.00000
    311      -3.5401      1.00000
    312      -3.5164      1.00000
    313      -3.4963      1.00000
    314      -3.4753      1.00000
    315      -3.4681      1.00000
    316      -3.4643      1.00000
    317      -3.4574      1.00000
    318      -3.4363      1.00000
    319      -3.4273      1.00000
    320      -3.4139      1.00000
    321      -3.3967      1.00000
    322      -3.3892      1.00000
    323      -3.3774      1.00000
    324      -3.3684      1.00000
    325      -3.3565      1.00000
    326      -3.3462      1.00000
    327      -3.3386      1.00000
    328      -3.3175      1.00000
    329      -3.3075      1.00000
    330      -3.2963      1.00000
    331      -3.2809      1.00000
    332      -3.2614      1.00000
    333      -3.2485      1.00000
    334      -3.2313      1.00000
    335      -3.2097      1.00000
    336      -3.1914      1.00000
    337      -3.1815      1.00000
    338      -3.1606      1.00000
    339      -3.1524      1.00000
    340      -3.1344      1.00000
    341      -3.1151      1.00000
    342      -3.0906      1.00000
    343      -3.0427      1.00000
    344      -3.0320      1.00000
    345      -3.0166      1.00000
    346      -3.0011      1.00000
    347      -2.9973      1.00000
    348      -2.9664      1.00000
    349      -2.9649      1.00000
    350      -2.9521      1.00000
    351      -2.9329      1.00000
    352      -2.8921      1.00000
    353      -2.7495      1.00000
    354      -2.7382      1.00000
    355      -2.7169      1.00000
    356      -2.7124      1.00000
    357      -2.6909      1.00000
    358      -2.6497      1.00000
    359      -2.5618      1.00000
    360      -2.5294      1.00000
    361      -2.4949      1.00000
    362      -2.4603      1.00000
    363      -2.4537      1.00000
    364      -2.4052      1.00000
    365      -2.4006      1.00000
    366      -2.3801      1.00000
    367      -2.3478      1.00000
    368      -2.3396      1.00000
    369      -2.3197      1.00000
    370      -2.3056      1.00000
    371      -2.3010      1.00000
    372      -2.2896      1.00000
    373      -2.2584      1.00000
    374      -2.2151      1.00000
    375      -2.1907      1.00000
    376      -2.1668      1.00000
    377      -2.1227      1.00000
    378      -2.0915      1.00000
    379      -2.0721      1.00000
    380      -1.9956      1.00000
    381      -1.8477      1.00000
    382      -1.8297      1.00000
    383      -1.8012      1.00000
    384      -1.7539      1.00000
    385      -1.7292      1.00000
    386      -1.6877      1.00000
    387      -1.6533      1.00000
    388      -1.5835      1.00000
    389      -1.4985      1.00000
    390      -1.4776      1.00000
    391      -1.4350      1.00000
    392      -1.4261      1.00000
    393      -1.3629      1.00000
    394      -1.3313      1.00000
    395      -1.2898      1.00000
    396      -1.2637      1.00000
    397      -1.2410      1.00000
    398      -1.1166      1.00000
    399      -1.0820      1.00000
    400      -0.9764      1.00000
    401      -0.9504      1.00000
    402      -0.9218      1.00000
    403      -0.8877      1.00000
    404      -0.8414      1.00000
    405      -0.7237      1.00000
    406       1.5114      0.00000
    407       1.6281      0.00000
    408       1.6793      0.00000
    409       1.6872      0.00000
    410       1.7733      0.00000
    411       1.8506      0.00000
    412       2.0253      0.00000
    413       2.0653      0.00000
    414       2.1415      0.00000
    415       2.2173      0.00000
    416       2.2496      0.00000
    417       2.2665      0.00000
    418       2.2786      0.00000
    419       2.3236      0.00000
    420       2.3739      0.00000
    421       2.4194      0.00000
    422       2.4585      0.00000
    423       2.4813      0.00000
    424       2.5296      0.00000
    425       2.5949      0.00000
    426       2.6263      0.00000
    427       2.6418      0.00000
    428       2.6647      0.00000
    429       2.6793      0.00000
    430       2.6849      0.00000
    431       2.7042      0.00000
    432       2.7223      0.00000
    433       2.7328      0.00000
    434       2.7574      0.00000
    435       2.7611      0.00000
    436       2.7733      0.00000
    437       2.8016      0.00000
    438       2.8114      0.00000
    439       2.8473      0.00000
    440       2.8657      0.00000
    441       2.8867      0.00000
    442       2.9021      0.00000
    443       2.9495      0.00000
    444       2.9555      0.00000
    445       2.9731      0.00000
    446       2.9809      0.00000
    447       3.0123      0.00000
    448       3.0231      0.00000
    449       3.0403      0.00000
    450       3.0685      0.00000
    451       3.0791      0.00000
    452       3.1237      0.00000
    453       3.1522      0.00000
    454       3.2039      0.00000
    455       3.2243      0.00000
    456       3.2382      0.00000
    457       3.2593      0.00000
    458       3.2876      0.00000
    459       3.3069      0.00000
    460       3.3161      0.00000
    461       3.3208      0.00000
    462       3.3454      0.00000
    463       3.3599      0.00000
    464       3.4036      0.00000
    465       3.4195      0.00000
    466       3.4744      0.00000
    467       3.4910      0.00000
    468       3.5070      0.00000
    469       3.5386      0.00000
    470       3.5727      0.00000
    471       3.5813      0.00000
[...]
      3.73978      3.76510      7.63183         0.002048      0.000532     -0.001228
      3.71029      7.71767     11.58325        -0.000693     -0.001112     -0.000546
      3.75193      7.83037      3.96004         0.001361     -0.000573     -0.000770
      3.74840      7.72003      7.58430        -0.001062      0.000419     -0.001650
      7.80213      0.13335     11.51029        -0.001260      0.000171      0.000200
      7.75350      0.15795      3.86325        -0.000535     -0.001308      0.000242
      7.73464     11.50276      7.86840        -0.000437      0.002761      0.000773
      7.63551      3.76566      0.13591        -0.001014      0.000377      0.002309
      7.63351      3.80132      3.71305        -0.000418      0.002245      0.000992
      7.75074      3.87525      7.71975         0.000190      0.000845      0.001049
      7.73330      7.71462      0.11285        -0.001365     -0.000154      0.000201
      7.74019      7.72036      3.75484        -0.000046     -0.000017      0.000314
      7.74134      7.88044      7.72197         0.000809      0.001827     -0.000394
     11.57312      5.77131     11.56403        -0.001090     -0.000800     -0.001971
     11.54959      5.77589      7.75598         0.000172     -0.002070      0.000461
     11.57092      9.64401      3.83302         0.001302     -0.000478      0.000114
      3.88177      1.92741     11.49418         0.000937     -0.002527     -0.002543
      3.93574      1.92606      7.79008        -0.001329      0.001256     -0.000331
      3.92225      9.63897      3.85994        -0.000220     -0.001952     -0.001260
      7.70800      1.92319      0.07713        -0.002850     -0.000372      0.009429
      7.78173      1.91582      3.81469        -0.000419     -0.000064     -0.005202
      7.73760      9.63872      7.69922         0.000380      0.001154      0.001333
      1.93675      0.04417      3.91368        -0.000902      0.000501      0.002411
      1.92812     11.55596      7.71227        -0.001652     -0.000545     -0.002194
      1.92942      3.85919      7.79091         0.001283      0.002271      0.001568
      1.95073      7.75454      0.04556        -0.000119      0.000026      0.002134
      1.91590      7.68150      3.79813         0.001104     -0.000034     -0.003530
      1.94316      7.75777      7.72593         0.003779      0.001173     -0.001072
      5.81115      3.94819      0.01437         0.001618      0.001595      0.003454
      5.82206      3.89278      3.84612         0.001022      0.000466     -0.001218
      9.68367     11.57107      0.03767        -0.000228      0.000513      0.001090
     11.52351      0.07996      5.79421        -0.002039      0.001939      0.000757
      0.01111      3.79956      5.77396         0.002758     -0.000697      0.001330
     11.56125      7.80148      9.66876         0.001466      0.002012      0.002380
      3.86678      0.02131      1.90628        -0.003053      0.001215     -0.000697
      3.85712      3.92097      5.78725         0.000260      0.000099      0.002828
      3.92623      7.64483      5.79663        -0.001568     -0.000613     -0.001785
      7.71432      0.01708      9.64389         0.000008      0.004836      0.003387
      7.83264      4.02349      1.92756         0.002760      0.006882      0.000428
      7.73488      7.67154      1.92999         0.000273     -0.001776     -0.001203
      0.04368      1.93627     11.56749         0.001531     -0.000686     -0.000927
     11.51187      1.93838      3.74858        -0.000944      0.000019     -0.000724
     11.54041      1.92695      7.83352         0.002891      0.000222      0.001362
     11.55694      5.77006      3.82416         0.000652     -0.000500      0.000816
     11.61331      9.66342      0.11301        -0.000844     -0.001053      0.003109
     11.48352      9.64745      7.66223        -0.000239      0.001480     -0.003048
      3.91727      1.93252      3.87702         0.001312     -0.001067      0.001226
      3.82085      5.79590      0.01933        -0.003417     -0.000179      0.000184
      3.86723      5.79111      3.72733        -0.001594      0.000058     -0.001895
      3.95470      5.79004      7.82098         0.000312      0.000645     -0.000402
      3.92813      9.62952     11.57311         0.000266     -0.001134      0.000376
      4.00095      9.65325      7.71663         0.000867     -0.000133     -0.001957
      7.69735      1.96521      7.66460        -0.000939      0.001116     -0.001333
      7.85737      5.81842     11.44404         0.003447     -0.000578     -0.003824
      7.79815      5.81521      3.99574         0.001982      0.000154      0.004119
      7.79234      5.77683      7.73930         0.001783      0.000712      0.002242
      7.68415      9.61197     11.56081        -0.002271     -0.001409     -0.001606
      7.72277      9.62284      3.92981        -0.001772     -0.000144      0.001417
      1.89983     11.52768     11.51109        -0.000071     -0.001053     -0.002714
      1.91734      3.87814     11.55369        -0.000913     -0.000644     -0.000971
      1.91255      3.84537      3.78413        -0.000163     -0.001770      0.000072
      5.81064     11.49366      0.00563        -0.001643     -0.001095      0.000144
      5.84489      0.00233      3.91277        -0.000432      0.000200     -0.000017
      5.83445      0.00499      7.65593        -0.000655      0.001036     -0.000307
      5.87162      3.91815      7.74206        -0.000189      0.001662      0.001016
      5.83115      7.64020     11.52606        -0.000221     -0.004307     -0.002047
      5.84740      7.64117      3.85382        -0.000847     -0.002203     -0.000722
      5.84891      7.64649      7.79506        -0.000549      0.000676      0.000797
      9.64843     11.54046      3.74462        -0.000515     -0.000907     -0.002279
      9.65962      0.05975      7.76961         0.001148      0.002702      0.001656
      9.68367      3.80779     11.51702         0.001037     -0.004176      0.000153
      9.67061      3.90169      3.91377         0.001147     -0.000969      0.003474
      9.63145      3.79759      7.73411         0.001059     -0.000184     -0.000390
      9.64388      7.80905      0.00508         0.000180      0.001377     -0.000582
      9.63420      7.69718      3.90786         0.000763      0.001514      0.001123
      9.63441      7.69770      7.66889         0.000357      0.001321     -0.002227
      0.05328      0.06924      1.91046         0.002539      0.000350     -0.000054
     11.57654     11.51607      9.66015        -0.000201     -0.002644     -0.000185
     11.56678      3.83115      1.92071         0.000476      0.000733     -0.000104
     11.54663      3.77530      9.67208        -0.000716     -0.000063      0.000491
     11.47156      7.67818      1.90938        -0.002404     -0.002094      0.000277
     11.54657      7.68908      5.78195         0.002988     -0.000745     -0.002089
      3.95765      0.01383      5.79870         0.000942     -0.000550     -0.000324
      3.92816     11.46349      9.66031        -0.000613     -0.001710     -0.001656
      3.78662      3.82947      1.92566        -0.001548     -0.003205     -0.000437
      3.90817      3.96712      9.65433         0.002759      0.000811     -0.000719
      4.01931      7.71376      1.89811         0.002064     -0.000786     -0.001150
      3.93583      7.72920      9.67106        -0.002800      0.000192      0.000135
      7.66411     11.42606      1.94398        -0.001887     -0.005857      0.001108
      7.82252      0.01314      5.79503         0.001161      0.002734     -0.001600
      7.77401      3.89015      5.83024        -0.001349     -0.000804      0.001036
      7.77208      3.84712      9.61309        -0.000049     -0.004573      0.001071
      7.68758      7.68391      5.79168        -0.001850      0.001239      0.000937
      7.78456      7.71799      9.65890         0.001077      0.000934     -0.000260
 -----------------------------------------------------------------------------------
    total drift:                                0.005985      0.005338      0.001631


--------------------------------------------------------------------------------------------------------



  FREE ENERGIE OF THE ION-ELECTRON SYSTEM (eV)
  ---------------------------------------------------
  free  energy   TOTEN  =      -720.76917229 eV

  energy  without entropy=     -720.76917229  energy(sigma->0) =     -720.76917229
 


--------------------------------------------------------------------------------------------------------


    POTLOK:  cpu time      1.0670: real time      1.0698


--------------------------------------------------------------------------------------------------------


 Quasi-Newton relaxation of ions (Broydens 2nd method)
  g(Force)  = 0.443E-04   g(Stress)= 0.911E-04

 Reset! Starting new Quasi-Newton update for ions 


--------------------------------------------------------------------------------------------------------


  
 reached required accuracy - stopping structural energy minimisation
 writing wavefunctions
     LOOP+:  cpu time    446.7579: real time    457.1577
    4ORBIT:  cpu time      0.0000: real time      0.0000



 total charge

# of ion       s       p       d       tot
------------------------------------------
    1        0.315   6.461   1.751   8.526
    2        0.329   6.456   1.820   8.605
    3        0.320   6.450   1.793   8.563
    4        0.316   6.461   1.765   8.542
    5        0.315   6.457   1.770   8.543
    6        0.330   6.459   1.829   8.618
    7        0.325   6.460   1.797   8.583
    8        0.322   6.451   1.818   8.591
    9        0.326   6.452   1.793   8.571
   10        0.319   6.453   1.795   8.567
   11        0.327   6.456   1.803   8.586
   12        0.319   6.450   1.778   8.547
   13        0.322   6.455   1.791   8.568
   14        0.321   6.453   1.780   8.554
   15        0.329   6.457   1.814   8.599
   16        0.318   6.461   1.773   8.552
   17        0.328   6.455   1.819   8.603
   18        0.321   6.449   1.809   8.580
   19        0.327   6.458   1.798   8.583
   20        0.317   6.458   1.776   8.551
   21        0.323   6.463   1.794   8.581
   22        0.331   6.457   1.836   8.624
   23        0.330   6.461   1.832   8.623
   24        0.317   6.489   1.680   8.486
   25        0.318   6.472   1.721   8.510
   26        0.318   6.474   1.719   8.511
   27        0.319   6.466   1.782   8.568
   28        1.571   3.470   0.000   5.041
   29        1.568   3.472   0.000   5.041
   30        1.569   3.476   0.000   5.045
   31        1.569   3.475   0.000   5.044
   32        1.568   3.470   0.000   5.039
   33        1.569   3.475   0.000   5.043
   34        1.569   3.477   0.000   5.046
   35        1.571   3.472   0.000   5.042
   36        1.572   3.477   0.000   5.049
   37        1.569   3.476   0.000   5.046
   38        1.568   3.471   0.000   5.039
   39        1.570   3.482   0.000   5.052
   40        1.571   3.470   0.000   5.041
   41        1.569   3.477   0.000   5.045
   42        1.568   3.475   0.000   5.043
   43        1.569   3.475   0.000   5.044
   44        1.569   3.476   0.000   5.044
   45        1.570   3.467   0.000   5.037
   46        1.570   3.475   0.000   5.044
   47        1.571   3.470   0.000   5.040
   48        1.570   3.470   0.000   5.039
   49        1.569   3.472   0.000   5.041
   50        1.568   3.472   0.000   5.040
   51        1.569   3.474   0.000   5.044
   52        1.570   3.473   0.000   5.043
   53        1.570   3.480   0.000   5.051
   54        1.571   3.471   0.000   5.042
   55        1.730   4.377   0.000   6.107
   56        1.730   4.378   0.000   6.108
   57        1.729   4.378   0.000   6.108
   58        1.729   4.376   0.000   6.106
   59        1.730   4.382   0.000   6.112
   60        1.729   4.376   0.000   6.105
   61        1.729   4.378   0.000   6.107
   62        1.730   4.380   0.000   6.110
   63        1.730   4.379   0.000   6.109
   64        1.729   4.380   0.000   6.109
   65        1.730   4.379   0.000   6.109
   66        1.729   4.375   0.000   6.104
   67        1.731   4.378   0.000   6.109
   68        1.731   4.376   0.000   6.106
   69        1.731   4.382   0.000   6.112
   70        1.731   4.375   0.000   6.106
   71        1.731   4.373   0.000   6.104
   72        1.730   4.372   0.000   6.102
   73        1.729   4.375   0.000   6.104
   74        1.729   4.375   0.000   6.104
   75        1.729   4.374   0.000   6.103
   76        1.729   4.382   0.000   6.112
   77        1.730   4.375   0.000   6.105
   78        1.730   4.378   0.000   6.108
   79        1.732   4.369   0.000   6.101
   80        1.731   4.372   0.000   6.103
   81        1.731   4.374   0.000   6.105
   82        1.731   4.375   0.000   6.105
   83        1.730   4.375   0.000   6.105
   84        1.730   4.378   0.000   6.108
   85        1.730   4.379   0.000   6.109
   86        1.730   4.381   0.000   6.111
   87        1.732   4.371   0.000   6.103
   88        1.731   4.379   0.000   6.110
   89        1.731   4.373   0.000   6.105
   90        1.731   4.376   0.000   6.107
   91        1.730   4.380   0.000   6.110
   92        1.730   4.375   0.000   6.105
   93        1.730   4.376   0.000   6.106
   94        1.730   4.384   0.000   6.114
   95        1.729   4.378   0.000   6.107
   96        1.729   4.379   0.000   6.108
   97        1.729   4.380   0.000   6.110
   98        1.729   4.378   0.000   6.107
   99        1.729   4.378   0.000   6.107
  100        1.730   4.382   0.000   6.111
  101        1.730   4.376   0.000   6.106
  102        1.730   4.376   0.000   6.106
  103        1.730   4.379   0.000   6.108
  104        1.729   4.377   0.000   6.106
  105        1.732   4.372   0.000   6.103
  106        1.731   4.372   0.000   6.104
  107        1.730   4.381   0.000   6.111
  108        1.730   4.381   0.000   6.111
--------------------------------------------------
tot        144.503 504.542  48.239 697.284



 magnetization (x)

# of ion       s       p       d       tot
------------------------------------------
    1       -0.000   0.000   0.000   0.000
    2       -0.000  -0.000  -0.000  -0.000
    3        0.000   0.000   0.000   0.000
    4       -0.000   0.000   0.000   0.000
    5       -0.000  -0.000  -0.000  -0.000
    6        0.000   0.000  -0.000   0.000
    7       -0.000   0.000   0.000  -0.000
    8       -0.000  -0.000  -0.000  -0.000
    9        0.000  -0.000   0.000   0.000
   10       -0.000   0.000  -0.000  -0.000
   11        0.000   0.000  -0.000   0.000
   12        0.000  -0.000   0.000   0.000
   13        0.000  -0.000  -0.000  -0.000
   14       -0.000  -0.000  -0.000  -0.000
   15       -0.000  -0.000  -0.000  -0.000
   16       -0.000   0.000   0.000   0.000
   17       -0.000  -0.000   0.000   0.000
   18        0.000   0.000  -0.000   0.000
   19        0.000   0.000   0.000   0.000
   20        0.000   0.000   0.000   0.000
   21       -0.000   0.000  -0.000  -0.000
   22        0.000  -0.000  -0.000   0.000
   23       -0.000   0.000   0.000   0.000
   24       -0.000  -0.000  -0.000  -0.000
   25        0.000  -0.000  -0.000  -0.000
   26       -0.000  -0.000   0.000   0.000
   27        0.000   0.000   0.000   0.000
   28        0.000  -0.000   0.000   0.000
   29       -0.000  -0.000   0.000  -0.000
   30        0.000   0.000   0.000   0.000
   31        0.000  -0.000   0.000   0.000
   32       -0.000  -0.000   0.000  -0.000
   33        0.000  -0.000   0.000   0.000
   34       -0.000  -0.000   0.000  -0.000
   35        0.000  -0.000   0.000  -0.000
   36       -0.000  -0.000   0.000  -0.000
   37        0.000   0.000   0.000   0.000
   38       -0.000  -0.000   0.000  -0.000
   39        0.000   0.000   0.000   0.000
   40        0.000  -0.000   0.000  -0.000
   41        0.000  -0.000   0.000  -0.000
   42       -0.000  -0.000   0.000  -0.000
   43       -0.000   0.000   0.000   0.000
   44       -0.000  -0.000   0.000  -0.000
   45        0.000  -0.000   0.000   0.000
   46       -0.000  -0.000   0.000  -0.000
   47       -0.000  -0.000   0.000  -0.000
   48       -0.000  -0.000   0.000  -0.000
   49       -0.000  -0.000   0.000  -0.000
   50        0.000   0.000   0.000   0.000
   51       -0.000   0.000   0.000   0.000
   52        0.000   0.000   0.000   0.000
   53       -0.000  -0.000   0.000  -0.000
   54        0.000   0.000   0.000   0.000
   55        0.000   0.000   0.000   0.000
   56       -0.000   0.000   0.000  -0.000
   57        0.000   0.000   0.000   0.000
   58        0.000  -0.000   0.000  -0.000
   59        0.000  -0.000   0.000  -0.000
   60       -0.000   0.000   0.000   0.000
   61        0.000   0.000   0.000   0.000
   62        0.000   0.000   0.000   0.000
   63        0.000   0.000   0.000   0.000
   64        0.000   0.000   0.000   0.000
   65        0.000   0.000   0.000   0.000
   66       -0.000  -0.000   0.000  -0.000
   67        0.000   0.000   0.000   0.000
   68        0.000   0.000   0.000   0.000
   69       -0.000   0.000   0.000  -0.000
   70        0.000   0.000   0.000   0.000
   71        0.000   0.000   0.000   0.000
   72        0.000  -0.000   0.000   0.000
   73       -0.000  -0.000   0.000  -0.000
   74       -0.000   0.000   0.000   0.000
   75        0.000   0.000   0.000   0.000
   76        0.000  -0.000   0.000   0.000
   77        0.000   0.000   0.000   0.000
   78        0.000   0.000   0.000   0.000
   79       -0.000  -0.000   0.000  -0.000
   80        0.000   0.000   0.000   0.000
   81        0.000   0.000   0.000   0.000
   82        0.000   0.000   0.000   0.000
   83        0.000  -0.000   0.000   0.000
   84       -0.000  -0.000   0.000  -0.000
   85       -0.000   0.000   0.000   0.000
   86       -0.000  -0.000   0.000  -0.000
   87       -0.000  -0.000   0.000  -0.000
   88        0.000   0.000   0.000   0.000
   89        0.000  -0.000   0.000   0.000
   90        0.000   0.000   0.000   0.000
   91        0.000   0.000   0.000   0.000
   92       -0.000  -0.000   0.000  -0.000
   93       -0.000   0.000   0.000  -0.000
   94       -0.000   0.000   0.000   0.000
   95       -0.000   0.000   0.000   0.000
   96       -0.000  -0.000   0.000  -0.000
   97       -0.000   0.000   0.000  -0.000
   98       -0.000   0.000   0.000  -0.000
   99       -0.000   0.000   0.000   0.000
  100        0.000   0.000   0.000   0.000
  101        0.000  -0.000   0.000   0.000
  102        0.000   0.000   0.000   0.000
  103        0.000  -0.000   0.000   0.000
  104        0.000   0.000   0.000   0.000
  105       -0.000   0.000   0.000   0.000
  106       -0.000   0.000   0.000  -0.000
  107        0.000   0.000   0.000   0.000
  108        0.000   0.000   0.000   0.000
--------------------------------------------------
tot          0.000   0.000   0.000   0.000
 

 total amount of memory used by VASP MPI-rank0   298121. kBytes
=======================================================================

   base      :      30000. kBytes
   nonlr-proj:      25238. kBytes
   fftplans  :      18873. kBytes
   grid      :      21088. kBytes
   one-center:        435. kBytes
   wavefun   :     202487. kBytes
 
  
  
 General timing and accounting informations for this job:
 ========================================================
  
                  Total CPU time used (sec):      536.396
                            User time (sec):      514.418
                          System time (sec):       21.978
                         Elapsed time (sec):      549.127
  
                   Maximum memory used (kb):      826044.
                   Average memory used (kb):          N/A
  
                          Minor page faults:       153164
                          Major page faults:           14
                 Voluntary context switches:        10930
