 vasp.5.4.4.18Apr17-6-g9f103f2a35 (build Jul 16 2019 12:12:28) complex          
  
 executed on             LinuxIFC date 2020.01.06  11:52:12
 running on   96 total cores
 distrk:  each k-point on   96 cores,    1 groups
 distr:  one band on NCORES_PER_BAND=   8 cores,   12 groups


--------------------------------------------------------------------------------------------------------


 INCAR:
 POTCAR:    PAW_PBE Li_sv 10Sep2004               
 POTCAR:    PAW_PBE Ti_pv 07Sep2000               
 POTCAR:    PAW_PBE O 08Apr2002                   
 POTCAR:    PAW_PBE F 08Apr2002                   
 POTCAR:    PAW_PBE Li_sv 10Sep2004               
   VRHFIN =Li: 1s2s2p                                                           
   LEXCH  = PE                                                                  
   EATOM  =   202.7858 eV,   14.9043 Ry                                         
                                                                                
   TITEL  = PAW_PBE Li_sv 10Sep2004                                             
   LULTRA =        F    use ultrasoft PP ?                                      
   IUNSCR =        0    unscreen: 0-lin 1-nonlin 2-no                           
   RPACOR =    0.000    partial core radius                                     
   POMASS =    7.010; ZVAL   =    3.000    mass and valenz                      
   RCORE  =    1.700    outmost cutoff radius                                   
   RWIGS  =    2.050; RWIGS  =    1.085    wigner-seitz radius (au A)           
   ENMAX  =  499.034; ENMIN  =  374.276 eV                                      
   ICORE  =        2    local potential                                         
   LCOR   =        T    correct aug charges                                     
   LPAW   =        T    paw PP                                                  
   EAUG   =  628.945                                                            
   RMAX   =    1.732    core radius for proj-oper                               
   RAUG   =    1.300    factor for augmentation sphere                          
   RDEP   =    1.728    radius for radial grids                                 
   RDEPT  =    1.329    core radius for aug-charge                              
                                                                                
   Atomic configuration                                                         
    4 entries                                                                   
     n  l   j            E        occ.                                          
     1  0  0.50       -51.8549   2.0000                                         
     2  0  0.50        -2.8742   1.0000                                         
     2  1  0.50        -1.3606   0.0000                                         
     3  2  1.50        -1.3606   0.0000                                         
   Description                                                                  
     l       E           TYP  RCUT    TYP  RCUT                                 
     0    -51.8548813     23  1.400                                             
     0     -2.8742052     23  1.700                                             
     1     -1.3605826     23  1.400                                             
     2     -1.3605826     23  1.400                                             
  local pseudopotential read in
  atomic valenz-charges read in
  non local Contribution for L=           0  read in
    real space projection operators read in
  non local Contribution for L=           0  read in
    real space projection operators read in
  non local Contribution for L=           1  read in
    real space projection operators read in
    PAW grid and wavefunctions read in
 
   number of l-projection  operators is LMAX  =           3
   number of lm-projection operators is LMMAX =           5
 
 POTCAR:    PAW_PBE Ti_pv 07Sep2000               
   VRHFIN =Ti: d3 s1                                                            
   LEXCH  = PE                                                                  
   EATOM  =  1042.5995 eV,   76.6289 Ry                                         
                                                                                
   TITEL  = PAW_PBE Ti_pv 07Sep2000                                             
   LULTRA =        F    use ultrasoft PP ?                                      
   IUNSCR =        1    unscreen: 0-lin 1-nonlin 2-no                           
   RPACOR =    2.200    partial core radius                                     
   POMASS =   47.880; ZVAL   =   10.000    mass and valenz                      
   RCORE  =    2.500    outmost cutoff radius                                   
   RWIGS  =    2.500; RWIGS  =    1.323    wigner-seitz radius (au A)           
   ENMAX  =  222.335; ENMIN  =  166.751 eV                                      
   RCLOC  =    1.701    cutoff for local pot                                    
   LCOR   =        T    correct aug charges                                     
   LPAW   =        T    paw PP                                                  
   EAUG   =  482.848                                                            
   DEXC   =    0.000                                                            
   RMAX   =    2.564    core radius for proj-oper                               
   RAUG   =    1.300    factor for augmentation sphere                          
   RDEP   =    2.538    radius for radial grids                                 
   RDEPT  =    1.952    core radius for aug-charge                              
                                                                                
   Atomic configuration                                                         
    8 entries                                                                   
     n  l   j            E        occ.                                          
     1  0  0.50     -4865.3608   2.0000                                         
     2  0  0.50      -533.1368   2.0000                                         
     2  1  1.50      -440.5031   6.0000                                         
     3  0  0.50       -59.3186   2.0000                                         
     3  1  1.50       -35.7012   6.0000                                         
     3  2  2.50        -1.9157   3.0000                                         
     4  0  0.50        -3.7291   1.0000                                         
     4  3  2.50        -1.3606   0.0000                                         
   Description                                                                  
     l       E           TYP  RCUT    TYP  RCUT                                 
     1    -35.7012140     23  2.300                                             
     1     -1.3605826     23  2.300                                             
     2     -1.9156996     23  2.500                                             
     2     -0.4063033     23  2.500                                             
     0     -3.7290856     23  2.500                                             
     0     20.4087390     23  2.500                                             
  local pseudopotential read in
  partial core-charges read in
  partial kinetic energy density read in
  atomic valenz-charges read in
  non local Contribution for L=           1  read in
    real space projection operators read in
  non local Contribution for L=           1  read in
    real space projection operators read in
  non local Contribution for L=           2  read in
    real space projection operators read in
  non local Contribution for L=           2  read in
    real space projection operators read in
  non local Contribution for L=           0  read in
    real space projection operators read in
  non local Contribution for L=           0  read in
    real space projection operators read in
    PAW grid and wavefunctions read in
 
   number of l-projection  operators is LMAX  =           6
   number of lm-projection operators is LMMAX =          18
 
 POTCAR:    PAW_PBE O 08Apr2002                   
   VRHFIN =O: s2p4                                                              
   LEXCH  = PE                                                                  
   EATOM  =   432.3788 eV,   31.7789 Ry                                         
                                                                                
   TITEL  = PAW_PBE O 08Apr2002                                                 
   LULTRA =        F    use ultrasoft PP ?                                      
   IUNSCR =        1    unscreen: 0-lin 1-nonlin 2-no                           
   RPACOR =    1.200    partial core radius                                     
   POMASS =   16.000; ZVAL   =    6.000    mass and valenz                      
   RCORE  =    1.520    outmost cutoff radius                                   
   RWIGS  =    1.550; RWIGS  =    0.820    wigner-seitz radius (au A)           
   ENMAX  =  400.000; ENMIN  =  300.000 eV                                      
   ICORE  =        2    local potential                                         
   LCOR   =        T    correct aug charges                                     
   LPAW   =        T    paw PP                                                  
   EAUG   =  605.392                                                            
   DEXC   =    0.000                                                            
   RMAX   =    1.553    core radius for proj-oper                               
   RAUG   =    1.300    factor for augmentation sphere                          
   RDEP   =    1.550    radius for radial grids                                 
   RDEPT  =    1.329    core radius for aug-charge                              
                                                                                
   Atomic configuration                                                         
    4 entries                                                                   
     n  l   j            E        occ.                                          
     1  0  0.50      -514.6923   2.0000                                         
     2  0  0.50       -23.9615   2.0000                                         
     2  1  0.50        -9.0305   4.0000                                         
     3  2  1.50        -9.5241   0.0000                                         
   Description                                                                  
     l       E           TYP  RCUT    TYP  RCUT                                 
     0    -23.9615318     23  1.200                                             
     0     -9.5240782     23  1.200                                             
     1     -9.0304911     23  1.520                                             
     1      8.1634956     23  1.520                                             
     2     -9.5240782      7  1.500                                             
  local pseudopotential read in
  partial core-charges read in
  partial kinetic energy density read in
  kinetic energy density of atom read in
  atomic valenz-charges read in
  non local Contribution for L=           0  read in
    real space projection operators read in
  non local Contribution for L=           0  read in
    real space projection operators read in
  non local Contribution for L=           1  read in
    real space projection operators read in
  non local Contribution for L=           1  read in
    real space projection operators read in
    PAW grid and wavefunctions read in
 
   number of l-projection  operators is LMAX  =           4
   number of lm-projection operators is LMMAX =           8
 
 POTCAR:    PAW_PBE F 08Apr2002                   
   VRHFIN =F: s2p5                                                              
   LEXCH  = PE                                                                  
   EATOM  =   659.6475 eV,   48.4827 Ry                                         
                                                                                
   TITEL  = PAW_PBE F 08Apr2002                                                 
   LULTRA =        F    use ultrasoft PP ?                                      
   IUNSCR =        1    unscreen: 0-lin 1-nonlin 2-no                           
   RPACOR =    1.200    partial core radius                                     
   POMASS =   18.998; ZVAL   =    7.000    mass and valenz                      
   RCORE  =    1.520    outmost cutoff radius                                   
   RWIGS  =    1.500; RWIGS  =    0.794    wigner-seitz radius (au A)           
   ENMAX  =  400.000; ENMIN  =  300.000 eV                                      
   ICORE  =        2    local potential                                         
   LCOR   =        T    correct aug charges                                     
   LPAW   =        T    paw PP                                                  
   EAUG   =  613.614                                                            
   RMAX   =    1.555    core radius for proj-oper                               
   RAUG   =    1.300    factor for augmentation sphere                          
   RDEP   =    1.539    radius for radial grids                                 
   RDEPT  =    1.299    core radius for aug-charge                              
                                                                                
   Atomic configuration                                                         
    4 entries                                                                   
     n  l   j            E        occ.                                          
     1  0  0.50      -663.3661   2.0000                                         
     2  0  0.50       -29.8995   2.0000                                         
     2  1  0.50       -11.1114   5.0000                                         
     3  2  1.50       -10.8847   0.0000                                         
   Description                                                                  
     l       E           TYP  RCUT    TYP  RCUT                                 
     0    -29.8995018     23  1.200                                             
     0     -9.5240782     23  1.200                                             
     1    -11.1113914     23  1.520                                             
     1      1.3605826     23  1.520                                             
     2    -10.8846608      7  1.500                                             
  local pseudopotential read in
  partial core-charges read in
  partial kinetic energy density read in
  atomic valenz-charges read in
  non local Contribution for L=           0  read in
    real space projection operators read in
  non local Contribution for L=           0  read in
    real space projection operators read in
  non local Contribution for L=           1  read in
    real space projection operators read in
  non local Contribution for L=           1  read in
    real space projection operators read in
    PAW grid and wavefunctions read in
 
   number of l-projection  operators is LMAX  =           4
   number of lm-projection operators is LMMAX =           8
 
 Optimization of the real space projectors (new method)

 maximal supplied QI-value         = 22.11
 optimisation between [QCUT,QGAM] = [ 11.28, 22.77] = [ 35.61,145.23] Ry 
 Optimized for a Real-space Cutoff    1.31 Angstroem

   l    n(q)    QCUT    max X(q) W(low)/X(q) W(high)/X(q)  e(spline) 
   0      9    11.276    10.506    0.19E-04    0.17E-04    0.32E-07
   0      9    11.276     8.367    0.38E-04    0.40E-04    0.65E-07
   1      8    11.276     8.983    0.55E-04    0.98E-04    0.20E-06
 Optimization of the real space projectors (new method)

 maximal supplied QI-value         = 15.12
 optimisation between [QCUT,QGAM] = [ 11.34, 22.83] = [ 36.00,145.93] Ry 
 Optimized for a Real-space Cutoff    1.56 Angstroem

   l    n(q)    QCUT    max X(q) W(low)/X(q) W(high)/X(q)  e(spline) 
   1     10    11.338     4.216    0.27E-04    0.12E-04    0.66E-07
   1     10    11.338     5.422    0.81E-04    0.24E-04    0.19E-06
   2     10    11.338    72.084    0.64E-04    0.21E-03    0.51E-06
   2     10    11.338    65.965    0.63E-04    0.21E-03    0.50E-06
   0     11    11.338    41.531    0.33E-04    0.54E-04    0.13E-06
   0     11    11.338    16.290    0.26E-04    0.41E-04    0.11E-06
 Optimization of the real space projectors (new method)

 maximal supplied QI-value         = 24.76
 optimisation between [QCUT,QGAM] = [ 11.39, 22.77] = [ 36.31,145.25] Ry 
 Optimized for a Real-space Cutoff    1.20 Angstroem

   l    n(q)    QCUT    max X(q) W(low)/X(q) W(high)/X(q)  e(spline) 
   0      8    11.387    20.381    0.89E-04    0.31E-03    0.27E-06
   0      8    11.387    15.268    0.93E-04    0.32E-03    0.29E-06
   1      8    11.387     5.964    0.53E-04    0.28E-03    0.29E-06
   1      8    11.387     5.382    0.37E-04    0.22E-03    0.26E-06
 Optimization of the real space projectors (new method)

 maximal supplied QI-value         = 24.76
 optimisation between [QCUT,QGAM] = [ 11.39, 22.77] = [ 36.31,145.25] Ry 
 Optimized for a Real-space Cutoff    1.20 Angstroem

   l    n(q)    QCUT    max X(q) W(low)/X(q) W(high)/X(q)  e(spline) 
   0      8    11.387    14.049    0.69E-04    0.23E-03    0.18E-06
   0      8    11.387     8.945    0.88E-04    0.30E-03    0.26E-06
   1      8    11.387     7.086    0.62E-04    0.27E-03    0.27E-06
   1      8    11.387     6.747    0.46E-04    0.23E-03    0.25E-06

 ----------------------------------------------------------------------------- 
|                                                                             |
|  ADVICE TO THIS USER RUNNING 'VASP/VAMP'   (HEAR YOUR MASTER'S VOICE ...):  |
|                                                                             |
|      You enforced a specific xc-type in the INCAR file,                     |
|      a different type was found on the POTCAR file                          |
|          I HOPE YOU KNOW, WHAT YOU ARE  DOING                               |
|                                                                             |
 ----------------------------------------------------------------------------- 

  PAW_PBE Li_sv 10Sep2004               :
 energy of atom  1       EATOM= -202.7858
 kinetic energy error for atom=    0.0143 (will be added to EATOM!!)
  PAW_PBE Ti_pv 07Sep2000               :
 energy of atom  2       EATOM=-1042.5995
 kinetic energy error for atom=    0.0024 (will be added to EATOM!!)
  PAW_PBE O 08Apr2002                   :
 energy of atom  3       EATOM= -432.3788
 kinetic energy error for atom=    0.0224 (will be added to EATOM!!)
  PAW_PBE F 08Apr2002                   :
 energy of atom  4       EATOM= -659.6475
 kinetic energy error for atom=    0.0354 (will be added to EATOM!!)
 
 
 POSCAR: config 30                               
  positions in direct lattice
  velocities in cartesian coordinates
 exchange correlation table for  LEXCH =       14
   RHO(1)=    0.500       N(1)  =     2000
   RHO(2)=  100.500       N(2)  =     4000

 VTST: version 3.2, (02/03/18)

 CHAIN: initializing optimizer
 
 OPT: Using VASP QUASI-newton optimizer
 CHAIN: Read ICHAIN            0
 
 POSCAR: config 30                               
  positions in direct lattice
  velocities in cartesian coordinates
 


--------------------------------------------------------------------------------------------------------


 ion  position               nearest neighbor table
   1  0.310  0.881  0.372- 156 1.94 128 2.03  85 2.03 252 2.05  53 2.83
   2  0.996  0.995  0.995- 118 1.88  68 1.88 103 1.89 171 2.03 212 2.03 130 2.04
   3  0.998  0.992  0.494- 119 1.81  67 1.83 193 1.96 172 1.97 131 2.00 213 2.10
   4  0.006  0.496  0.997-  89 1.84 117 1.86 138 1.93 132 1.99 214 2.02 194 2.03
   5  0.995  0.504  0.507-  66 1.83 104 1.84 215 1.94 223 2.01 173 2.03 137 2.03
   6  0.495  0.993  1.000- 121 1.85 101 1.85 140 1.95 133 1.97 174 2.02 216 2.02
   7  0.502  0.006  0.499- 112 1.90 134 2.01 139 2.02 191 2.02 175 2.02 225 2.05
   8  0.504  0.495  0.996- 120 1.88  70 1.88  90 1.89 192 2.04 135 2.04 217 2.05
   9  0.492  0.497  0.496- 102 1.82  69 1.87 224 1.95 136 2.01 218 2.02 176 2.08
  10  0.006  0.003  0.256-  91 1.85  67 1.85 219 1.95 227 1.98 130 2.00 197 2.04
  11  0.002  0.008  0.757-  68 1.80 113 1.84 177 1.95 198 1.98 228 2.05 131 2.07
  12  0.994  0.493  0.251- 107 1.82 122 1.86 137 1.93 132 1.97 220 2.02 178 2.03
  13  0.993  0.500  0.741- 108 1.82  66 1.83 226 1.93 221 1.97 138 2.03 179 2.06
  14  0.507  0.008  0.251- 114 1.83  92 1.83 139 1.92 133 1.95 195 2.06 231 2.08
  15  0.493  0.005  0.752- 105 1.83 115 1.84 134 1.92 140 1.95 232 2.02 180 2.04
  16  0.493  0.494  0.257-  69 1.82 106 1.85 229 1.96 222 2.02 135 2.03 181 2.05
  17  0.501  0.504  0.759-  70 1.81 116 1.88 182 1.95 196 1.98 230 2.03 136 2.08
  18  0.996  0.258  0.002- 117 1.82 110 1.88 141 1.96 146 1.97 183 2.01 212 2.02
  19  0.998  0.248  0.491-  74 1.78 213 1.92 202 1.93 184 1.95 223 1.96 142 2.01
  20  0.999  0.758  0.006- 118 1.80  71 1.88 203 1.95 185 1.98 148 2.04 214 2.06
  21  0.997  0.757  0.506- 119 1.83  72 1.84 204 1.95 186 2.00 147 2.02 215 2.04
  22  0.496  0.258  0.002- 120 1.80 109 1.85 150 1.96 143 1.98 187 2.03 216 2.07
  23  0.510  0.242  0.497- 112 1.79  93 1.85 144 1.95 149 1.96 199 2.04 224 2.06
  24  0.508  0.755  0.999-  94 1.83 121 1.84 152 1.94 145 1.99 217 2.01 200 2.04
  25  0.509  0.752  0.508-  73 1.79  95 1.84 225 1.96 218 1.96 201 2.05 151 2.10
  26  1.000  0.258  0.255- 122 1.80  74 1.88 209 1.95 188 1.97 141 1.99 219 2.03
  27  0.007  0.243  0.748- 113 1.81  96 1.83 142 1.96 146 1.97 210 2.04 226 2.05
  28  0.006  0.747  0.243-  71 1.81  97 1.87 220 1.94 227 1.98 211 2.04 147 2.05
  29  0.994  0.751  0.742- 111 1.83  72 1.85 228 1.93 221 1.97 189 2.03 148 2.03
  30  0.508  0.240  0.253- 114 1.83  98 1.83 143 1.94 149 1.95 229 2.03 205 2.04
  31  0.507  0.243  0.750-  99 1.84 115 1.84 150 1.94 144 1.96 206 2.02 230 2.03
  32  0.507  0.750  0.252- 100 1.79 231 1.94 151 1.94 222 1.94 145 1.94 207 2.02
  33  0.503  0.742  0.744- 116 1.81  73 1.85 190 1.94 208 1.98 152 2.04 232 2.05
  34  0.258  0.998  0.004- 101 1.85  75 1.85 246 1.94 233 1.96 157 2.02 171 2.02
  35  0.252  0.998  0.511-  76 1.80 128 1.90 191 1.93 172 1.96 234 1.98 156 2.12
  36  0.244  0.508  0.997- 123 1.83  89 1.84 159 1.94 153 1.98 192 2.02 245 2.04
  37  0.256  0.496  0.506-  77 1.86 102 1.87 127 1.88 158 2.04 173 2.05 235 2.08
  38  0.757  1.000  0.994- 103 1.80  81 1.87 236 1.96 249 1.96 154 2.04 174 2.07
  39  0.749  0.009  0.495- 124 1.83  80 1.85 175 1.93 193 1.97 155 2.00 250 2.08
  40  0.741  0.501  0.005-  90 1.80  78 1.88 237 1.96 247 1.96 161 2.03 194 2.06
  41  0.756  0.499  0.505-  79 1.85 104 1.86 248 1.96 238 2.00 176 2.02 160 2.03
  42  0.244  0.005  0.240-  75 1.81  91 1.83 239 1.92 252 2.01 156 2.08 195 2.08
  43  0.259  0.998  0.748- 105 1.81  76 1.87 253 1.93 240 1.96 157 2.00 177 2.03
  44  0.255  0.490  0.251- 129 1.82 106 1.83 158 1.93 153 1.97 178 2.05 241 2.05
  45  0.247  0.507  0.741-  77 1.79 125 1.84 179 1.95 196 1.98 251 2.02 159 2.07
  46  0.745  0.002  0.256-  80 1.84  92 1.85 256 1.96 242 1.96 154 2.01 197 2.02
  47  0.748  0.007  0.756-  81 1.82 126 1.83 180 1.94 198 1.97 257 2.05 155 2.05
  48  0.755  0.497  0.242-  78 1.81 107 1.86 243 1.96 254 1.96 181 2.02 160 2.05
  49  0.758  0.498  0.742- 108 1.83  79 1.83 255 1.93 244 1.98 182 2.04 161 2.05
  50  0.257  0.252  0.006- 109 1.83  82 1.86 245 1.94 233 1.98 168 2.02 183 2.06
  51  0.254  0.258  0.505- 127 1.80  83 1.85 199 1.95 184 2.02 167 2.03 234 2.10
  52  0.254  0.743  0.994- 123 1.81  86 1.83 200 1.94 185 1.97 246 2.04 162 2.06
  53  0.253  0.756  0.495-  85 1.87 128 1.87 201 1.96 186 1.98 235 1.99 163 2.00   1 2.83
  54  0.757  0.252  0.008- 110 1.81  84 1.86 236 1.94 247 1.95 187 2.04 170 2.04
  55  0.741  0.244  0.498-  93 1.81 124 1.84 169 1.95 164 1.97 248 2.04 202 2.09
  56  0.743  0.748  0.993-  94 1.83  88 1.84 237 1.95 249 1.95 203 2.03 165 2.05
  57  0.742  0.754  0.494-  95 1.83  87 1.86 250 1.94 238 1.98 166 2.01 204 2.06
  58  0.250  0.257  0.243- 129 1.82  82 1.82 205 1.97 188 2.00 167 2.04 239 2.04
  59  0.244  0.252  0.744-  83 1.84  96 1.84 251 1.94 240 1.98 168 2.04 206 2.04
  60  0.243  0.745  0.255-  97 1.80  85 1.89 241 1.91 162 1.99 252 2.02 207 2.08
  61  0.249  0.743  0.758- 125 1.81  86 1.84 189 1.94 208 1.98 253 2.04 163 2.07
  62  0.741  0.250  0.243-  84 1.80  98 1.83 254 1.94 242 1.95 169 2.06 209 2.06
  63  0.744  0.243  0.751- 126 1.82  99 1.84 170 1.95 164 2.00 210 2.02 255 2.05
  64  0.746  0.749  0.258-  87 1.81 100 1.90 243 1.94 256 1.95 211 1.99 165 2.03
  65  0.759  0.750  0.756- 111 1.82  88 1.84 257 1.93 244 1.97 190 2.04 166 2.06
  66  0.012  0.504  0.624-  13 1.83   5 1.83
  67  1.000  0.005  0.376-   3 1.83  10 1.85
  68  0.005  0.002  0.873-  11 1.80   2 1.88
  69  0.496  0.489  0.375-  16 1.82   9 1.87
  70  0.491  0.494  0.875-  17 1.81   8 1.88
  71  0.007  0.744  0.126-  28 1.81  20 1.88
  72  0.010  0.746  0.624-  21 1.84  29 1.85
  73  0.512  0.751  0.624-  25 1.79  33 1.85
  74  0.991  0.248  0.376-  19 1.78  26 1.88
  75  0.260  0.005  0.124-  42 1.81  34 1.85
  76  0.259  0.006  0.627-  35 1.80  43 1.87
  77  0.236  0.499  0.625-  45 1.79  37 1.86
  78  0.747  0.488  0.125-  48 1.81  40 1.88
  79  0.744  0.491  0.624-  49 1.83  41 1.85
  80  0.749  0.003  0.375-  46 1.84  39 1.85
  81  0.743  0.002  0.874-  47 1.82  38 1.87
  82  0.242  0.247  0.126-  58 1.82  50 1.86
  83  0.249  0.247  0.625-  59 1.84  51 1.85
  84  0.738  0.262  0.127-  62 1.80  54 1.86
  85  0.266  0.757  0.374-  53 1.87  60 1.89   1 2.03
  86  0.261  0.754  0.875-  52 1.83  61 1.84
  87  0.759  0.748  0.374-  64 1.81  57 1.86
  88  0.758  0.748  0.875-  56 1.84  65 1.84
  89  0.125  0.509  0.991-  36 1.84   4 1.84
  90  0.626  0.511  0.996-  40 1.80   8 1.89
  91  0.126  0.010  0.248-  42 1.83  10 1.85
  92  0.625  0.009  0.245-  14 1.83  46 1.85
  93  0.626  0.269  0.490-  55 1.81  23 1.85
  94  0.625  0.737  0.993-  56 1.83  24 1.83
  95  0.625  0.769  0.488-  57 1.83  25 1.84
  96  0.125  0.253  0.753-  27 1.83  59 1.84
  97  0.126  0.745  0.261-  60 1.80  28 1.87
  98  0.625  0.237  0.265-  30 1.83  62 1.83
  99  0.626  0.254  0.752-  63 1.84  31 1.84
 100  0.623  0.747  0.259-  32 1.79  64 1.90
 101  0.376  0.994  0.988-  34 1.85   6 1.85
 102  0.375  0.514  0.507-   9 1.82  37 1.87
 103  0.874  0.996  0.997-  38 1.80   2 1.89
 104  0.876  0.514  0.504-   5 1.84  41 1.86
 105  0.375  0.998  0.766-  43 1.81  15 1.83
 106  0.373  0.488  0.245-  44 1.83  16 1.85
 107  0.876  0.491  0.249-  12 1.82  48 1.86
 108  0.876  0.511  0.742-  13 1.82  49 1.83
 109  0.376  0.253  0.008-  50 1.83  22 1.85
 110  0.875  0.254  0.010-  54 1.81  18 1.88
 111  0.875  0.742  0.741-  65 1.82  29 1.83
 112  0.521  0.127  0.489-  23 1.79   7 1.90
 113  0.998  0.126  0.745-  27 1.81  11 1.84
 114  0.488  0.124  0.266-  30 1.83  14 1.83
 115  0.503  0.124  0.753-  15 1.84  31 1.84
 116  0.504  0.625  0.752-  33 1.81  17 1.88
 117  0.006  0.376  0.005-  18 1.82   4 1.86
 118  0.008  0.874  0.002-  20 1.80   2 1.88
 119  0.983  0.875  0.499-   3 1.81  21 1.83
 120  0.507  0.374  0.011-  22 1.80   8 1.88
 121  0.509  0.874  0.007-  24 1.84   6 1.85
 122  0.013  0.374  0.247-  26 1.80  12 1.86
 123  0.261  0.626  0.002-  52 1.81  36 1.83
 124  0.732  0.126  0.506-  39 1.83  55 1.84
 125  0.246  0.626  0.752-  61 1.81  45 1.84
 126  0.750  0.125  0.742-  63 1.82  47 1.83
 127  0.262  0.374  0.497-  51 1.80  37 1.88
 128  0.270  0.877  0.497-  53 1.87  35 1.90   1 2.03
 129  0.235  0.373  0.255-  58 1.82  44 1.82
 130  0.998  0.003  0.127-  10 2.00   2 2.04
 131  0.001  0.999  0.623-   3 2.00  11 2.07
 132  0.004  0.510  0.125-  12 1.97   4 1.99
 133  0.487  0.011  0.126-  14 1.95   6 1.97
 134  0.488  0.996  0.628-  15 1.92   7 2.01
 135  0.504  0.511  0.128-  16 2.03   8 2.04
 136  0.511  0.503  0.624-   9 2.01  17 2.08
 137  1.000  0.495  0.376-  12 1.93   5 2.03
 138  0.991  0.497  0.873-   4 1.93  13 2.03
 139  0.507  0.978  0.372-  14 1.92   7 2.02
 140  0.521  0.996  0.876-   6 1.95  15 1.95
 141  0.013  0.244  0.127-  18 1.96  26 1.99
 142  0.004  0.257  0.622-  27 1.96  19 2.01
 143  0.512  0.233  0.127-  30 1.94  22 1.98
 144  0.501  0.245  0.623-  23 1.95  31 1.96
 145  0.506  0.738  0.127-  32 1.94  24 1.99
 146  0.991  0.252  0.875-  18 1.97  27 1.97
 147  0.989  0.752  0.375-  21 2.02  28 2.05
 148  0.993  0.752  0.874-  29 2.03  20 2.04
 149  0.488  0.268  0.374-  30 1.95  23 1.96
 150  0.496  0.257  0.875-  31 1.94  22 1.96
 151  0.484  0.760  0.375-  32 1.94  25 2.10
 152  0.488  0.754  0.874-  24 1.94  33 2.04
 153  0.240  0.496  0.125-  44 1.97  36 1.98
 154  0.753  0.999  0.126-  46 2.01  38 2.04
 155  0.754  0.993  0.624-  39 2.00  47 2.05
 156  0.251  0.991  0.374-   1 1.94  42 2.08  35 2.12
 157  0.237  0.991  0.875-  43 2.00  34 2.02
 158  0.252  0.510  0.375-  44 1.93  37 2.04
 159  0.263  0.497  0.873-  36 1.94  45 2.07
 160  0.750  0.509  0.375-  41 2.03  48 2.05
 161  0.756  0.510  0.874-  40 2.03  49 2.05
 162  0.243  0.754  0.126-  60 1.99  52 2.06
 163  0.241  0.752  0.624-  53 2.00  61 2.07
 164  0.749  0.264  0.623-  55 1.97  63 2.00
 165  0.744  0.751  0.126-  64 2.03  56 2.05
 166  0.740  0.753  0.624-  57 2.01  65 2.06
 167  0.257  0.245  0.374-  51 2.03  58 2.04
 168  0.256  0.254  0.875-  50 2.02  59 2.04
 169  0.766  0.241  0.374-  55 1.95  62 2.06
 170  0.757  0.241  0.877-  63 1.95  54 2.04
 171  0.127  0.007  0.006-  34 2.02   2 2.03
 172  0.126  0.985  0.502-  35 1.96   3 1.97
 173  0.124  0.490  0.489-   5 2.03  37 2.05
 174  0.625  0.007  0.013-   6 2.02  38 2.07
 175  0.629  0.974  0.506-  39 1.93   7 2.02
 176  0.626  0.486  0.495-  41 2.02   9 2.08
 177  0.127  1.000  0.743-  11 1.95  43 2.03
 178  0.124  0.513  0.253-  12 2.03  44 2.05
 179  0.124  0.492  0.766-  45 1.95  13 2.06
 180  0.624  0.993  0.737-  47 1.94  15 2.04
 181  0.625  0.505  0.253-  48 2.02  16 2.05
 182  0.627  0.491  0.759-  17 1.95  49 2.04
 183  0.125  0.245  0.991-  18 2.01  50 2.06
 184  0.124  0.262  0.494-  19 1.95  51 2.02
 185  0.126  0.739  0.992-  52 1.97  20 1.98
 186  0.125  0.766  0.488-  53 1.98  21 2.00
 187  0.626  0.244  0.991-  22 2.03  54 2.04
 188  0.125  0.231  0.261-  26 1.97  58 2.00
 189  0.124  0.757  0.760-  61 1.94  29 2.03
 190  0.627  0.756  0.761-  33 1.94  65 2.04
 191  0.372  0.021  0.488-  35 1.93   7 2.02
 192  0.373  0.490  0.011-  36 2.02   8 2.04
 193  0.875  0.021  0.504-   3 1.96  39 1.97
 194  0.875  0.493  0.003-   4 2.03  40 2.06
 195  0.376  0.986  0.262-  14 2.06  42 2.08
 196  0.375  0.502  0.737-  45 1.98  17 1.98
 197  0.875  0.993  0.249-  46 2.02  10 2.04
 198  0.875  0.996  0.748-  47 1.97  11 1.98
 199  0.378  0.232  0.501-  51 1.95  23 2.04
 200  0.376  0.762  0.012-  52 1.94  24 2.04
 201  0.377  0.733  0.511-  53 1.96  25 2.05
 202  0.875  0.235  0.509-  19 1.93  55 2.09
 203  0.873  0.761  0.009-  20 1.95  56 2.03
 204  0.873  0.733  0.510-  21 1.95  57 2.06
 205  0.378  0.263  0.241-  58 1.97  30 2.04
 206  0.376  0.248  0.749-  31 2.02  59 2.04
 207  0.377  0.755  0.240-  32 2.02  60 2.08
 208  0.375  0.752  0.738-  61 1.98  33 1.98
 209  0.874  0.263  0.240-  26 1.95  62 2.06
 210  0.875  0.253  0.744-  63 2.02  27 2.04
 211  0.874  0.753  0.242-  64 1.99  28 2.04
 212  0.998  0.127  0.001-  18 2.02   2 2.03
 213  0.015  0.126  0.507-  19 1.92   3 2.10
 214  0.988  0.626  0.994-   4 2.02  20 2.06
 215  0.015  0.628  0.491-   5 1.94  21 2.04
 216  0.499  0.124  0.993-   6 2.02  22 2.07
 217  0.484  0.627  0.996-  24 2.01   8 2.05
 218  0.516  0.626  0.492-  25 1.96   9 2.02
 219  0.985  0.128  0.247-  10 1.95  26 2.03
 220  0.992  0.623  0.259-  28 1.94  12 2.02
 221  0.014  0.625  0.757-  13 1.97  29 1.97
 222  0.493  0.625  0.261-  32 1.94  16 2.02
 223  0.988  0.374  0.500-  19 1.96   5 2.01
 224  0.483  0.372  0.510-   9 1.95  23 2.06
 225  0.477  0.875  0.501-  25 1.96   7 2.05
 226  0.994  0.375  0.749-  13 1.93  27 2.05
 227  0.004  0.876  0.250-  10 1.98  28 1.98
 228  0.998  0.876  0.746-  29 1.93  11 2.05
 229  0.511  0.371  0.236-  16 1.96  30 2.03
 230  0.495  0.374  0.742-  17 2.03  31 2.03
 231  0.503  0.874  0.236-  32 1.94  14 2.08
 232  0.500  0.874  0.753-  15 2.02  33 2.05
 233  0.252  0.124  0.990-  34 1.96  50 1.98
 234  0.233  0.124  0.494-  35 1.98  51 2.10
 235  0.236  0.629  0.500-  53 1.99  37 2.08
 236  0.750  0.126  0.008-  54 1.94  38 1.96
 237  0.766  0.625  0.009-  56 1.95  40 1.96
 238  0.734  0.626  0.505-  57 1.98  41 2.00
 239  0.267  0.126  0.256-  42 1.92  58 2.04
 240  0.250  0.125  0.761-  43 1.96  59 1.98
 241  0.258  0.623  0.244-  60 1.91  44 2.05
 242  0.766  0.126  0.243-  62 1.95  46 1.96
 243  0.754  0.624  0.243-  64 1.94  48 1.96
 244  0.737  0.625  0.743-  65 1.97  49 1.98
 245  0.243  0.376  0.999-  50 1.94  36 2.04
 246  0.240  0.874  0.006-  34 1.94  52 2.04
 247  0.743  0.375  0.984-  54 1.95  40 1.96
 248  0.769  0.373  0.488-  41 1.96  55 2.04
 249  0.738  0.874  0.003-  56 1.95  38 1.96
 250  0.772  0.876  0.499-  57 1.94  39 2.08
 251  0.256  0.377  0.752-  59 1.94  45 2.02
 252  0.251  0.876  0.253-  42 2.01  60 2.02   1 2.05
 253  0.248  0.874  0.744-  43 1.93  61 2.04
 254  0.740  0.374  0.268-  62 1.94  48 1.96
 255  0.758  0.374  0.762-  49 1.93  63 2.05
 256  0.747  0.875  0.248-  64 1.95  46 1.96
 257  0.753  0.875  0.748-  65 1.93  47 2.05
 

IMPORTANT INFORMATION: All symmetrisations will be switched off!
NOSYMM: (Re-)initialisation of all symmetry stuff for point group C_1.

 
 
 KPOINTS: Title                                   

Automatic generation of k-mesh.
Space group operators:
 irot       det(A)        alpha          n_x          n_y          n_z        tau_x        tau_y        tau_z
    1     1.000000     0.000001     1.000000     0.000000     0.000000     0.000000     0.000000     0.000000
 
 Subroutine IBZKPT returns following result:
 ===========================================
 
 Found      4 irreducible k-points:
 
 Following reciprocal coordinates:
            Coordinates               Weight
  0.250000  0.250000  0.250000      2.000000
 -0.250000  0.250000  0.250000      2.000000
  0.250000 -0.250000  0.250000      2.000000
 -0.250000 -0.250000  0.250000      2.000000
 
 Following cartesian coordinates:
            Coordinates               Weight
  0.016206  0.016206  0.016206      2.000000
 -0.016206  0.016206  0.016206      2.000000
  0.016206 -0.016206  0.016206      2.000000
 -0.016206 -0.016206  0.016206      2.000000
 


--------------------------------------------------------------------------------------------------------




 Dimension of arrays:
   k-points           NKPTS =      4   k-points in BZ     NKDIM =      4   number of bands    NBANDS=   1164
   number of dos      NEDOS =   3001   number of ions     NIONS =    257
   non local maximal  LDIM  =      6   non local SUM 2l+1 LMDIM =     18
   total plane-waves  NPLWV = ******
   max r-space proj   IRMAX =   7595   max aug-charges    IRDMAX= 146383
   dimension x,y,z NGX =   120 NGY =  120 NGZ =  120
   dimension x,y,z NGXF=   240 NGYF=  240 NGZF=  240
   support grid    NGXF=   480 NGYF=  480 NGZF=  480
   ions per type =               1  64  64 128
   NGX,Y,Z   is equivalent  to a cutoff of  12.93, 12.93, 12.93 a.u.
   NGXF,Y,Z  is equivalent  to a cutoff of  25.86, 25.86, 25.86 a.u.

 SYSTEM =  LTO                                     
 POSCAR =  config 30                               

 Startparameter for this run:
   NWRITE =      2    write-flag & timer
   PREC   = accura    normal or accurate (medium, high low for compatibility)
   ISTART =      1    job   : 0-new  1-cont  2-samecut
   ICHARG =      0    charge: 1-file 2-atom 10-const
   ISPIN  =      2    spin polarized calculation?
   LNONCOLLINEAR =      F non collinear calculations
   LSORBIT =      F    spin-orbit coupling
   INIWAV =      1    electr: 0-lowe 1-rand  2-diag
   LASPH  =      T    aspherical Exc in radial PAW
   METAGGA=      F    non-selfconsistent MetaGGA calc.

 Electronic Relaxation 1
   ENCUT  =  500.0 eV  36.75 Ry    6.06 a.u.  28.13 28.13 28.13*2*pi/ulx,y,z
   ENINI  =  500.0     initial cutoff
   ENAUG  =  628.9 eV  augmentation charge cutoff
   NELM   =     60;   NELMIN=  2; NELMDL=  0     # of ELM steps 
   EDIFF  = 0.1E-05   stopping-criterion for ELM
   LREAL  =      T    real-space projection
   NLSPLINE    = F    spline interpolate recip. space projectors
   LCOMPAT=      F    compatible to vasp.4.4
   GGA_COMPAT  = T    GGA compatible to vasp.4.4-vasp.4.6
   LMAXPAW     = -100 max onsite density
   LMAXMIX     =    4 max onsite mixed and CHGCAR
   VOSKOWN=      0    Vosko Wilk Nusair interpolation
   ROPT   =   -0.00010  -0.00010  -0.00010  -0.00010
 Ionic relaxation
   EDIFFG = -.5E-01   stopping-criterion for IOM
   NSW    =    100    number of steps for IOM
   NBLOCK =      1;   KBLOCK =    100    inner block; outer block 
   IBRION =      1    ionic relax: 0-MD 1-quasi-New 2-CG
   NFREE  =      0    steps in history (QN), initial steepest desc. (CG)
   ISIF   =      2    stress and relaxation
   IWAVPR =     11    prediction:  0-non 1-charg 2-wave 3-comb
   ISYM   =      0    0-nonsym 1-usesym 2-fastsym
   LCORR  =      T    Harris-Foulkes like correction to forces

   POTIM  = 0.5000    time-step for ionic-motion
   TEIN   =    0.0    initial temperature
   TEBEG  =    0.0;   TEEND  =   0.0 temperature during run
   SMASS  =  -3.00    Nose mass-parameter (am)
   estimated Nose-frequenzy (Omega)   =  0.10E-29 period in steps =****** mass=  -0.544E-26a.u.
   SCALEE = 1.0000    scale energy and forces
   NPACO  =    256;   APACO  = 16.0  distance and # of slots for P.C.
   PSTRESS=    0.0 pullay stress

  Mass of Ions in am
   POMASS =   7.01 47.88 16.00 19.00
  Ionic Valenz
   ZVAL   =   3.00 10.00  6.00  7.00
  Atomic Wigner-Seitz radii
   RWIGS  =  -1.00 -1.00 -1.00 -1.00
  virtual crystal weights 
   VCA    =   1.00  1.00  1.00  1.00
   NELECT =    1923.0000    total number of electrons
   NUPDOWN=       1.0000    fix difference up-down

 DOS related values:
   EMIN   =  10.00;   EMAX   =-10.00  energy-range for DOS
   EFERMI =   0.00
   ISMEAR =     0;   SIGMA  =   0.01  broadening in eV -4-tet -1-fermi 0-gaus

 Electronic relaxation 2 (details)
   IALGO  =     38    algorithm
   LDIAG  =      T    sub-space diagonalisation (order eigenvalues)
   LSUBROT=      F    optimize rotation matrix (better conditioning)
   TURBO    =      0    0=normal 1=particle mesh
   IRESTART =      0    0=no restart 2=restart with 2 vectors
   NREBOOT  =      0    no. of reboots
   NMIN     =      0    reboot dimension
   EREF     =   0.00    reference energy to select bands
   IMIX   =      4    mixing-type and parameters
     AMIX     =   0.40;   BMIX     =  1.00
     AMIX_MAG =   1.60;   BMIX_MAG =  1.00
     AMIN     =   0.10
     WC   =   100.;   INIMIX=   1;  MIXPRE=   1;  MAXMIX= -45

 Intra band minimization:
   WEIMIN = 0.0010     energy-eigenvalue tresh-hold
   EBREAK =  0.21E-09  absolut break condition
   DEPER  =   0.30     relativ break condition  

   TIME   =   0.40     timestep for ELM

  volume/ion in A,a.u.               =      14.28        96.39
  Fermi-wavevector in a.u.,A,eV,Ry     =   1.319690  2.493853 23.695660  1.741582
  Thomas-Fermi vector in A             =   2.449570
 
 Write flags
   LWAVE        =      T    write WAVECAR
   LDOWNSAMPLE  =      F    k-point downsampling of WAVECAR
   LCHARG       =      T    write CHGCAR
   LVTOT        =      F    write LOCPOT, total local potential
   LVHAR        =      F    write LOCPOT, Hartree potential only
   LELF         =      F    write electronic localiz. function (ELF)
   LORBIT       =     11    0 simple, 1 ext, 2 COOP (PROOUT), +10 PAW based schemes


 Dipole corrections
   LMONO  =      F    monopole corrections only (constant potential shift)
   LDIPOL =      F    correct potential (dipole corrections)
   IDIPOL =      0    1-x, 2-y, 3-z, 4-all directions 
   EPSILON=  1.0000000 bulk dielectric constant

 LDA+U is selected, type is set to LDAUTYPE =  2
   angular momentum for each species LDAUL =    -1    2   -1   -1
   U (eV)           for each species LDAUU =   0.0  4.2  0.0  0.0
   J (eV)           for each species LDAUJ =   0.0  0.0  0.0  0.0
 Exchange correlation treatment:
   GGA     =    PS    GGA type
   LEXCH   =    14    internal setting for exchange type
   VOSKOWN=      0    Vosko Wilk Nusair interpolation
   LHFCALC =     F    Hartree Fock is set to
   LHFONE  =     F    Hartree Fock one center treatment
   AEXX    =    0.0000 exact exchange contribution

 Linear response parameters
   LEPSILON=     F    determine dielectric tensor
   LRPA    =     F    only Hartree local field effects (RPA)
   LNABLA  =     F    use nabla operator in PAW spheres
   LVEL    =     F    velocity operator in full k-point grid
   LINTERFAST=   F  fast interpolation
   KINTER  =     0    interpolate to denser k-point grid
   CSHIFT  =0.1000    complex shift for real part using Kramers Kronig
   OMEGAMAX=  -1.0    maximum frequency
   DEG_THRESHOLD= 0.2000000E-02 threshold for treating states as degnerate
   RTIME   =   -0.100 relaxation time in fs
  (WPLASMAI=    0.000 imaginary part of plasma frequency in eV, 0.658/RTIME)
   DFIELD  = 0.0000000 0.0000000 0.0000000 field for delta impulse in time
 
 Orbital magnetization related:
   ORBITALMAG=     F  switch on orbital magnetization
   LCHIMAG   =     F  perturbation theory with respect to B field
   DQ        =  0.001000  dq finite difference perturbation B field
   LLRAUG    =     F  two centre corrections for induced B field



--------------------------------------------------------------------------------------------------------


 quasi-Newton-method for relaxation of ions
 charge density and potential will be updated during run
 spin polarized calculation
 Variant of blocked Davidson
 Davidson routine will perform the subspace rotation
 perform sub-space diagonalisation
    after iterative eigenvector-optimisation
 modified Broyden-mixing scheme, WC =      100.0
 initial mixing is a Kerker type mixing with AMIX =  0.4000 and BMIX =      1.0000
 Hartree-type preconditioning will be used
 using additional bands          202
 real space projection scheme for non local part
 use partial core corrections
 calculate Harris-corrections to forces 
   (improved forces if not selfconsistent)
 use gradient corrections 
 use of overlap-Matrix (Vanderbilt PP)
 Gauss-broadening in eV      SIGMA  =   0.01


--------------------------------------------------------------------------------------------------------


  energy-cutoff  :      500.00
  volume of cell :     3671.03
      direct lattice vectors                 reciprocal lattice vectors
    15.426331000  0.000000000  0.000000000     0.064824228  0.000000000  0.000000000
     0.000000000 15.426331000  0.000000000     0.000000000  0.064824228  0.000000000
     0.000000000  0.000000000 15.426331000     0.000000000  0.000000000  0.064824228

  length of vectors
    15.426331000 15.426331000 15.426331000     0.064824228  0.064824228  0.064824228


 
 old parameters found on file WAVECAR:
  energy-cutoff  :      500.00
  volume of cell :     3671.03
      direct lattice vectors                 reciprocal lattice vectors
    15.426331000  0.000000000  0.000000000     0.064824228  0.000000000  0.000000000
     0.000000000 15.426331000  0.000000000     0.000000000  0.064824228  0.000000000
     0.000000000  0.000000000 15.426331000     0.000000000  0.000000000  0.064824228

  length of vectors

 
 k-points in units of 2pi/SCALE and weight: Title                                   
   0.01620606  0.01620606  0.01620606       0.250
  -0.01620606  0.01620606  0.01620606       0.250
   0.01620606 -0.01620606  0.01620606       0.250
  -0.01620606 -0.01620606  0.01620606       0.250
 
 k-points in reciprocal lattice and weights: Title                                   
   0.25000000  0.25000000  0.25000000       0.250
  -0.25000000  0.25000000  0.25000000       0.250
   0.25000000 -0.25000000  0.25000000       0.250
  -0.25000000 -0.25000000  0.25000000       0.250
 
 position of ions in fractional coordinates (direct lattice) 
   0.31008429  0.88058648  0.37236989
   0.99614144  0.99516514  0.99451000
   0.99840581  0.99168054  0.49396479
   0.00615821  0.49596503  0.99714920
   0.99457674  0.50431058  0.50724317
   0.49521540  0.99292449  0.99983412
   0.50223415  0.00588060  0.49920994
   0.50405690  0.49496712  0.99636029
   0.49183081  0.49744664  0.49575547
   0.00622635  0.00349371  0.25598005
   0.00227134  0.00789438  0.75704730
   0.99387132  0.49257415  0.25096911
   0.99314309  0.50002172  0.74123030
   0.50665663  0.00791489  0.25085906
   0.49313273  0.00507823  0.75246598
   0.49262882  0.49431015  0.25731001
   0.50106691  0.50377126  0.75873855
   0.99581651  0.25806341  0.00211564
   0.99819693  0.24839646  0.49142050
   0.99930375  0.75806955  0.00582609
   0.99701074  0.75739927  0.50574368
   0.49552217  0.25786787  0.00201740
   0.50952238  0.24246132  0.49722728
   0.50775460  0.75503315  0.99852027
   0.50866584  0.75231329  0.50834386
   0.99977961  0.25833767  0.25529409
   0.00671111  0.24304085  0.74789660
   0.00644496  0.74749642  0.24329717
   0.99360015  0.75067184  0.74209480
   0.50754213  0.23989973  0.25254815
   0.50714150  0.24309554  0.75030948
   0.50716440  0.74972442  0.25181776
   0.50290911  0.74190431  0.74366729
   0.25754251  0.99786266  0.00417427
   0.25191600  0.99761589  0.51109477
   0.24399743  0.50822852  0.99691240
   0.25552843  0.49554197  0.50641396
   0.75720690  0.99994331  0.99414562
   0.74868239  0.00889934  0.49511216
   0.74149369  0.50058091  0.00458191
   0.75620816  0.49875972  0.50545946
   0.24415157  0.00549007  0.24025948
   0.25907907  0.99835986  0.74795870
   0.25487269  0.48991778  0.25115270
   0.24678108  0.50687631  0.74064752
   0.74481249  0.00167625  0.25599040
   0.74788460  0.00711928  0.75596907
   0.75534179  0.49732118  0.24221505
   0.75752282  0.49825231  0.74208585
   0.25723666  0.25154204  0.00590472
   0.25397058  0.25793285  0.50528378
   0.25357204  0.74257188  0.99350255
   0.25331646  0.75638406  0.49500676
   0.75710393  0.25193756  0.00836357
   0.74061909  0.24424723  0.49752453
   0.74254110  0.74838609  0.99343992
   0.74207550  0.75378695  0.49372031
   0.25035150  0.25716011  0.24313167
   0.24405434  0.25180380  0.74359301
   0.24300774  0.74511398  0.25498915
   0.24881666  0.74251528  0.75758376
   0.74132686  0.25041436  0.24306310
   0.74448709  0.24251175  0.75107114
   0.74596960  0.74922802  0.25757626
   0.75854472  0.75006280  0.75626330
   0.01217792  0.50382470  0.62444677
   0.99952280  0.00478907  0.37586099
   0.00451395  0.00155908  0.87324099
   0.49612215  0.48904930  0.37516407
   0.49128766  0.49421416  0.87495676
   0.00747988  0.74429831  0.12631328
   0.00973689  0.74619838  0.62356046
   0.51182484  0.75076944  0.62447687
   0.99104749  0.24821281  0.37623330
   0.25951721  0.00479426  0.12405353
   0.25906061  0.00570101  0.62725514
   0.23630000  0.49934809  0.62515425
   0.74693484  0.48784774  0.12536298
   0.74401635  0.49062992  0.62419198
   0.74948028  0.00335599  0.37513038
   0.74266154  0.00221587  0.87397187
   0.24160907  0.24691920  0.12561425
   0.24896938  0.24682178  0.62472386
   0.73812833  0.26236055  0.12671787
   0.26597035  0.75672252  0.37447387
   0.26070760  0.75441735  0.87547709
   0.75905923  0.74782454  0.37431905
   0.75801963  0.74788034  0.87549254
   0.12480309  0.50935110  0.99059006
   0.62555411  0.51129581  0.99570606
   0.12574393  0.00950035  0.24781242
   0.62532738  0.00880805  0.24524560
   0.62630777  0.26917668  0.49041996
   0.62477501  0.73651588  0.99339237
   0.62487666  0.76940525  0.48781343
   0.12495631  0.25296779  0.75316808
   0.12615131  0.74466147  0.26079543
   0.62539035  0.23675572  0.26460978
   0.62590731  0.25426335  0.75202955
   0.62287123  0.74734039  0.25926046
   0.37600603  0.99356685  0.98757455
   0.37547983  0.51388465  0.50694253
   0.87354068  0.99576203  0.99656821
   0.87590985  0.51367489  0.50351434
   0.37528718  0.99796611  0.76615446
   0.37341968  0.48833002  0.24534911
   0.87564748  0.49060341  0.24860877
   0.87565666  0.51072941  0.74212888
   0.37571284  0.25262996  0.00822335
   0.87450089  0.25419297  0.01016155
   0.87547722  0.74157412  0.74064497
   0.52050081  0.12728808  0.48878081
   0.99801328  0.12634423  0.74500578
   0.48758882  0.12402170  0.26606551
   0.50265881  0.12373039  0.75268430
   0.50353720  0.62521582  0.75238951
   0.00576817  0.37579133  0.00535253
   0.00801843  0.87439772  0.00242046
   0.98274846  0.87520757  0.49949753
   0.50730397  0.37382566  0.01099326
   0.50919587  0.87414495  0.00734196
   0.01340192  0.37371921  0.24657142
   0.26131225  0.62550320  0.00173584
   0.73155848  0.12573930  0.50594728
   0.24555622  0.62559129  0.75150434
   0.74974678  0.12499689  0.74178324
   0.26226083  0.37415001  0.49656464
   0.26962358  0.87677683  0.49737560
   0.23539092  0.37338871  0.25542239
   0.99776948  0.00262774  0.12668352
   0.00132677  0.99867636  0.62346669
   0.00427492  0.51034821  0.12509172
   0.48696993  0.01051809  0.12619852
   0.48818721  0.99649158  0.62819929
   0.50405118  0.51121470  0.12756366
   0.51148838  0.50305323  0.62433073
   0.99954358  0.49474149  0.37605291
   0.99142395  0.49655974  0.87272462
   0.50732598  0.97841502  0.37150278
   0.52051380  0.99566083  0.87582079
   0.01255292  0.24432350  0.12748393
   0.00408453  0.25739478  0.62152421
   0.51211768  0.23336321  0.12700310
   0.50143645  0.24477644  0.62311012
   0.50552460  0.73771153  0.12657760
   0.99149655  0.25180213  0.87467192
   0.98851494  0.75151776  0.37514759
   0.99337101  0.75217530  0.87397995
   0.48775747  0.26804928  0.37436272
   0.49573717  0.25691118  0.87494931
   0.48356812  0.75990559  0.37465757
   0.48788711  0.75371234  0.87447542
   0.24005889  0.49591452  0.12468933
   0.75349530  0.99872365  0.12610341
   0.75398337  0.99328623  0.62366637
   0.25077410  0.99133007  0.37404276
   0.23654291  0.99074443  0.87509880
   0.25162296  0.50959118  0.37494468
   0.26318237  0.49743016  0.87338967
   0.75011410  0.50904954  0.37473109
   0.75625797  0.51007935  0.87429763
   0.24334633  0.75351568  0.12630768
   0.24065550  0.75167488  0.62410748
   0.74867781  0.26371820  0.62347148
   0.74416088  0.75104407  0.12602835
   0.73988400  0.75295800  0.62424804
   0.25654032  0.24481076  0.37449414
   0.25576388  0.25400262  0.87524227
   0.76596406  0.24065391  0.37387035
   0.75715861  0.24100812  0.87654683
   0.12672456  0.00696452  0.00625052
   0.12564582  0.98512627  0.50221538
   0.12385486  0.48974738  0.48912399
   0.62477460  0.00673498  0.01256634
   0.62928401  0.97379698  0.50646866
   0.62629448  0.48589477  0.49450988
   0.12741613  0.99978798  0.74325077
   0.12417944  0.51285055  0.25291255
   0.12386362  0.49169445  0.76565673
   0.62396613  0.99341314  0.73725235
   0.62476136  0.50520234  0.25284007
   0.62683799  0.49101837  0.75925397
   0.12499075  0.24514411  0.99065746
   0.12358909  0.26174899  0.49367851
   0.12572718  0.73885021  0.99205097
   0.12537314  0.76600715  0.48802866
   0.62623239  0.24422300  0.99095541
   0.12456662  0.23079623  0.26071647
   0.12394191  0.75675054  0.76004165
   0.62652323  0.75569600  0.76095020
   0.37245831  0.02148637  0.48841327
   0.37299127  0.49018643  0.01094986
   0.87541330  0.02110141  0.50423685
   0.87488358  0.49302690  0.00293760
   0.37565987  0.98554705  0.26238142
   0.37474617  0.50164297  0.73679193
   0.87493505  0.99258362  0.24886011
   0.87477597  0.99550902  0.74820080
   0.37778343  0.23221053  0.50078722
   0.37640236  0.76243609  0.01230813
   0.37711459  0.73264051  0.51085408
   0.87537315  0.23508519  0.50918855
   0.87272936  0.76077400  0.00854112
   0.87308257  0.73264638  0.51035236
   0.37761407  0.26271715  0.24103446
   0.37612567  0.24793801  0.74860300
   0.37659230  0.75492597  0.24015406
   0.37507271  0.75216076  0.73829030
   0.87439939  0.26302414  0.24010115
   0.87473978  0.25299766  0.74369693
   0.87421601  0.75348354  0.24200593
   0.99845511  0.12688651  0.00078368
   0.01505779  0.12586951  0.50682759
   0.98846332  0.62563873  0.99361226
   0.01476376  0.62751719  0.49095184
   0.49901169  0.12385643  0.99294540
   0.48443371  0.62671901  0.99617269
   0.51599404  0.62627317  0.49202298
   0.98547188  0.12754093  0.24702179
   0.99219182  0.62324285  0.25878236
   0.01356761  0.62509180  0.75683408
   0.49330311  0.62501912  0.26083522
   0.98758002  0.37439880  0.50010525
   0.48333507  0.37240895  0.51043097
   0.47656517  0.87527929  0.50121174
   0.99416224  0.37518946  0.74908872
   0.00359810  0.87554266  0.25021181
   0.99843015  0.87574994  0.74646175
   0.51149084  0.37063322  0.23609601
   0.49491425  0.37367016  0.74179962
   0.50265084  0.87417347  0.23626672
   0.50041692  0.87425043  0.75346162
   0.25230978  0.12431520  0.98992842
   0.23306204  0.12357060  0.49422445
   0.23590347  0.62880279  0.49958859
   0.75043961  0.12608563  0.00793173
   0.76597860  0.62523591  0.00863224
   0.73398925  0.62630921  0.50463452
   0.26743038  0.12641858  0.25602605
   0.25003918  0.12455463  0.76109540
   0.25829573  0.62278638  0.24428131
   0.76649821  0.12647645  0.24257722
   0.75392392  0.62441890  0.24296371
   0.73697088  0.62498507  0.74340525
   0.24306331  0.37616096  0.99919599
   0.23959920  0.87354212  0.00554619
   0.74270473  0.37505111  0.98371783
   0.76895508  0.37336609  0.48804534
   0.73815573  0.87436844  0.00320303
   0.77206716  0.87598605  0.49929827
   0.25595092  0.37653799  0.75246439
   0.25081336  0.87576253  0.25323919
   0.24849367  0.87383588  0.74383377
   0.73963309  0.37378797  0.26841862
   0.75774732  0.37442224  0.76199734
   0.74692965  0.87505778  0.24787562
   0.75298405  0.87479694  0.74836410
 
 position of ions in cartesian coordinates  (Angst):
   4.78346285 13.58421854  5.74430114
  15.36680754 15.35174683 15.34164051
  15.40173848 15.29799230  7.62006434
   0.09499865  7.65092077 15.38235356
  15.34266999  7.77966187  7.82490102
   7.63935673 15.31718178 15.42377210
   7.74763025  0.09071602  7.70097777
   7.77574861  7.63552658 15.37018369
   7.58714485  7.67377653  7.64768795
   0.09604973  0.05389506  3.94883301
   0.03503841  0.12178131 11.67846229
  15.33178791  7.59861189  3.87153262
  15.32055405  7.71350054 11.43446401
   7.81585294  0.12209769  3.86983490
   7.60722867  0.07833849 11.60778928
   7.59945528  7.62539194  3.96934933
   7.72962404  7.77134224 11.70455207
  15.36179503  3.98097163  0.03263652
  15.39851627  3.83184604  7.58081530
  15.41559046 11.69423185  0.08987515
  15.38021766 11.68389190  7.80176945
   7.64408897  3.97795512  0.03112106
   7.86006084  3.74028855  7.67039264
   7.83279052 11.64739130 15.40350417
   7.84684766 11.60543385  7.84188071
  15.42293120  3.98520248  3.93825110
   0.10352780  3.74922866 11.53730056
   0.09942203 11.53112712  3.75318266
  15.32760483 11.58011230 11.44780000
   7.82951292  3.70077263  3.89589142
   7.82333258  3.75007219 11.57452238
   7.82368585 11.56549704  3.88462416
   7.75804242 11.44486146 11.47205780
   3.97293600 15.39335969  0.06439360
   3.88613963 15.38955293  7.88431716
   3.76398513  7.84010135 15.37870064
   3.94186607  7.64439440  7.81210930
  11.68092433 15.42545644 15.33601943
  11.54942240  0.13728416  7.63776411
  11.43852704  7.72212682  0.07068214
  11.66551739  7.69403260  7.79738497
   3.76636286  0.08469157  3.70632224
   3.99663948 15.40102968 11.53825851
   3.93175043  7.55763386  3.87436466
   3.80692668  7.81924169 11.42547385
  11.48972396  0.02585833  3.94899269
  11.53711532  0.10982443 11.66182910
  11.65215254  7.67184108  3.73648957
  11.68579775  7.68620507 11.44766194
   3.96821791  3.88037077  0.09108822
   3.91783416  3.97895756  7.79467478
   3.91168617 11.45515962 15.32609920
   3.90774349 11.66823094  7.63613813
  11.67933588  3.88647223  0.12901927
  11.42503525  3.76783869  7.67497813
  11.45468473 11.54485148 15.32513297
  11.44750222 11.62816700  7.61629297
   3.86200503  3.96703693  3.75062962
   3.76486307  3.88440870 11.47091188
   3.74871781 11.49437485  3.93354698
   3.83832817 11.45428651 11.68673791
  11.43595351  3.86297480  3.74957178
  11.48470421  3.74106659 11.58627199
  11.50757394 11.55783949  3.97345669
  11.70156193 11.57071697 11.66636794
   0.18786068  7.77216653  9.63292257
  15.41896959  0.07387781  5.79815601
   0.06963373  0.02405089 13.47090457
   7.65334453  7.54423636  5.78740520
   7.57876604  7.62391125 13.49737257
   0.11538716 11.48179205  1.94855044
   0.15020446 11.51110321  9.61925005
   7.89557940 11.58161786  9.63338697
  15.28822667  3.82901291  5.80389948
   4.00339832  0.07395778  1.91369075
   3.99635469  0.08794561  9.67624538
   3.64524209  7.70310894  9.64383644
  11.52246412  7.52570071  1.93389089
  11.47744253  7.56861953  9.62899206
  11.56173082  0.05177054  5.78688545
  11.45654269  0.03418271 13.48217938
   3.72714142  3.80905732  1.93776701
   3.84068400  3.80755452  9.63719703
  11.38661201  4.04726075  1.95479177
   4.10294673 11.67345204  5.77675782
   4.02176169 11.63789179 13.50539932
  11.70949894 11.53618891  5.77436958
  11.69346176 11.53704962 13.50563765
   1.92525376  7.85741872 15.28117015
   9.65000477  7.88741837 15.36009125
   1.93976755  0.14655549  3.82283646
   9.64650718  0.13587588  3.78323988
   9.66163102  4.15240849  7.56538066
   9.63798614 11.36173770 15.32439945
   9.63955413 11.86910008  7.52517139
   1.92761746  3.90236487 11.61862014
   1.94605180 11.48739438  4.02311665
   9.64747855  3.65227207  4.08195810
   9.65545332  3.92235054 11.60105681
   9.60861783 11.52872027  3.99943764
   5.80039347 15.32709114 15.23465197
   5.79227608  7.92735469  7.82026330
  13.47552771 15.36095466 15.37339106
  13.51207529  7.92411886  7.76737885
   5.78930433 15.39495555 11.81895231
   5.76049556  7.53314059  3.78483662
  13.50802784  7.56821058  3.83512123
  13.50816952  7.87868100 11.44832571
   5.79587070  3.89715345  0.12685610
  13.49034013  3.92126486  0.15675548
  13.50540140 11.43976786 11.42543450
   8.02941784  1.96358798  7.54009451
  15.39568313  1.94902788 11.49270571
   7.52170657  1.91319980  4.10441458
   7.75418115  1.90870588 11.61115710
   7.76773158  9.64478616 11.60660955
   0.08898177  5.79708139  0.08256989
   0.12369502 13.48874864  0.03733883
  15.16020304 13.50124160  7.70541417
   7.82583900  5.76675830  0.16958566
   7.85502402 13.48484927  0.11325946
   0.20674250  5.76511623  3.80369234
   4.03108928  9.64921948  0.02677766
  11.28526332  1.93969608  7.80491022
   3.78803159  9.65057825 11.59295464
  11.56584200  1.92824334 11.44299381
   4.04572237  5.77176187  7.66017052
   4.15930260 13.52544965  7.67268071
   3.63121828  5.76001789  3.94023027
  15.39192229  0.04053643  1.95426191
   0.02046723 15.40591214  9.61780351
   0.06594634  7.87280038  1.92970629
   7.51215927  0.16225556  1.94678008
   7.53093754 15.37220898  9.69081024
   7.77566037  7.88616712  1.96783928
   7.89038904  7.76026558  9.63113249
  15.41929006  7.63204599  5.80111660
  15.29403396  7.66009493 13.46293884
   7.82617842 15.09335389  5.73092480
   8.02961812 15.35939346 13.51070147
   0.19364545  3.76901516  1.96660929
   0.06300935  3.97065708  9.58783824
   7.90009682  3.59993818  1.95919181
   7.73532465  3.77600246  9.61230297
   7.79838973 11.38018232  1.95262798
  15.29515396  3.88438294 13.49297858
  15.24915862 11.59316175  5.78715097
  15.32406997 11.60330521 13.48230395
   7.52430815  4.13501687  5.77504321
   7.64740566  3.96319687 13.49725764
   7.45968187 11.72255517  5.77959175
   7.52630801 11.62701611 13.48994725
   3.70322792  7.65014150  1.92349893
  11.62366790 15.40664157  1.94531287
  11.63119699 15.32276214  9.62088391
   3.86852421 15.29258572  5.77010743
   3.64898930 15.28355147 13.49956367
   3.88161911  7.86112224  5.78402070
   4.05993836  7.67352228 13.47319811
  11.57150839  7.85276664  5.78072580
  11.66628579  7.86865291 13.48720467
   3.75394108 11.62398226  1.94846408
   3.71243133 11.59558558  9.62768856
  11.54935169  4.06820428  9.61787746
  11.47967207 11.58585440  1.94415503
  11.41369555 11.61537931  9.62985693
   3.95747594  3.77653184  5.77707049
   3.94549820  3.91832843 13.50177696
  11.81601511  3.71240688  5.76744783
  11.68017936  3.71787108 13.52190161
   1.95489498  0.10743696  0.09642259
   1.93825402 15.19688390  7.74734061
   1.91062610  7.55500522  7.54538857
   9.63797975  0.10389608  0.19385259
   9.70754347 15.02211459  7.81295325
   9.66142593  7.49557362  7.62847307
   1.96556347 15.42306026 11.46563235
   1.91563312  7.91140239  3.90151266
   1.91076127  7.58504139 11.81127411
   9.62550812 15.32471999 11.37309884
   9.63777559  7.79341844  3.90039465
   9.66981026  7.57461189 11.71250309
   1.92814870  3.78167424 15.28220995
   1.90652627  4.03782653  7.61564806
   1.93950906 11.39774785 15.30370662
   1.93404752 11.81667980  7.52849162
   9.66046809  3.76746491 15.28680622
   1.92160585  3.56033906  4.02189852
   1.91196900 11.67388429 11.72465411
   9.66495474 11.65761660 11.73866963
   5.74566510  0.33145580  7.53442475
   5.75388677  7.56177819  0.16891610
  13.50441538  0.32551731  7.77852451
  13.49624373  7.60559613  0.04531644
   5.79505353 15.20337502  4.04758261
   5.78095838  7.73851048 11.36599625
  13.49703773 15.31192347  3.83899836
  13.49458369 15.35705171 11.54199315
   5.82781227  3.58215654  7.72530939
   5.80650738 11.76159146  0.18986927
   5.81749450 11.30195503  7.88060411
  13.50379601  3.62650192  7.85491115
  13.46301195 11.73595162  0.13175817
  13.46846068 11.30204563  7.87286446
   5.82519966  4.05276165  3.71827744
   5.80223916  3.82477382 11.54819767
   5.80943742 11.64573787  3.70469597
   5.78599572 11.60308092 11.38911048
  13.48877447  4.05749745  3.70387982
  13.49402532  3.90282561 11.47251502
  13.48594553 11.62348645  3.73326363
  15.40249907  1.95739337  0.01208928
   0.23228646  1.94170469  7.81849009
  15.24836230  9.65131013 15.32779162
   0.22775067  9.68028789  7.57358563
   7.69791953  1.91065021 15.31750444
   7.47303482  9.66797483 15.36728964
   7.95989489  9.66109724  7.59010931
  15.20221539  1.96748856  3.81063986
  15.30587949  9.61435054  3.99206228
   0.20929844  9.64287297 11.67517301
   7.60985707  9.64175186  4.02373050
  15.23473625  5.77559978  7.71478909
   7.45608683  5.74490378  7.87407712
   7.35165202 13.50234810  7.73185823
  15.33627580  5.78779680 11.55569050
   0.05550541 13.50641086  3.85985022
  15.40211403 13.50960852 11.51516606
   7.89042706  5.71751066  3.64209527
   7.63471104  5.76435958 11.44324642
   7.75405825 13.48528930  3.64472865
   7.71959707 13.48647651 11.62314828
   3.89221414  1.91772742 15.27096351
   3.59529215  1.90624090  7.62406988
   3.63912506  9.70011992  7.70681889
  11.57652984  1.94503872  0.12235752
  11.81623944  9.64509616  0.13316375
  11.32276115  9.66165316  7.78465911
   4.12546952  1.95017485  3.94954266
   3.85718716  1.92142103 11.74090963
   3.98455543  9.60730877  3.76836442
  11.82425505  1.95106751  3.74207643
  11.63027996  9.63249268  3.74803858
  11.36875673  9.64122659 11.46801542
   3.74957511  5.80278352 15.41392801
   3.69613653 13.47554987  0.08555741
  11.45720903  5.78566257 15.17515680
  11.86215554  5.75966891  7.52874894
  11.38703459 13.48829691  0.04941102
  11.91016363 13.51325079  7.70234045
   3.94838359  5.80859972 11.60776475
   3.86912988 13.50980262  3.90655163
   3.83334553 13.48008149 11.47462592
  11.40982479  5.76617702  4.14071444
  11.68926097  5.77596148 11.75482314
  11.52238394 13.49893096  3.82381136
  11.61578123 13.49490713 11.54451229
 


--------------------------------------------------------------------------------------------------------


 k-point  1 :   0.2500 0.2500 0.2500  plane waves:   93161
 k-point  2 :  -0.2500 0.2500 0.2500  plane waves:   93161
 k-point  3 :   0.2500-0.2500 0.2500  plane waves:   93161
 k-point  4 :  -0.2500-0.2500 0.2500  plane waves:   93161

 maximum and minimum number of plane-waves per node :     11686    11606

 maximum number of plane-waves:     93161
 maximum index in each direction: 
   IXMAX=   28   IYMAX=   28   IZMAX=   27
   IXMIN=  -28   IYMIN=  -28   IZMIN=  -28


 real space projection operators:
  total allocation   :     105606.76 KBytes
  max/ min on nodes  :      13253.05      13154.92


 parallel 3D FFT for wavefunctions:
    minimum data exchange during FFTs selected (reduces bandwidth)
 parallel 3D FFT for charge:
    minimum data exchange during FFTs selected (reduces bandwidth)


 total amount of memory used by VASP MPI-rank0   291507. kBytes
=======================================================================

   base      :      30000. kBytes
   nonlr-proj:      49472. kBytes
   fftplans  :      27976. kBytes
   grid      :      34041. kBytes
   one-center:       1026. kBytes
   wavefun   :     148992. kBytes
 
     INWAV:  cpu time   51.6930: real time   52.8232
 Broyden mixing: mesh for mixing (old mesh)
   NGX = 57   NGY = 57   NGZ = 57
  (NGX  =240   NGY  =240   NGZ  =240)
  gives a total of 185193 points

 charge density for first step will be calculated from the start-wavefunctions


--------------------------------------------------------------------------------------------------------


 Maximum index for non-local projection operator          968
 Maximum index for augmentation-charges         3292 (set IRDMAX)


--------------------------------------------------------------------------------------------------------


 initial charge from wavefunction
 First call to EWALD:  gamma=   0.115
 Maximum number of real-space cells 3x 3x 3
 Maximum number of reciprocal cells 3x 3x 3

    FEWALD:  cpu time    0.0263: real time    0.0263


--------------------------------------- Iteration      1(   1)  ---------------------------------------


    POTLOK:  cpu time    0.2703: real time    0.2808
    SETDIJ:  cpu time    1.4198: real time    1.4262
     EDDAV:  cpu time  128.7144: real time  129.5219
       DOS:  cpu time    0.0030: real time    0.0030
    CHARGE:  cpu time    5.2744: real time    5.2768
    MIXING:  cpu time    0.0072: real time    0.0072
    --------------------------------------------
      LOOP:  cpu time  135.6892: real time  136.5161

 eigenvalue-minimisations  : 22932
 total energy-change (2. order) :-0.1863858E+04  (-0.3637929E+03)
 number of electron    1923.0000028 magnetization       1.0000000
 augmentation part      506.2436655 magnetization       0.5221252

 Broyden mixing:
  rms(total) = 0.93769E+01    rms(broyden)= 0.93736E+01
  rms(prec ) = 0.14365E+02
  weight for this iteration     100.00

 Free energy of the ion-electron system (eV)
  ---------------------------------------------------
  alpha Z        PSCENC =      6118.73324990
  Ewald energy   TEWEN  =   -103778.14208834
  -Hartree energ DENC   =    -64839.64039384
  -exchange      EXHF   =         0.00000000
  -V(xc)+E(xc)   XCENC  =      8955.69772833
  PAW double counting   =    197038.68111915  -198031.97563748
  entropy T*S    EENTRO =        -0.00453017
  eigenvalues    EBANDS =    -25904.46026019
  atomic energy  EATOM  =    178577.25249613
  Solvation  Ediel_sol  =         0.00000000
  ---------------------------------------------------
  free energy    TOTEN  =     -1863.85831651 eV

  energy without entropy =    -1863.85378634  energy(sigma->0) =    -1863.85605142


--------------------------------------------------------------------------------------------------------




--------------------------------------- Iteration      1(   2)  ---------------------------------------


    POTLOK:  cpu time    0.2598: real time    0.2619
    SETDIJ:  cpu time    1.4245: real time    1.4246
     EDDAV:  cpu time  147.0418: real time  147.5910
       DOS:  cpu time    0.0030: real time    0.0030
    CHARGE:  cpu time    5.1910: real time    5.2580
    MIXING:  cpu time    0.0120: real time    0.0147
    --------------------------------------------
      LOOP:  cpu time  153.9321: real time  154.5532

 eigenvalue-minimisations  : 27240
 total energy-change (2. order) :-0.9576646E+02  (-0.4369702E+03)
 number of electron    1923.0000028 magnetization       1.0000000
 augmentation part      510.9374253 magnetization       0.2741502

 Broyden mixing:
  rms(total) = 0.12618E+02    rms(broyden)= 0.12614E+02
  rms(prec ) = 0.19003E+02
  weight for this iteration     100.00

 eigenvalues of (default mixing * dielectric matrix)
  average eigenvalue GAMMA=   0.3897
  0.3897

 Free energy of the ion-electron system (eV)
  ---------------------------------------------------
  alpha Z        PSCENC =      6118.73324990
  Ewald energy   TEWEN  =   -103778.14208834
  -Hartree energ DENC   =    -65022.89336670
  -exchange      EXHF   =         0.00000000
  -V(xc)+E(xc)   XCENC  =      8956.67774069
  PAW double counting   =    199041.40894171  -200001.63519288
  entropy T*S    EENTRO =        -0.00325303
  eigenvalues    EBANDS =    -25851.02330012
  atomic energy  EATOM  =    178577.25249613
  Solvation  Ediel_sol  =         0.00000000
  ---------------------------------------------------
  free energy    TOTEN  =     -1959.62477263 eV

  energy without entropy =    -1959.62151961  energy(sigma->0) =    -1959.62314612


--------------------------------------------------------------------------------------------------------




--------------------------------------- Iteration      1(   3)  ---------------------------------------


    POTLOK:  cpu time    0.2657: real time    0.2810
    SETDIJ:  cpu time    1.3912: real time    1.4381
     EDDAV:  cpu time  150.6967: real time  151.6567
       DOS:  cpu time    0.0017: real time    0.0017
    CHARGE:  cpu time    5.2132: real time    5.2831
    MIXING:  cpu time    0.0302: real time    0.0318
    --------------------------------------------
      LOOP:  cpu time  157.5987: real time  158.6924

 eigenvalue-minimisations  : 27816
 total energy-change (2. order) : 0.7332704E+02  (-0.1557324E+03)
 number of electron    1923.0000027 magnetization       1.0000000
 augmentation part      491.2271203 magnetization       0.5704217

 Broyden mixing:
  rms(total) = 0.64473E+01    rms(broyden)= 0.64446E+01
  rms(prec ) = 0.74272E+01
  weight for this iteration     100.00

 eigenvalues of (default mixing * dielectric matrix)
  average eigenvalue GAMMA=   0.4412
  0.4412  0.4412

 Free energy of the ion-electron system (eV)
  ---------------------------------------------------
  alpha Z        PSCENC =      6118.73324990
  Ewald energy   TEWEN  =   -103778.14208834
  -Hartree energ DENC   =    -65114.24047326
  -exchange      EXHF   =         0.00000000
  -V(xc)+E(xc)   XCENC  =      8958.12774057
  PAW double counting   =    199262.07550269  -200211.45274996
  entropy T*S    EENTRO =        -0.00000000
  eigenvalues    EBANDS =    -25698.65141346
  atomic energy  EATOM  =    178577.25249613
  Solvation  Ediel_sol  =         0.00000000
  ---------------------------------------------------
  free energy    TOTEN  =     -1886.29773573 eV

  energy without entropy =    -1886.29773573  energy(sigma->0) =    -1886.29773573


--------------------------------------------------------------------------------------------------------




--------------------------------------- Iteration      1(   4)  ---------------------------------------


    POTLOK:  cpu time    0.3071: real time    0.3413
    SETDIJ:  cpu time    1.3685: real time    1.3934
     EDDAV:  cpu time  138.4405: real time  139.1367
       DOS:  cpu time    0.0017: real time    0.0017
    CHARGE:  cpu time    5.2793: real time    5.2799
    MIXING:  cpu time    0.0078: real time    0.0078
    --------------------------------------------
      LOOP:  cpu time  145.4048: real time  146.1608

 eigenvalue-minimisations  : 25188
 total energy-change (2. order) : 0.6007867E+02  (-0.4140656E+02)
 number of electron    1923.0000027 magnetization       1.0000000
 augmentation part      492.9100452 magnetization       0.5682564

 Broyden mixing:
  rms(total) = 0.47394E+01    rms(broyden)= 0.47387E+01
  rms(prec ) = 0.55198E+01
  weight for this iteration     100.00

 eigenvalues of (default mixing * dielectric matrix)
  average eigenvalue GAMMA=   0.5854
  0.6619  0.6619  0.4324

 Free energy of the ion-electron system (eV)
  ---------------------------------------------------
  alpha Z        PSCENC =      6118.73324990
  Ewald energy   TEWEN  =   -103778.14208834
  -Hartree energ DENC   =    -65050.65750688
  -exchange      EXHF   =         0.00000000
  -V(xc)+E(xc)   XCENC  =      8964.66822411
  PAW double counting   =    199386.27703022  -200356.33169241
  entropy T*S    EENTRO =        -0.00000000
  eigenvalues    EBANDS =    -25688.01877630
  atomic energy  EATOM  =    178577.25249613
  Solvation  Ediel_sol  =         0.00000000
  ---------------------------------------------------
  free energy    TOTEN  =     -1826.21906357 eV

  energy without entropy =    -1826.21906357  energy(sigma->0) =    -1826.21906357


--------------------------------------------------------------------------------------------------------




--------------------------------------- Iteration      1(   5)  ---------------------------------------


    POTLOK:  cpu time    0.2614: real time    0.2635
    SETDIJ:  cpu time    1.3874: real time    1.3875
     EDDAV:  cpu time  145.2045: real time  145.9482
       DOS:  cpu time    0.0017: real time    0.0017
    CHARGE:  cpu time    5.2374: real time    5.2380
    MIXING:  cpu time    0.0295: real time    0.0295
    --------------------------------------------
      LOOP:  cpu time  152.1219: real time  152.8686

 eigenvalue-minimisations  : 26916
 total energy-change (2. order) : 0.4848092E+02  (-0.1394259E+02)
 number of electron    1923.0000027 magnetization       1.0000000
 augmentation part      493.5756161 magnetization       0.5666136

 Broyden mixing:
  rms(total) = 0.25309E+01    rms(broyden)= 0.25304E+01
  rms(prec ) = 0.29775E+01
  weight for this iteration     100.00

 eigenvalues of (default mixing * dielectric matrix)
  average eigenvalue GAMMA=   0.6798
  0.8823  0.8823  0.4774  0.4774

 Free energy of the ion-electron system (eV)
  ---------------------------------------------------
  alpha Z        PSCENC =      6118.73324990
  Ewald energy   TEWEN  =   -103778.14208834
  -Hartree energ DENC   =    -65059.17207244
  -exchange      EXHF   =         0.00000000
  -V(xc)+E(xc)   XCENC  =      8971.91679433
  PAW double counting   =    198904.88289697  -199894.57012189
  entropy T*S    EENTRO =        -0.00000000
  eigenvalues    EBANDS =    -25618.63929445
  atomic energy  EATOM  =    178577.25249613
  Solvation  Ediel_sol  =         0.00000000
  ---------------------------------------------------
  free energy    TOTEN  =     -1777.73813980 eV

  energy without entropy =    -1777.73813980  energy(sigma->0) =    -1777.73813980


--------------------------------------------------------------------------------------------------------




--------------------------------------- Iteration      1(   6)  ---------------------------------------


    POTLOK:  cpu time    0.3611: real time    0.3633
    SETDIJ:  cpu time    1.5087: real time    1.5088
     EDDAV:  cpu time  146.5726: real time  147.2935
       DOS:  cpu time    0.0022: real time    0.0022
    CHARGE:  cpu time    5.2171: real time    5.2176
    MIXING:  cpu time    0.0137: real time    0.0137
    --------------------------------------------
      LOOP:  cpu time  153.6754: real time  154.3990

 eigenvalue-minimisations  : 27312
 total energy-change (2. order) : 0.1538015E+02  (-0.6117416E+01)
 number of electron    1923.0000027 magnetization       1.0000000
 augmentation part      494.9878352 magnetization       0.5792022

 Broyden mixing:
  rms(total) = 0.16026E+01    rms(broyden)= 0.16023E+01
  rms(prec ) = 0.17525E+01
  weight for this iteration     100.00

 eigenvalues of (default mixing * dielectric matrix)
  average eigenvalue GAMMA=   0.7046
  0.9653  0.9653  0.4327  0.5798  0.5798

 Free energy of the ion-electron system (eV)
  ---------------------------------------------------
  alpha Z        PSCENC =      6118.73324990
  Ewald energy   TEWEN  =   -103778.14208834
  -Hartree energ DENC   =    -64977.48964751
  -exchange      EXHF   =         0.00000000
  -V(xc)+E(xc)   XCENC  =      8970.97305590
  PAW double counting   =    198407.30792878  -199406.43738629
  entropy T*S    EENTRO =        -0.00000000
  eigenvalues    EBANDS =    -25674.55559547
  atomic energy  EATOM  =    178577.25249613
  Solvation  Ediel_sol  =         0.00000000
  ---------------------------------------------------
  free energy    TOTEN  =     -1762.35798690 eV

  energy without entropy =    -1762.35798690  energy(sigma->0) =    -1762.35798690


--------------------------------------------------------------------------------------------------------




--------------------------------------- Iteration      1(   7)  ---------------------------------------


    POTLOK:  cpu time    0.3590: real time    0.3593
    SETDIJ:  cpu time    1.4425: real time    1.4426
     EDDAV:  cpu time  146.3278: real time  147.1719
       DOS:  cpu time    0.0018: real time    0.0018
    CHARGE:  cpu time    5.3024: real time    5.3029
    MIXING:  cpu time    0.0086: real time    0.0086
    --------------------------------------------
      LOOP:  cpu time  153.4422: real time  154.2872

 eigenvalue-minimisations  : 26964
 total energy-change (2. order) : 0.1524558E+01  (-0.1043038E+01)
 number of electron    1923.0000027 magnetization       1.0000000
 augmentation part      495.7887001 magnetization       0.5720624

 Broyden mixing:
  rms(total) = 0.11524E+01    rms(broyden)= 0.11519E+01
  rms(prec ) = 0.12701E+01
  weight for this iteration     100.00

 eigenvalues of (default mixing * dielectric matrix)
  average eigenvalue GAMMA=   0.8666
  1.3844  1.3844  0.7130  0.7130  0.5023  0.5023

 Free energy of the ion-electron system (eV)
  ---------------------------------------------------
  alpha Z        PSCENC =      6118.73324990
  Ewald energy   TEWEN  =   -103778.14208834
  -Hartree energ DENC   =    -64934.63001569
  -exchange      EXHF   =         0.00000000
  -V(xc)+E(xc)   XCENC  =      8969.26677111
  PAW double counting   =    198119.34316719  -199119.81885773
  entropy T*S    EENTRO =        -0.00000000
  eigenvalues    EBANDS =    -25712.83815127
  atomic energy  EATOM  =    178577.25249613
  Solvation  Ediel_sol  =         0.00000000
  ---------------------------------------------------
  free energy    TOTEN  =     -1760.83342869 eV

  energy without entropy =    -1760.83342869  energy(sigma->0) =    -1760.83342869


--------------------------------------------------------------------------------------------------------




--------------------------------------- Iteration      1(   8)  ---------------------------------------


    POTLOK:  cpu time    0.2599: real time    0.2620
    SETDIJ:  cpu time    1.4359: real time    1.4361
     EDDAV:  cpu time  145.8187: real time  146.3800
       DOS:  cpu time    0.0019: real time    0.0019
    CHARGE:  cpu time    5.1342: real time    5.2223
    MIXING:  cpu time    0.0203: real time    0.0208
    --------------------------------------------
      LOOP:  cpu time  152.6708: real time  153.3231

 eigenvalue-minimisations  : 26964
 total energy-change (2. order) : 0.8470272E+00  (-0.7024379E+00)
[...]
   81        1.573   3.459   0.000   5.032
   82        1.574   3.459   0.000   5.033
   83        1.574   3.459   0.000   5.033
   84        1.576   3.467   0.000   5.042
   85        1.568   3.478   0.000   5.046
   86        1.575   3.465   0.000   5.040
   87        1.576   3.459   0.000   5.035
   88        1.575   3.462   0.000   5.037
   89        1.575   3.458   0.000   5.033
   90        1.575   3.454   0.000   5.029
   91        1.574   3.461   0.000   5.034
   92        1.574   3.459   0.000   5.033
   93        1.577   3.465   0.000   5.041
   94        1.576   3.467   0.000   5.043
   95        1.576   3.463   0.000   5.039
   96        1.575   3.463   0.000   5.037
   97        1.575   3.462   0.000   5.038
   98        1.576   3.467   0.000   5.043
   99        1.575   3.462   0.000   5.037
  100        1.576   3.456   0.000   5.032
  101        1.574   3.454   0.000   5.029
  102        1.575   3.454   0.000   5.029
  103        1.575   3.457   0.000   5.032
  104        1.574   3.455   0.000   5.029
  105        1.577   3.469   0.000   5.046
  106        1.574   3.460   0.000   5.034
  107        1.574   3.459   0.000   5.033
  108        1.576   3.470   0.000   5.046
  109        1.574   3.460   0.000   5.034
  110        1.575   3.458   0.000   5.032
  111        1.576   3.468   0.000   5.044
  112        1.575   3.471   0.000   5.046
  113        1.576   3.473   0.000   5.049
  114        1.577   3.467   0.000   5.043
  115        1.574   3.463   0.000   5.037
  116        1.575   3.461   0.000   5.035
  117        1.575   3.459   0.000   5.034
  118        1.576   3.459   0.000   5.035
  119        1.576   3.469   0.000   5.046
  120        1.575   3.456   0.000   5.031
  121        1.574   3.458   0.000   5.032
  122        1.577   3.465   0.000   5.042
  123        1.577   3.471   0.000   5.047
  124        1.575   3.463   0.000   5.039
  125        1.576   3.474   0.000   5.050
  126        1.576   3.469   0.000   5.045
  127        1.575   3.457   0.000   5.032
  128        1.567   3.475   0.000   5.043
  129        1.577   3.471   0.000   5.048
  130        1.737   4.369   0.000   6.106
  131        1.737   4.370   0.000   6.106
  132        1.737   4.377   0.000   6.114
  133        1.738   4.382   0.000   6.120
  134        1.737   4.385   0.000   6.122
  135        1.737   4.366   0.000   6.102
  136        1.736   4.364   0.000   6.100
  137        1.738   4.379   0.000   6.117
  138        1.738   4.379   0.000   6.117
  139        1.738   4.385   0.000   6.124
  140        1.739   4.382   0.000   6.121
  141        1.738   4.378   0.000   6.116
  142        1.738   4.379   0.000   6.116
  143        1.738   4.382   0.000   6.120
  144        1.738   4.385   0.000   6.123
  145        1.738   4.380   0.000   6.118
  146        1.737   4.379   0.000   6.116
  147        1.737   4.367   0.000   6.103
  148        1.736   4.366   0.000   6.102
  149        1.739   4.380   0.000   6.119
  150        1.738   4.384   0.000   6.122
  151        1.738   4.370   0.000   6.107
  152        1.738   4.376   0.000   6.113
  153        1.737   4.380   0.000   6.117
  154        1.737   4.371   0.000   6.108
  155        1.737   4.370   0.000   6.107
  156        1.736   4.381   0.000   6.117
  157        1.738   4.372   0.000   6.110
  158        1.738   4.376   0.000   6.114
  159        1.738   4.373   0.000   6.111
  160        1.736   4.366   0.000   6.102
  161        1.736   4.366   0.000   6.103
  162        1.737   4.369   0.000   6.106
  163        1.736   4.366   0.000   6.102
  164        1.737   4.376   0.000   6.113
  165        1.736   4.367   0.000   6.104
  166        1.736   4.366   0.000   6.103
  167        1.737   4.369   0.000   6.105
  168        1.737   4.369   0.000   6.106
  169        1.738   4.373   0.000   6.111
  170        1.737   4.375   0.000   6.113
  171        1.737   4.367   0.000   6.104
  172        1.737   4.382   0.000   6.119
  173        1.737   4.365   0.000   6.102
  174        1.737   4.366   0.000   6.102
  175        1.738   4.379   0.000   6.117
  176        1.736   4.361   0.000   6.097
  177        1.738   4.378   0.000   6.115
  178        1.737   4.366   0.000   6.102
  179        1.738   4.372   0.000   6.110
  180        1.738   4.376   0.000   6.114
  181        1.736   4.367   0.000   6.103
  182        1.737   4.375   0.000   6.112
  183        1.737   4.366   0.000   6.103
  184        1.737   4.376   0.000   6.113
  185        1.737   4.377   0.000   6.114
  186        1.737   4.372   0.000   6.109
  187        1.737   4.367   0.000   6.104
  188        1.738   4.373   0.000   6.111
  189        1.738   4.378   0.000   6.116
  190        1.738   4.377   0.000   6.115
  191        1.738   4.382   0.000   6.120
  192        1.737   4.367   0.000   6.103
  193        1.738   4.381   0.000   6.119
  194        1.736   4.365   0.000   6.102
  195        1.736   4.367   0.000   6.103
  196        1.737   4.378   0.000   6.115
  197        1.737   4.369   0.000   6.106
  198        1.737   4.380   0.000   6.117
  199        1.737   4.375   0.000   6.112
  200        1.738   4.375   0.000   6.113
  201        1.738   4.370   0.000   6.108
  202        1.738   4.370   0.000   6.108
  203        1.737   4.376   0.000   6.113
  204        1.738   4.369   0.000   6.106
  205        1.737   4.372   0.000   6.109
  206        1.736   4.368   0.000   6.105
  207        1.737   4.366   0.000   6.103
  208        1.737   4.378   0.000   6.115
  209        1.737   4.372   0.000   6.109
  210        1.737   4.370   0.000   6.106
  211        1.737   4.370   0.000   6.107
  212        1.737   4.367   0.000   6.104
  213        1.738   4.369   0.000   6.107
  214        1.736   4.365   0.000   6.102
  215        1.738   4.374   0.000   6.112
  216        1.736   4.365   0.000   6.101
  217        1.737   4.365   0.000   6.102
  218        1.737   4.372   0.000   6.109
  219        1.738   4.376   0.000   6.114
  220        1.738   4.378   0.000   6.116
  221        1.738   4.379   0.000   6.117
  222        1.737   4.376   0.000   6.114
  223        1.737   4.377   0.000   6.114
  224        1.738   4.373   0.000   6.111
  225        1.737   4.378   0.000   6.115
  226        1.738   4.378   0.000   6.116
  227        1.737   4.378   0.000   6.115
  228        1.738   4.377   0.000   6.115
  229        1.738   4.374   0.000   6.111
  230        1.737   4.368   0.000   6.105
  231        1.738   4.373   0.000   6.110
  232        1.737   4.369   0.000   6.106
  233        1.738   4.379   0.000   6.116
  234        1.737   4.364   0.000   6.101
  235        1.737   4.364   0.000   6.101
  236        1.738   4.386   0.000   6.124
  237        1.739   4.382   0.000   6.121
  238        1.737   4.373   0.000   6.110
  239        1.739   4.377   0.000   6.116
  240        1.737   4.379   0.000   6.117
  241        1.739   4.377   0.000   6.116
  242        1.738   4.382   0.000   6.121
  243        1.738   4.384   0.000   6.122
  244        1.738   4.378   0.000   6.116
  245        1.738   4.377   0.000   6.114
  246        1.738   4.376   0.000   6.114
  247        1.738   4.382   0.000   6.120
  248        1.737   4.371   0.000   6.108
  249        1.738   4.383   0.000   6.121
  250        1.738   4.367   0.000   6.105
  251        1.738   4.379   0.000   6.117
  252        1.736   4.388   0.000   6.124
  253        1.738   4.379   0.000   6.117
  254        1.739   4.383   0.000   6.122
  255        1.738   4.374   0.000   6.112
  256        1.738   4.384   0.000   6.122
  257        1.738   4.377   0.000   6.115
--------------------------------------------------
tot        345.3391194.383 111.9041651.626
 


 magnetization (x)
 
# of ion       s       p       d       tot
------------------------------------------
    1        0.000  -0.000   0.000  -0.000
    2        0.000   0.000   0.000   0.000
    3        0.000   0.000   0.000   0.000
    4       -0.000  -0.000  -0.000  -0.000
    5       -0.000  -0.000  -0.000  -0.000
    6       -0.000  -0.000   0.000   0.000
    7        0.005   0.006   0.926   0.937
    8       -0.000  -0.000  -0.000  -0.000
    9       -0.000  -0.000  -0.000  -0.000
   10        0.000  -0.000   0.000   0.000
   11        0.000  -0.000   0.000   0.000
   12       -0.000  -0.000  -0.000  -0.000
   13       -0.000  -0.000  -0.000  -0.000
   14       -0.000  -0.000   0.006   0.006
   15       -0.000  -0.000   0.007   0.007
   16       -0.000  -0.000  -0.000  -0.000
   17       -0.000  -0.000  -0.000  -0.000
   18       -0.000  -0.000  -0.000  -0.000
   19       -0.000  -0.000  -0.000  -0.000
   20        0.000   0.000   0.000   0.000
   21       -0.000  -0.000  -0.000  -0.000
   22        0.000   0.000   0.000   0.000
   23       -0.000  -0.000  -0.004  -0.005
   24       -0.000  -0.000   0.000   0.000
   25       -0.000  -0.000  -0.000  -0.000
   26       -0.000  -0.000  -0.000  -0.000
   27       -0.000  -0.000  -0.000  -0.000
   28       -0.000   0.000  -0.000  -0.000
   29        0.000   0.000   0.000   0.000
   30       -0.000  -0.000  -0.000  -0.000
   31       -0.000  -0.000  -0.000  -0.000
   32       -0.000  -0.000   0.000   0.000
   33       -0.000  -0.000   0.000   0.000
   34        0.000   0.000   0.000   0.000
   35        0.000   0.000   0.005   0.005
   36       -0.000  -0.000   0.000  -0.000
   37        0.000  -0.000  -0.000  -0.000
   38       -0.000  -0.000   0.000   0.000
   39       -0.000   0.000   0.006   0.006
   40        0.000  -0.000   0.000   0.000
   41        0.000   0.000  -0.000  -0.000
   42        0.000   0.000   0.000   0.000
   43        0.000   0.000   0.003   0.003
   44       -0.000  -0.000   0.000   0.000
   45       -0.000  -0.000   0.000   0.000
   46        0.000   0.000   0.003   0.003
   47        0.000  -0.000   0.000   0.000
   48       -0.000  -0.000   0.000  -0.000
   49       -0.000  -0.000  -0.000  -0.000
   50       -0.000   0.000  -0.000  -0.000
   51       -0.000  -0.000  -0.000  -0.000
   52        0.000   0.000   0.000   0.000
   53       -0.000  -0.000   0.000   0.000
   54       -0.000  -0.000  -0.000  -0.000
   55       -0.000  -0.000  -0.000  -0.000
   56        0.000  -0.000   0.000   0.000
   57       -0.000  -0.000  -0.000  -0.000
   58       -0.000  -0.000   0.000   0.000
   59       -0.000  -0.000   0.000  -0.000
   60       -0.000  -0.000   0.000  -0.000
   61       -0.000  -0.000   0.000   0.000
   62       -0.000  -0.000  -0.000  -0.000
   63       -0.000  -0.000   0.000  -0.000
   64       -0.000  -0.000   0.000   0.000
   65       -0.000  -0.000  -0.000  -0.000
   66        0.000   0.000   0.000   0.000
   67       -0.000  -0.000   0.000  -0.000
   68       -0.000   0.000   0.000   0.000
   69        0.000  -0.000   0.000  -0.000
   70        0.000   0.000   0.000   0.000
   71        0.000  -0.000   0.000  -0.000
   72       -0.000  -0.000   0.000  -0.000
   73       -0.000  -0.000   0.000  -0.000
   74        0.000   0.000   0.000   0.000
   75        0.000  -0.000   0.000  -0.000
   76       -0.000  -0.001   0.000  -0.001
   77       -0.000  -0.000   0.000  -0.000
   78       -0.000  -0.000   0.000  -0.000
   79        0.000   0.000   0.000   0.000
   80       -0.000  -0.001   0.000  -0.001
   81        0.000   0.000   0.000   0.000
   82        0.000  -0.000   0.000  -0.000
   83       -0.000  -0.000   0.000  -0.000
   84        0.000   0.000   0.000   0.000
   85        0.000  -0.000   0.000  -0.000
   86       -0.000  -0.000   0.000  -0.000
   87       -0.000  -0.000   0.000  -0.000
   88       -0.000   0.000   0.000  -0.000
   89        0.000   0.000   0.000   0.000
   90        0.000  -0.000   0.000   0.000
   91        0.000   0.000   0.000   0.000
   92       -0.000  -0.001   0.000  -0.001
   93        0.000  -0.000   0.000  -0.000
   94       -0.000  -0.000   0.000  -0.000
   95       -0.000  -0.000   0.000  -0.000
   96       -0.000   0.000   0.000   0.000
   97        0.000   0.000   0.000   0.000
   98       -0.000  -0.000   0.000  -0.000
   99       -0.000  -0.000   0.000  -0.000
  100       -0.000  -0.000   0.000  -0.000
  101       -0.000  -0.000   0.000  -0.000
  102        0.000  -0.000   0.000  -0.000
  103        0.000   0.000   0.000   0.000
  104        0.000  -0.000   0.000  -0.000
  105       -0.000  -0.001   0.000  -0.001
  106        0.000  -0.000   0.000  -0.000
  107        0.000   0.000   0.000   0.000
  108        0.000   0.000   0.000   0.000
  109        0.000   0.000   0.000   0.000
  110        0.000   0.000   0.000   0.000
  111       -0.000  -0.000   0.000  -0.000
  112       -0.001  -0.018   0.000  -0.019
  113       -0.000  -0.000   0.000  -0.000
  114       -0.000  -0.000   0.000  -0.000
  115       -0.000  -0.000   0.000  -0.000
  116       -0.000  -0.000   0.000  -0.000
  117        0.000   0.000   0.000   0.000
  118        0.000  -0.000   0.000  -0.000
  119       -0.000  -0.000   0.000  -0.000
  120       -0.000  -0.000   0.000  -0.000
  121       -0.000  -0.000   0.000  -0.000
  122        0.000   0.000   0.000   0.000
  123       -0.000  -0.000   0.000  -0.000
  124       -0.000  -0.000   0.000  -0.000
  125       -0.000  -0.000   0.000  -0.000
  126       -0.000  -0.000   0.000  -0.000
  127       -0.000  -0.000   0.000  -0.000
  128       -0.000  -0.000   0.000  -0.000
  129        0.000  -0.000   0.000  -0.000
  130        0.000   0.000   0.000   0.000
  131       -0.000  -0.000   0.000  -0.000
  132        0.000   0.000   0.000   0.000
  133       -0.000  -0.000   0.000  -0.000
  134       -0.000   0.002   0.000   0.002
  135        0.000   0.000   0.000   0.000
  136        0.000  -0.000   0.000  -0.000
  137        0.000   0.000   0.000   0.000
  138        0.000   0.000   0.000   0.000
  139       -0.000   0.002   0.000   0.002
  140       -0.000  -0.000   0.000  -0.000
  141        0.000   0.000   0.000   0.000
  142        0.000   0.000   0.000   0.000
  143        0.000  -0.000   0.000  -0.000
  144        0.000  -0.000   0.000  -0.000
  145       -0.000  -0.000   0.000  -0.000
  146        0.000   0.000   0.000   0.000
  147       -0.000  -0.000   0.000  -0.000
  148       -0.000  -0.000   0.000  -0.000
  149        0.000  -0.000   0.000  -0.000
  150       -0.000  -0.000   0.000  -0.000
  151       -0.000  -0.000   0.000  -0.000
  152       -0.000  -0.000   0.000  -0.000
  153        0.000   0.000   0.000   0.000
  154       -0.000   0.000   0.000   0.000
  155        0.000   0.000   0.000   0.000
  156        0.000   0.000   0.000   0.000
  157       -0.000   0.000   0.000   0.000
  158        0.000   0.000   0.000   0.000
  159        0.000   0.000   0.000   0.000
  160       -0.000   0.000   0.000   0.000
  161       -0.000  -0.000   0.000  -0.000
  162       -0.000  -0.000   0.000  -0.000
  163       -0.000  -0.000   0.000  -0.000
  164        0.000   0.000   0.000   0.000
  165       -0.000  -0.000   0.000  -0.000
  166        0.000   0.000   0.000   0.000
  167        0.000   0.000   0.000   0.000
  168       -0.000  -0.000   0.000  -0.000
  169        0.000   0.000   0.000   0.000
  170       -0.000   0.000   0.000   0.000
  171        0.000  -0.000   0.000  -0.000
  172        0.000  -0.000   0.000  -0.000
  173        0.000  -0.000   0.000  -0.000
  174       -0.000  -0.000   0.000  -0.000
  175       -0.000   0.002   0.000   0.002
  176       -0.000  -0.000   0.000  -0.000
  177       -0.000   0.000   0.000   0.000
  178        0.000   0.000   0.000   0.000
  179        0.000   0.000   0.000   0.000
  180        0.000   0.000   0.000   0.000
  181        0.000   0.000   0.000   0.000
  182        0.000   0.000   0.000   0.000
  183        0.000   0.000   0.000   0.000
  184       -0.000  -0.000   0.000  -0.000
  185       -0.000  -0.000   0.000  -0.000
  186       -0.000  -0.000   0.000  -0.000
  187       -0.000   0.000   0.000   0.000
  188        0.000   0.000   0.000   0.000
  189       -0.000  -0.000   0.000  -0.000
  190       -0.000  -0.000   0.000  -0.000
  191       -0.000   0.002   0.000   0.002
  192        0.000   0.000   0.000   0.000
  193       -0.000  -0.000   0.000  -0.000
  194        0.000   0.000   0.000   0.000
  195        0.000   0.000   0.000   0.000
  196        0.000   0.000   0.000   0.000
  197       -0.000  -0.000   0.000  -0.000
  198        0.000   0.000   0.000   0.000
  199       -0.000  -0.000   0.000  -0.000
  200       -0.000  -0.000   0.000  -0.000
  201       -0.000  -0.000   0.000  -0.000
  202        0.000  -0.000   0.000  -0.000
  203        0.000   0.000   0.000   0.000
  204       -0.000  -0.000   0.000  -0.000
  205       -0.000  -0.000   0.000  -0.000
  206       -0.000  -0.000   0.000  -0.000
  207       -0.000  -0.000   0.000  -0.000
  208       -0.000  -0.000   0.000  -0.000
  209        0.000   0.000   0.000   0.000
  210       -0.000   0.000   0.000   0.000
  211       -0.000  -0.000   0.000  -0.000
  212       -0.000  -0.000   0.000  -0.000
  213       -0.000  -0.000   0.000  -0.000
  214        0.000   0.000   0.000   0.000
  215       -0.000  -0.000   0.000  -0.000
  216       -0.000  -0.000   0.000  -0.000
  217        0.000  -0.000   0.000  -0.000
  218       -0.000  -0.000   0.000  -0.000
  219       -0.000  -0.000   0.000  -0.000
  220        0.000   0.000   0.000   0.000
  221       -0.000   0.000   0.000   0.000
  222       -0.000  -0.000   0.000  -0.000
  223       -0.000   0.000   0.000   0.000
  224       -0.000  -0.000   0.000  -0.000
  225       -0.000  -0.005   0.000  -0.005
  226        0.000   0.000   0.000   0.000
  227       -0.000  -0.000   0.000  -0.000
  228       -0.000  -0.000   0.000  -0.000
  229       -0.000  -0.000   0.000  -0.000
  230       -0.000  -0.000   0.000  -0.000
  231       -0.000  -0.000   0.000  -0.000
  232       -0.000  -0.000   0.000  -0.000
  233       -0.000  -0.000   0.000  -0.000
  234       -0.000  -0.000   0.000  -0.000
  235       -0.000  -0.000   0.000  -0.000
  236       -0.000  -0.000   0.000  -0.000
  237        0.000  -0.000   0.000  -0.000
  238       -0.000  -0.000   0.000  -0.000
  239       -0.000  -0.000   0.000  -0.000
  240       -0.000  -0.000   0.000  -0.000
  241       -0.000  -0.000   0.000  -0.000
  242       -0.000  -0.000   0.000  -0.000
  243        0.000  -0.000   0.000  -0.000
  244        0.000   0.000   0.000   0.000
  245        0.000   0.000   0.000   0.000
  246       -0.000  -0.000   0.000  -0.000
  247       -0.000   0.000   0.000   0.000
  248       -0.000  -0.000   0.000  -0.000
  249        0.000  -0.000   0.000  -0.000
  250       -0.000  -0.000   0.000  -0.000
  251       -0.000  -0.000   0.000  -0.000
  252        0.000  -0.000   0.000  -0.000
  253       -0.000  -0.000   0.000  -0.000
  254       -0.000  -0.000   0.000  -0.000
  255       -0.000  -0.000   0.000  -0.000
  256       -0.000  -0.000   0.000  -0.000
  257       -0.000  -0.000   0.000  -0.000
--------------------------------------------------
tot          0.002  -0.014   0.952   0.939
 

 total amount of memory used by VASP MPI-rank0   291507. kBytes
=======================================================================

   base      :      30000. kBytes
   nonlr-proj:      49472. kBytes
   fftplans  :      27976. kBytes
   grid      :      34041. kBytes
   one-center:       1026. kBytes
   wavefun   :     148992. kBytes
 
  
  
 General timing and accounting informations for this job:
 ========================================================
  
                  Total CPU time used (sec):     4376.571
                            User time (sec):     3978.577
                          System time (sec):      397.994
                         Elapsed time (sec):     4408.857
  
                   Maximum memory used (kb):      629100.
                   Average memory used (kb):           0.
  
                          Minor page faults:       382887
                          Major page faults:            1
                 Voluntary context switches:        30217
