 vasp.5.4.4.18Apr17-6-g9f103f2a35 (build Jul 16 2019 12:12:28) complex          
  
 executed on             LinuxIFC date 2020.01.06  10:43:28
 running on   96 total cores
 distrk:  each k-point on   96 cores,    1 groups
 distr:  one band on NCORES_PER_BAND=   8 cores,   12 groups


--------------------------------------------------------------------------------------------------------


 INCAR:
 POTCAR:    PAW_PBE Li_sv 10Sep2004               
 POTCAR:    PAW_PBE Ti_pv 07Sep2000               
 POTCAR:    PAW_PBE O 08Apr2002                   
 POTCAR:    PAW_PBE F 08Apr2002                   
 POTCAR:    PAW_PBE Li_sv 10Sep2004               
   VRHFIN =Li: 1s2s2p                                                           
   LEXCH  = PE                                                                  
   EATOM  =   202.7858 eV,   14.9043 Ry                                         
                                                                                
   TITEL  = PAW_PBE Li_sv 10Sep2004                                             
   LULTRA =        F    use ultrasoft PP ?                                      
   IUNSCR =        0    unscreen: 0-lin 1-nonlin 2-no                           
   RPACOR =    0.000    partial core radius                                     
   POMASS =    7.010; ZVAL   =    3.000    mass and valenz                      
   RCORE  =    1.700    outmost cutoff radius                                   
   RWIGS  =    2.050; RWIGS  =    1.085    wigner-seitz radius (au A)           
   ENMAX  =  499.034; ENMIN  =  374.276 eV                                      
   ICORE  =        2    local potential                                         
   LCOR   =        T    correct aug charges                                     
   LPAW   =        T    paw PP                                                  
   EAUG   =  628.945                                                            
   RMAX   =    1.732    core radius for proj-oper                               
   RAUG   =    1.300    factor for augmentation sphere                          
   RDEP   =    1.728    radius for radial grids                                 
   RDEPT  =    1.329    core radius for aug-charge                              
                                                                                
   Atomic configuration                                                         
    4 entries                                                                   
     n  l   j            E        occ.                                          
     1  0  0.50       -51.8549   2.0000                                         
     2  0  0.50        -2.8742   1.0000                                         
     2  1  0.50        -1.3606   0.0000                                         
     3  2  1.50        -1.3606   0.0000                                         
   Description                                                                  
     l       E           TYP  RCUT    TYP  RCUT                                 
     0    -51.8548813     23  1.400                                             
     0     -2.8742052     23  1.700                                             
     1     -1.3605826     23  1.400                                             
     2     -1.3605826     23  1.400                                             
  local pseudopotential read in
  atomic valenz-charges read in
  non local Contribution for L=           0  read in
    real space projection operators read in
  non local Contribution for L=           0  read in
    real space projection operators read in
  non local Contribution for L=           1  read in
    real space projection operators read in
    PAW grid and wavefunctions read in
 
   number of l-projection  operators is LMAX  =           3
   number of lm-projection operators is LMMAX =           5
 
 POTCAR:    PAW_PBE Ti_pv 07Sep2000               
   VRHFIN =Ti: d3 s1                                                            
   LEXCH  = PE                                                                  
   EATOM  =  1042.5995 eV,   76.6289 Ry                                         
                                                                                
   TITEL  = PAW_PBE Ti_pv 07Sep2000                                             
   LULTRA =        F    use ultrasoft PP ?                                      
   IUNSCR =        1    unscreen: 0-lin 1-nonlin 2-no                           
   RPACOR =    2.200    partial core radius                                     
   POMASS =   47.880; ZVAL   =   10.000    mass and valenz                      
   RCORE  =    2.500    outmost cutoff radius                                   
   RWIGS  =    2.500; RWIGS  =    1.323    wigner-seitz radius (au A)           
   ENMAX  =  222.335; ENMIN  =  166.751 eV                                      
   RCLOC  =    1.701    cutoff for local pot                                    
   LCOR   =        T    correct aug charges                                     
   LPAW   =        T    paw PP                                                  
   EAUG   =  482.848                                                            
   DEXC   =    0.000                                                            
   RMAX   =    2.564    core radius for proj-oper                               
   RAUG   =    1.300    factor for augmentation sphere                          
   RDEP   =    2.538    radius for radial grids                                 
   RDEPT  =    1.952    core radius for aug-charge                              
                                                                                
   Atomic configuration                                                         
    8 entries                                                                   
     n  l   j            E        occ.                                          
     1  0  0.50     -4865.3608   2.0000                                         
     2  0  0.50      -533.1368   2.0000                                         
     2  1  1.50      -440.5031   6.0000                                         
     3  0  0.50       -59.3186   2.0000                                         
     3  1  1.50       -35.7012   6.0000                                         
     3  2  2.50        -1.9157   3.0000                                         
     4  0  0.50        -3.7291   1.0000                                         
     4  3  2.50        -1.3606   0.0000                                         
   Description                                                                  
     l       E           TYP  RCUT    TYP  RCUT                                 
     1    -35.7012140     23  2.300                                             
     1     -1.3605826     23  2.300                                             
     2     -1.9156996     23  2.500                                             
     2     -0.4063033     23  2.500                                             
     0     -3.7290856     23  2.500                                             
     0     20.4087390     23  2.500                                             
  local pseudopotential read in
  partial core-charges read in
  partial kinetic energy density read in
  atomic valenz-charges read in
  non local Contribution for L=           1  read in
    real space projection operators read in
  non local Contribution for L=           1  read in
    real space projection operators read in
  non local Contribution for L=           2  read in
    real space projection operators read in
  non local Contribution for L=           2  read in
    real space projection operators read in
  non local Contribution for L=           0  read in
    real space projection operators read in
  non local Contribution for L=           0  read in
    real space projection operators read in
    PAW grid and wavefunctions read in
 
   number of l-projection  operators is LMAX  =           6
   number of lm-projection operators is LMMAX =          18
 
 POTCAR:    PAW_PBE O 08Apr2002                   
   VRHFIN =O: s2p4                                                              
   LEXCH  = PE                                                                  
   EATOM  =   432.3788 eV,   31.7789 Ry                                         
                                                                                
   TITEL  = PAW_PBE O 08Apr2002                                                 
   LULTRA =        F    use ultrasoft PP ?                                      
   IUNSCR =        1    unscreen: 0-lin 1-nonlin 2-no                           
   RPACOR =    1.200    partial core radius                                     
   POMASS =   16.000; ZVAL   =    6.000    mass and valenz                      
   RCORE  =    1.520    outmost cutoff radius                                   
   RWIGS  =    1.550; RWIGS  =    0.820    wigner-seitz radius (au A)           
   ENMAX  =  400.000; ENMIN  =  300.000 eV                                      
   ICORE  =        2    local potential                                         
   LCOR   =        T    correct aug charges                                     
   LPAW   =        T    paw PP                                                  
   EAUG   =  605.392                                                            
   DEXC   =    0.000                                                            
   RMAX   =    1.553    core radius for proj-oper                               
   RAUG   =    1.300    factor for augmentation sphere                          
   RDEP   =    1.550    radius for radial grids                                 
   RDEPT  =    1.329    core radius for aug-charge                              
                                                                                
   Atomic configuration                                                         
    4 entries                                                                   
     n  l   j            E        occ.                                          
     1  0  0.50      -514.6923   2.0000                                         
     2  0  0.50       -23.9615   2.0000                                         
     2  1  0.50        -9.0305   4.0000                                         
     3  2  1.50        -9.5241   0.0000                                         
   Description                                                                  
     l       E           TYP  RCUT    TYP  RCUT                                 
     0    -23.9615318     23  1.200                                             
     0     -9.5240782     23  1.200                                             
     1     -9.0304911     23  1.520                                             
     1      8.1634956     23  1.520                                             
     2     -9.5240782      7  1.500                                             
  local pseudopotential read in
  partial core-charges read in
  partial kinetic energy density read in
  kinetic energy density of atom read in
  atomic valenz-charges read in
  non local Contribution for L=           0  read in
    real space projection operators read in
  non local Contribution for L=           0  read in
    real space projection operators read in
  non local Contribution for L=           1  read in
    real space projection operators read in
  non local Contribution for L=           1  read in
    real space projection operators read in
    PAW grid and wavefunctions read in
 
   number of l-projection  operators is LMAX  =           4
   number of lm-projection operators is LMMAX =           8
 
 POTCAR:    PAW_PBE F 08Apr2002                   
   VRHFIN =F: s2p5                                                              
   LEXCH  = PE                                                                  
   EATOM  =   659.6475 eV,   48.4827 Ry                                         
                                                                                
   TITEL  = PAW_PBE F 08Apr2002                                                 
   LULTRA =        F    use ultrasoft PP ?                                      
   IUNSCR =        1    unscreen: 0-lin 1-nonlin 2-no                           
   RPACOR =    1.200    partial core radius                                     
   POMASS =   18.998; ZVAL   =    7.000    mass and valenz                      
   RCORE  =    1.520    outmost cutoff radius                                   
   RWIGS  =    1.500; RWIGS  =    0.794    wigner-seitz radius (au A)           
   ENMAX  =  400.000; ENMIN  =  300.000 eV                                      
   ICORE  =        2    local potential                                         
   LCOR   =        T    correct aug charges                                     
   LPAW   =        T    paw PP                                                  
   EAUG   =  613.614                                                            
   RMAX   =    1.555    core radius for proj-oper                               
   RAUG   =    1.300    factor for augmentation sphere                          
   RDEP   =    1.539    radius for radial grids                                 
   RDEPT  =    1.299    core radius for aug-charge                              
                                                                                
   Atomic configuration                                                         
    4 entries                                                                   
     n  l   j            E        occ.                                          
     1  0  0.50      -663.3661   2.0000                                         
     2  0  0.50       -29.8995   2.0000                                         
     2  1  0.50       -11.1114   5.0000                                         
     3  2  1.50       -10.8847   0.0000                                         
   Description                                                                  
     l       E           TYP  RCUT    TYP  RCUT                                 
     0    -29.8995018     23  1.200                                             
     0     -9.5240782     23  1.200                                             
     1    -11.1113914     23  1.520                                             
     1      1.3605826     23  1.520                                             
     2    -10.8846608      7  1.500                                             
  local pseudopotential read in
  partial core-charges read in
  partial kinetic energy density read in
  atomic valenz-charges read in
  non local Contribution for L=           0  read in
    real space projection operators read in
  non local Contribution for L=           0  read in
    real space projection operators read in
  non local Contribution for L=           1  read in
    real space projection operators read in
  non local Contribution for L=           1  read in
    real space projection operators read in
    PAW grid and wavefunctions read in
 
   number of l-projection  operators is LMAX  =           4
   number of lm-projection operators is LMMAX =           8
 
 Optimization of the real space projectors (new method)

 maximal supplied QI-value         = 22.11
 optimisation between [QCUT,QGAM] = [ 11.28, 22.77] = [ 35.61,145.23] Ry 
 Optimized for a Real-space Cutoff    1.31 Angstroem

   l    n(q)    QCUT    max X(q) W(low)/X(q) W(high)/X(q)  e(spline) 
   0      9    11.276    10.506    0.19E-04    0.17E-04    0.32E-07
   0      9    11.276     8.367    0.38E-04    0.40E-04    0.65E-07
   1      8    11.276     8.983    0.55E-04    0.98E-04    0.20E-06
 Optimization of the real space projectors (new method)

 maximal supplied QI-value         = 15.12
 optimisation between [QCUT,QGAM] = [ 11.34, 22.83] = [ 36.00,145.93] Ry 
 Optimized for a Real-space Cutoff    1.56 Angstroem

   l    n(q)    QCUT    max X(q) W(low)/X(q) W(high)/X(q)  e(spline) 
   1     10    11.338     4.216    0.27E-04    0.12E-04    0.66E-07
   1     10    11.338     5.422    0.81E-04    0.24E-04    0.19E-06
   2     10    11.338    72.084    0.64E-04    0.21E-03    0.51E-06
   2     10    11.338    65.965    0.63E-04    0.21E-03    0.50E-06
   0     11    11.338    41.531    0.33E-04    0.54E-04    0.13E-06
   0     11    11.338    16.290    0.26E-04    0.41E-04    0.11E-06
 Optimization of the real space projectors (new method)

 maximal supplied QI-value         = 24.76
 optimisation between [QCUT,QGAM] = [ 11.39, 22.77] = [ 36.31,145.25] Ry 
 Optimized for a Real-space Cutoff    1.20 Angstroem

   l    n(q)    QCUT    max X(q) W(low)/X(q) W(high)/X(q)  e(spline) 
   0      8    11.387    20.381    0.89E-04    0.31E-03    0.27E-06
   0      8    11.387    15.268    0.93E-04    0.32E-03    0.29E-06
   1      8    11.387     5.964    0.53E-04    0.28E-03    0.29E-06
   1      8    11.387     5.382    0.37E-04    0.22E-03    0.26E-06
 Optimization of the real space projectors (new method)

 maximal supplied QI-value         = 24.76
 optimisation between [QCUT,QGAM] = [ 11.39, 22.77] = [ 36.31,145.25] Ry 
 Optimized for a Real-space Cutoff    1.20 Angstroem

   l    n(q)    QCUT    max X(q) W(low)/X(q) W(high)/X(q)  e(spline) 
   0      8    11.387    14.049    0.69E-04    0.23E-03    0.18E-06
   0      8    11.387     8.945    0.88E-04    0.30E-03    0.26E-06
   1      8    11.387     7.086    0.62E-04    0.27E-03    0.27E-06
   1      8    11.387     6.747    0.46E-04    0.23E-03    0.25E-06

 ----------------------------------------------------------------------------- 
|                                                                             |
|  ADVICE TO THIS USER RUNNING 'VASP/VAMP'   (HEAR YOUR MASTER'S VOICE ...):  |
|                                                                             |
|      You enforced a specific xc-type in the INCAR file,                     |
|      a different type was found on the POTCAR file                          |
|          I HOPE YOU KNOW, WHAT YOU ARE  DOING                               |
|                                                                             |
 ----------------------------------------------------------------------------- 

  PAW_PBE Li_sv 10Sep2004               :
 energy of atom  1       EATOM= -202.7858
 kinetic energy error for atom=    0.0143 (will be added to EATOM!!)
  PAW_PBE Ti_pv 07Sep2000               :
 energy of atom  2       EATOM=-1042.5995
 kinetic energy error for atom=    0.0024 (will be added to EATOM!!)
  PAW_PBE O 08Apr2002                   :
 energy of atom  3       EATOM= -432.3788
 kinetic energy error for atom=    0.0224 (will be added to EATOM!!)
  PAW_PBE F 08Apr2002                   :
 energy of atom  4       EATOM= -659.6475
 kinetic energy error for atom=    0.0354 (will be added to EATOM!!)
 
 
 POSCAR: config 49                               
  positions in direct lattice
  velocities in cartesian coordinates
 exchange correlation table for  LEXCH =       14
   RHO(1)=    0.500       N(1)  =     2000
   RHO(2)=  100.500       N(2)  =     4000

 VTST: version 3.2, (02/03/18)

 CHAIN: initializing optimizer
 
 OPT: Using VASP QUASI-newton optimizer
 CHAIN: Read ICHAIN            0
 
 POSCAR: config 49                               
  positions in direct lattice
  velocities in cartesian coordinates
 


--------------------------------------------------------------------------------------------------------


 ion  position               nearest neighbor table
   1  0.901  0.117  0.081- 103 1.99 212 2.00 110 2.01   2 2.80  18 2.88
   2  0.996  0.992  0.991- 118 1.83  68 1.85 103 1.93 171 1.99 212 2.08 130 2.09   1 2.80
   3  0.998  0.992  0.493- 119 1.81  67 1.83 172 1.95 193 1.96 131 2.01 213 2.08
   4  0.005  0.495  0.997-  89 1.84 117 1.85 138 1.93 132 1.99 194 2.01 214 2.02
   5  0.994  0.503  0.508-  66 1.83 104 1.84 215 1.93 223 2.01 173 2.02 137 2.03
   6  0.494  0.994  0.000- 101 1.83 121 1.84 140 1.95 133 1.96 216 2.02 174 2.04
   7  0.502  0.009  0.499- 112 1.77 191 1.92 134 1.92 139 1.92 175 1.94 225 2.04
   8  0.504  0.494  0.997-  90 1.88 120 1.88  70 1.89 192 2.03 135 2.04 217 2.06
   9  0.492  0.499  0.496- 102 1.81  69 1.86 224 1.99 218 2.00 136 2.01 176 2.07
  10  0.006  0.004  0.257-  91 1.83  67 1.85 227 1.96 219 1.97 130 2.02 197 2.06
  11  0.001  0.008  0.754-  68 1.81 113 1.83 177 1.94 198 1.98 131 2.04 228 2.05
  12  0.993  0.494  0.252- 107 1.82 122 1.87 137 1.93 132 1.97 220 2.01 178 2.03
  13  0.993  0.499  0.742- 108 1.82  66 1.83 226 1.94 221 1.97 138 2.02 179 2.05
  14  0.505  0.010  0.251- 114 1.80  92 1.85 133 1.93 139 1.98 195 2.00 231 2.07
  15  0.493  0.005  0.752- 105 1.81 115 1.83 140 1.94 134 2.00 232 2.01 180 2.04
  16  0.492  0.496  0.258-  69 1.83 106 1.84 229 1.96 222 2.01 135 2.02 181 2.05
  17  0.501  0.504  0.759-  70 1.80 116 1.88 182 1.95 196 1.97 230 2.04 136 2.08
  18  0.994  0.258  0.002- 117 1.82 110 1.84 146 1.98 141 1.99 183 2.03 212 2.08   1 2.88
  19  0.998  0.248  0.492-  74 1.78 213 1.92 202 1.94 184 1.94 223 1.95 142 2.02
  20  0.997  0.755  0.007- 118 1.83  71 1.84 203 1.94 185 1.97 214 2.02 148 2.05
  21  0.996  0.757  0.506-  72 1.83 119 1.84 204 1.95 186 1.97 147 2.02 215 2.03
  22  0.494  0.257  0.003- 120 1.80 109 1.85 150 1.97 143 1.99 187 2.04 216 2.07
  23  0.509  0.246  0.498-  93 1.80 112 1.91 144 1.93 149 1.94 224 1.98 199 2.02
  24  0.506  0.757  1.000-  94 1.82 121 1.84 152 1.94 145 1.99 217 2.01 200 2.01
  25  0.507  0.754  0.509-  73 1.79  95 1.84 225 1.97 218 1.97 201 2.02 151 2.07
  26  0.000  0.259  0.256- 122 1.79  74 1.89 209 1.95 188 1.97 141 2.00 219 2.05
  27  0.007  0.243  0.748- 113 1.82  96 1.83 142 1.97 146 1.99 226 2.04 210 2.05
  28  0.007  0.748  0.244-  71 1.83  97 1.83 220 1.94 227 1.99 147 2.04 211 2.05
  29  0.993  0.751  0.743- 111 1.82  72 1.85 228 1.93 221 1.98 148 2.02 189 2.02
  30  0.509  0.242  0.253-  98 1.79 114 1.85 143 1.95 149 1.98 229 2.02 205 2.06
  31  0.508  0.243  0.752-  99 1.84 115 1.85 150 1.94 144 1.99 230 2.02 206 2.03
  32  0.506  0.752  0.252- 100 1.79 151 1.92 231 1.93 145 1.94 222 1.95 207 2.01
  33  0.502  0.742  0.744- 116 1.80  73 1.84 190 1.93 208 1.97 152 2.03 232 2.06
  34  0.257  0.999  0.005-  75 1.85 101 1.85 246 1.93 233 1.96 157 2.03 171 2.04
  35  0.251  0.994  0.506- 128 1.83  76 1.84 172 1.95 191 1.99 156 2.02 234 2.03
  36  0.243  0.506  0.998- 123 1.83  89 1.84 159 1.94 153 1.98 192 2.02 245 2.03
  37  0.255  0.494  0.507-  77 1.86 102 1.88 127 1.88 173 2.04 158 2.05 235 2.05
  38  0.757  0.002  0.993- 103 1.84  81 1.85 236 1.91 249 1.96 174 2.03 154 2.07
  39  0.750  0.008  0.495-  80 1.83 124 1.84 193 1.94 155 1.99 175 2.00 250 2.05
  40  0.742  0.500  0.005-  90 1.81  78 1.88 247 1.91 237 1.96 161 2.04 194 2.06
  41  0.755  0.499  0.506-  79 1.84 104 1.86 248 1.96 238 1.99 176 2.02 160 2.02
  42  0.245  0.003  0.243-  75 1.83  91 1.86 239 1.93 252 1.97 156 2.04 195 2.05
  43  0.258  0.998  0.744- 105 1.84  76 1.84 253 1.93 240 1.97 177 2.03 157 2.03
  44  0.255  0.491  0.252- 129 1.83 106 1.84 158 1.93 153 1.97 178 2.04 241 2.05
  45  0.246  0.506  0.741-  77 1.79 125 1.83 179 1.95 196 1.98 251 2.03 159 2.06
  46  0.743  0.002  0.256-  92 1.84  80 1.86 242 1.95 256 1.95 154 1.99 197 2.02
  47  0.749  0.007  0.754- 126 1.82  81 1.83 180 1.94 198 1.97 257 2.04 155 2.05
  48  0.755  0.498  0.243-  78 1.81 107 1.87 254 1.95 243 1.96 181 2.02 160 2.06
  49  0.757  0.499  0.743- 108 1.83  79 1.84 255 1.94 244 1.98 161 2.03 182 2.04
  50  0.257  0.250  0.007- 109 1.84  82 1.86 245 1.93 233 1.97 168 2.03 183 2.06
  51  0.253  0.257  0.506- 127 1.81  83 1.86 199 1.97 184 2.02 167 2.04 234 2.05
  52  0.251  0.742  0.994- 123 1.82  86 1.84 200 1.94 185 1.96 162 2.04 246 2.04
  53  0.252  0.755  0.493-  85 1.83 128 1.87 201 1.95 186 1.98 235 2.00 163 2.04
  54  0.755  0.251  0.005- 110 1.96  84 1.98 247 2.00 236 2.02 187 2.03 170 2.07
  55  0.742  0.243  0.497- 124 1.83  93 1.85 169 1.91 164 1.97 248 2.03 202 2.06
  56  0.742  0.750  0.994-  94 1.82  88 1.83 237 1.93 249 1.95 203 2.02 165 2.04
  57  0.741  0.753  0.494-  95 1.82  87 1.86 250 1.95 238 1.97 166 2.01 204 2.04
  58  0.251  0.258  0.244- 129 1.82  82 1.83 205 1.96 188 2.02 167 2.04 239 2.04
  59  0.244  0.252  0.745-  83 1.84  96 1.85 251 1.93 240 1.98 168 2.04 206 2.05
  60  0.244  0.747  0.256-  97 1.84  85 1.84 241 1.93 252 1.98 162 2.02 207 2.05
  61  0.248  0.741  0.757- 125 1.81  86 1.84 189 1.93 208 1.98 163 2.04 253 2.04
  62  0.741  0.253  0.243-  84 1.73  98 1.88 254 1.95 242 1.98 209 2.08 169 2.12
  63  0.745  0.243  0.750- 126 1.83  99 1.85 170 1.91 164 2.01 210 2.02 255 2.05
  64  0.745  0.750  0.257-  87 1.82 100 1.90 243 1.94 256 1.95 211 1.98 165 2.02
  65  0.757  0.750  0.757- 111 1.82  88 1.84 257 1.93 244 1.97 190 2.03 166 2.05
  66  0.011  0.500  0.625-  13 1.83   5 1.83
  67  0.994  0.010  0.376-   3 1.83  10 1.85
  68  0.998  0.004  0.871-  11 1.81   2 1.85
  69  0.497  0.490  0.376-  16 1.83   9 1.86
  70  0.491  0.493  0.875-  17 1.80   8 1.89
  71  0.999  0.746  0.126-  28 1.83  20 1.84
  72  0.002  0.748  0.624-  21 1.83  29 1.85
  73  0.503  0.749  0.625-  25 1.79  33 1.84
  74  0.987  0.244  0.377-  19 1.78  26 1.89
  75  0.255  0.003  0.125-  42 1.83  34 1.85
  76  0.254  0.004  0.625-  43 1.84  35 1.84
  77  0.236  0.493  0.626-  45 1.79  37 1.86
  78  0.748  0.488  0.126-  48 1.81  40 1.88
  79  0.744  0.492  0.625-  49 1.84  41 1.84
  80  0.752  0.002  0.376-  39 1.83  46 1.86
  81  0.750  0.001  0.873-  47 1.83  38 1.85
  82  0.238  0.250  0.126-  58 1.83  50 1.86
  83  0.244  0.250  0.626-  59 1.84  51 1.86
  84  0.732  0.263  0.131-  62 1.73  54 1.98
  85  0.255  0.745  0.375-  53 1.83  60 1.84
  86  0.252  0.751  0.875-  52 1.84  61 1.84
  87  0.753  0.750  0.374-  64 1.82  57 1.86
  88  0.749  0.751  0.875-  56 1.83  65 1.84
  89  0.124  0.498  0.992-   4 1.84  36 1.84
  90  0.625  0.501  0.996-  40 1.81   8 1.88
  91  0.125  0.007  0.251-  10 1.83  42 1.86
  92  0.624  0.006  0.251-  46 1.84  14 1.85
  93  0.624  0.262  0.484-  23 1.80  55 1.85
  94  0.624  0.749  0.003-  56 1.82  24 1.82
  95  0.624  0.769  0.495-  57 1.82  25 1.84
  96  0.124  0.252  0.758-  27 1.83  59 1.85
  97  0.125  0.748  0.253-  28 1.83  60 1.84
  98  0.624  0.241  0.273-  30 1.79  62 1.88
  99  0.626  0.254  0.758-  31 1.84  63 1.85
 100  0.623  0.751  0.252-  32 1.79  64 1.90
 101  0.376  0.004  0.991-   6 1.83  34 1.85
 102  0.375  0.510  0.507-   9 1.81  37 1.88
 103  0.874  0.016  0.005-  38 1.84   2 1.93   1 1.99
 104  0.875  0.509  0.503-   5 1.84  41 1.86
 105  0.376  0.998  0.757-  15 1.81  43 1.84
 106  0.373  0.492  0.247-  44 1.84  16 1.84
 107  0.876  0.494  0.250-  12 1.82  48 1.87
 108  0.875  0.511  0.743-  13 1.82  49 1.83
 109  0.375  0.242  0.012-  50 1.84  22 1.85
 110  0.879  0.231  0.023-  18 1.84  54 1.96   1 2.01
 111  0.875  0.741  0.749-  65 1.82  29 1.82
 112  0.516  0.123  0.490-   7 1.77  23 1.91
 113  0.998  0.126  0.741-  27 1.82  11 1.83
 114  0.489  0.125  0.266-  14 1.80  30 1.85
 115  0.503  0.124  0.752-  15 1.83  31 1.85
 116  0.503  0.625  0.754-  33 1.80  17 1.88
 117  0.992  0.376  0.003-  18 1.82   4 1.85
 118  0.993  0.874  1.000-  20 1.83   2 1.83
 119  0.987  0.876  0.496-   3 1.81  21 1.84
 120  0.498  0.373  0.012-  22 1.80   8 1.88
 121  0.498  0.875  0.008-   6 1.84  24 1.84
 122  0.011  0.374  0.251-  26 1.79  12 1.87
 123  0.250  0.625  0.003-  52 1.82  36 1.83
 124  0.735  0.125  0.507-  55 1.83  39 1.84
 125  0.246  0.624  0.749-  61 1.81  45 1.83
 126  0.750  0.124  0.739-  47 1.82  63 1.83
 127  0.258  0.373  0.494-  51 1.81  37 1.88
 128  0.260  0.876  0.499-  35 1.83  53 1.87
 129  0.238  0.374  0.259-  58 1.82  44 1.83
 130  0.996  0.004  0.126-  10 2.02   2 2.09
 131  0.006  0.995  0.623-   3 2.01  11 2.04
 132  0.004  0.508  0.125-  12 1.97   4 1.99
 133  0.494  0.013  0.126-  14 1.93   6 1.96
 134  0.498  0.000  0.623-   7 1.92  15 2.00
 135  0.504  0.511  0.128-  16 2.02   8 2.04
 136  0.510  0.503  0.625-   9 2.01  17 2.08
 137  0.001  0.498  0.377-  12 1.93   5 2.03
 138  0.991  0.499  0.873-   4 1.93  13 2.02
 139  0.502  0.984  0.376-   7 1.92  14 1.98
 140  0.516  0.995  0.875-  15 1.94   6 1.95
 141  0.019  0.249  0.128-  18 1.99  26 2.00
 142  0.010  0.261  0.621-  27 1.97  19 2.02
 143  0.518  0.235  0.128-  30 1.95  22 1.99
 144  0.510  0.243  0.623-  23 1.93  31 1.99
 145  0.497  0.740  0.127-  32 1.94  24 1.99
 146  0.986  0.246  0.875-  18 1.98  27 1.99
 147  0.993  0.750  0.375-  21 2.02  28 2.04
 148  0.001  0.750  0.874-  29 2.02  20 2.05
 149  0.481  0.265  0.376-  23 1.94  30 1.98
 150  0.489  0.256  0.875-  31 1.94  22 1.97
 151  0.491  0.760  0.376-  32 1.92  25 2.07
 152  0.498  0.756  0.874-  24 1.94  33 2.03
 153  0.241  0.492  0.125-  44 1.97  36 1.98
 154  0.750  0.001  0.127-  46 1.99  38 2.07
 155  0.745  0.992  0.623-  39 1.99  47 2.05
 156  0.253  0.002  0.375-  35 2.02  42 2.04
 157  0.242  0.994  0.874-  43 2.03  34 2.03
 158  0.251  0.513  0.376-  44 1.93  37 2.05
 159  0.262  0.499  0.874-  36 1.94  45 2.06
 160  0.749  0.512  0.376-  41 2.02  48 2.06
 161  0.755  0.512  0.874-  49 2.03  40 2.04
 162  0.250  0.755  0.125-  60 2.02  52 2.04
 163  0.248  0.752  0.625-  53 2.04  61 2.04
 164  0.741  0.264  0.622-  55 1.97  63 2.01
 165  0.752  0.752  0.126-  64 2.02  56 2.04
 166  0.746  0.752  0.624-  57 2.01  65 2.05
 167  0.262  0.243  0.375-  51 2.04  58 2.04
 168  0.260  0.250  0.876-  50 2.03  59 2.04
 169  0.771  0.240  0.376-  55 1.91  62 2.12
 170  0.767  0.239  0.872-  63 1.91  54 2.07
 171  0.125  0.995  0.002-   2 1.99  34 2.04
 172  0.125  0.995  0.496-   3 1.95  35 1.95
 173  0.124  0.494  0.490-   5 2.02  37 2.04
 174  0.626  0.993  0.007-  38 2.03   6 2.04
 175  0.624  0.978  0.501-   7 1.94  39 2.00
 176  0.625  0.487  0.496-  41 2.02   9 2.07
 177  0.127  0.999  0.747-  11 1.94  43 2.03
 178  0.124  0.511  0.252-  12 2.03  44 2.04
 179  0.123  0.491  0.766-  45 1.95  13 2.05
 180  0.624  0.993  0.742-  47 1.94  15 2.04
 181  0.625  0.504  0.253-  48 2.02  16 2.05
 182  0.626  0.491  0.759-  17 1.95  49 2.04
 183  0.124  0.254  0.988-  18 2.03  50 2.06
 184  0.124  0.254  0.489-  19 1.94  51 2.02
 185  0.125  0.751  0.000-  52 1.96  20 1.97
 186  0.124  0.759  0.494-  21 1.97  53 1.98
 187  0.625  0.255  0.985-  54 2.03  22 2.04
 188  0.125  0.233  0.266-  26 1.97  58 2.02
 189  0.123  0.756  0.752-  61 1.93  29 2.02
 190  0.626  0.757  0.751-  33 1.93  65 2.03
 191  0.378  0.015  0.495-   7 1.92  35 1.99
 192  0.373  0.499  0.011-  36 2.02   8 2.03
 193  0.874  0.016  0.511-  39 1.94   3 1.96
 194  0.875  0.507  0.003-   4 2.01  40 2.06
 195  0.376  0.991  0.255-  14 2.00  42 2.05
 196  0.375  0.500  0.737-  17 1.97  45 1.98
 197  0.874  0.997  0.245-  46 2.02  10 2.06
 198  0.875  0.995  0.739-  47 1.97  11 1.98
 199  0.379  0.235  0.509-  51 1.97  23 2.02
 200  0.376  0.752  0.003-  52 1.94  24 2.01
 201  0.377  0.737  0.503-  53 1.95  25 2.02
 202  0.874  0.242  0.515-  19 1.94  55 2.06
 203  0.873  0.745  0.999-  20 1.94  56 2.02
 204  0.872  0.736  0.504-  21 1.95  57 2.04
 205  0.378  0.261  0.237-  58 1.96  30 2.06
 206  0.377  0.248  0.743-  31 2.03  59 2.05
 207  0.376  0.753  0.246-  32 2.01  60 2.05
 208  0.375  0.753  0.748-  33 1.97  61 1.98
 209  0.875  0.260  0.236-  26 1.95  62 2.08
 210  0.875  0.253  0.735-  63 2.02  27 2.05
 211  0.874  0.752  0.248-  64 1.98  28 2.05
 212  0.009  0.124  0.010-   1 2.00   2 2.08  18 2.08
 213  0.007  0.126  0.512-  19 1.92   3 2.08
 214  0.000  0.625  0.994-  20 2.02   4 2.02
 215  0.010  0.627  0.494-   5 1.93  21 2.03
 216  0.510  0.124  0.994-   6 2.02  22 2.07
 217  0.494  0.627  0.995-  24 2.01   8 2.06
 218  0.514  0.627  0.493-  25 1.97   9 2.00
 219  0.985  0.128  0.239-  10 1.97  26 2.05
 220  0.995  0.624  0.257-  28 1.94  12 2.01
 221  0.013  0.625  0.754-  13 1.97  29 1.98
 222  0.496  0.626  0.261-  32 1.95  16 2.01
 223  0.993  0.374  0.496-  19 1.95   5 2.01
 224  0.487  0.372  0.511-  23 1.98   9 1.99
 225  0.481  0.878  0.504-  25 1.97   7 2.04
 226  0.993  0.374  0.753-  13 1.94  27 2.04
 227  0.999  0.877  0.252-  10 1.96  28 1.99
 228  0.998  0.876  0.749-  29 1.93  11 2.05
 229  0.509  0.372  0.238-  16 1.96  30 2.02
 230  0.495  0.373  0.741-  31 2.02  17 2.04
 231  0.500  0.876  0.240-  32 1.93  14 2.07
 232  0.501  0.875  0.749-  15 2.01  33 2.06
 233  0.240  0.124  0.993-  34 1.96  50 1.97
 234  0.242  0.124  0.497-  35 2.03  51 2.05
 235  0.239  0.627  0.507-  53 2.00  37 2.05
 236  0.735  0.122  0.010-  38 1.91  54 2.02
 237  0.753  0.626  0.008-  56 1.93  40 1.96
 238  0.735  0.626  0.505-  57 1.97  41 1.99
 239  0.264  0.126  0.252-  42 1.93  58 2.04
 240  0.250  0.124  0.758-  43 1.97  59 1.98
 241  0.255  0.624  0.239-  60 1.93  44 2.05
 242  0.764  0.126  0.244-  46 1.95  62 1.98
 243  0.751  0.625  0.243-  64 1.94  48 1.96
 244  0.736  0.625  0.744-  65 1.97  49 1.98
 245  0.254  0.375  0.997-  50 1.93  36 2.03
 246  0.251  0.874  0.003-  34 1.93  52 2.04
 247  0.760  0.379  0.983-  40 1.91  54 2.00
 248  0.762  0.373  0.488-  41 1.96  55 2.03
 249  0.757  0.875  0.005-  56 1.95  38 1.96
 250  0.768  0.877  0.500-  57 1.95  39 2.05
 251  0.256  0.376  0.758-  59 1.93  45 2.03
 252  0.249  0.876  0.252-  42 1.97  60 1.98
 253  0.248  0.873  0.746-  43 1.93  61 2.04
 254  0.743  0.376  0.272-  48 1.95  62 1.95
 255  0.758  0.374  0.761-  49 1.94  63 2.05
 256  0.750  0.876  0.247-  64 1.95  46 1.95
 257  0.754  0.875  0.747-  65 1.93  47 2.04
 

IMPORTANT INFORMATION: All symmetrisations will be switched off!
NOSYMM: (Re-)initialisation of all symmetry stuff for point group C_1.

 
 
 KPOINTS: Title                                   

Automatic generation of k-mesh.
Space group operators:
 irot       det(A)        alpha          n_x          n_y          n_z        tau_x        tau_y        tau_z
    1     1.000000     0.000001     1.000000     0.000000     0.000000     0.000000     0.000000     0.000000
 
 Subroutine IBZKPT returns following result:
 ===========================================
 
 Found      4 irreducible k-points:
 
 Following reciprocal coordinates:
            Coordinates               Weight
  0.250000  0.250000  0.250000      2.000000
 -0.250000  0.250000  0.250000      2.000000
  0.250000 -0.250000  0.250000      2.000000
 -0.250000 -0.250000  0.250000      2.000000
 
 Following cartesian coordinates:
            Coordinates               Weight
  0.016206  0.016206  0.016206      2.000000
 -0.016206  0.016206  0.016206      2.000000
  0.016206 -0.016206  0.016206      2.000000
 -0.016206 -0.016206  0.016206      2.000000
 


--------------------------------------------------------------------------------------------------------




 Dimension of arrays:
   k-points           NKPTS =      4   k-points in BZ     NKDIM =      4   number of bands    NBANDS=   1164
   number of dos      NEDOS =   3001   number of ions     NIONS =    257
   non local maximal  LDIM  =      6   non local SUM 2l+1 LMDIM =     18
   total plane-waves  NPLWV = ******
   max r-space proj   IRMAX =   7595   max aug-charges    IRDMAX= 146383
   dimension x,y,z NGX =   120 NGY =  120 NGZ =  120
   dimension x,y,z NGXF=   240 NGYF=  240 NGZF=  240
   support grid    NGXF=   480 NGYF=  480 NGZF=  480
   ions per type =               1  64  64 128
   NGX,Y,Z   is equivalent  to a cutoff of  12.93, 12.93, 12.93 a.u.
   NGXF,Y,Z  is equivalent  to a cutoff of  25.86, 25.86, 25.86 a.u.

 SYSTEM =  LTO                                     
 POSCAR =  config 49                               

 Startparameter for this run:
   NWRITE =      2    write-flag & timer
   PREC   = accura    normal or accurate (medium, high low for compatibility)
   ISTART =      1    job   : 0-new  1-cont  2-samecut
   ICHARG =      0    charge: 1-file 2-atom 10-const
   ISPIN  =      2    spin polarized calculation?
   LNONCOLLINEAR =      F non collinear calculations
   LSORBIT =      F    spin-orbit coupling
   INIWAV =      1    electr: 0-lowe 1-rand  2-diag
   LASPH  =      T    aspherical Exc in radial PAW
   METAGGA=      F    non-selfconsistent MetaGGA calc.

 Electronic Relaxation 1
   ENCUT  =  500.0 eV  36.75 Ry    6.06 a.u.  28.13 28.13 28.13*2*pi/ulx,y,z
   ENINI  =  500.0     initial cutoff
   ENAUG  =  628.9 eV  augmentation charge cutoff
   NELM   =     60;   NELMIN=  2; NELMDL=  0     # of ELM steps 
   EDIFF  = 0.1E-05   stopping-criterion for ELM
   LREAL  =      T    real-space projection
   NLSPLINE    = F    spline interpolate recip. space projectors
   LCOMPAT=      F    compatible to vasp.4.4
   GGA_COMPAT  = T    GGA compatible to vasp.4.4-vasp.4.6
   LMAXPAW     = -100 max onsite density
   LMAXMIX     =    4 max onsite mixed and CHGCAR
   VOSKOWN=      0    Vosko Wilk Nusair interpolation
   ROPT   =   -0.00010  -0.00010  -0.00010  -0.00010
 Ionic relaxation
   EDIFFG = -.5E-01   stopping-criterion for IOM
   NSW    =    100    number of steps for IOM
   NBLOCK =      1;   KBLOCK =    100    inner block; outer block 
   IBRION =      1    ionic relax: 0-MD 1-quasi-New 2-CG
   NFREE  =      0    steps in history (QN), initial steepest desc. (CG)
   ISIF   =      2    stress and relaxation
   IWAVPR =     11    prediction:  0-non 1-charg 2-wave 3-comb
   ISYM   =      0    0-nonsym 1-usesym 2-fastsym
   LCORR  =      T    Harris-Foulkes like correction to forces

   POTIM  = 0.5000    time-step for ionic-motion
   TEIN   =    0.0    initial temperature
   TEBEG  =    0.0;   TEEND  =   0.0 temperature during run
   SMASS  =  -3.00    Nose mass-parameter (am)
   estimated Nose-frequenzy (Omega)   =  0.10E-29 period in steps =****** mass=  -0.544E-26a.u.
   SCALEE = 1.0000    scale energy and forces
   NPACO  =    256;   APACO  = 16.0  distance and # of slots for P.C.
   PSTRESS=    0.0 pullay stress

  Mass of Ions in am
   POMASS =   7.01 47.88 16.00 19.00
  Ionic Valenz
   ZVAL   =   3.00 10.00  6.00  7.00
  Atomic Wigner-Seitz radii
   RWIGS  =  -1.00 -1.00 -1.00 -1.00
  virtual crystal weights 
   VCA    =   1.00  1.00  1.00  1.00
   NELECT =    1923.0000    total number of electrons
   NUPDOWN=       1.0000    fix difference up-down

 DOS related values:
   EMIN   =  10.00;   EMAX   =-10.00  energy-range for DOS
   EFERMI =   0.00
   ISMEAR =     0;   SIGMA  =   0.01  broadening in eV -4-tet -1-fermi 0-gaus

 Electronic relaxation 2 (details)
   IALGO  =     38    algorithm
   LDIAG  =      T    sub-space diagonalisation (order eigenvalues)
   LSUBROT=      F    optimize rotation matrix (better conditioning)
   TURBO    =      0    0=normal 1=particle mesh
   IRESTART =      0    0=no restart 2=restart with 2 vectors
   NREBOOT  =      0    no. of reboots
   NMIN     =      0    reboot dimension
   EREF     =   0.00    reference energy to select bands
   IMIX   =      4    mixing-type and parameters
     AMIX     =   0.40;   BMIX     =  1.00
     AMIX_MAG =   1.60;   BMIX_MAG =  1.00
     AMIN     =   0.10
     WC   =   100.;   INIMIX=   1;  MIXPRE=   1;  MAXMIX= -45

 Intra band minimization:
   WEIMIN = 0.0010     energy-eigenvalue tresh-hold
   EBREAK =  0.21E-09  absolut break condition
   DEPER  =   0.30     relativ break condition  

   TIME   =   0.40     timestep for ELM

  volume/ion in A,a.u.               =      14.28        96.39
  Fermi-wavevector in a.u.,A,eV,Ry     =   1.319690  2.493853 23.695660  1.741582
  Thomas-Fermi vector in A             =   2.449570
 
 Write flags
   LWAVE        =      T    write WAVECAR
   LDOWNSAMPLE  =      F    k-point downsampling of WAVECAR
   LCHARG       =      T    write CHGCAR
   LVTOT        =      F    write LOCPOT, total local potential
   LVHAR        =      F    write LOCPOT, Hartree potential only
   LELF         =      F    write electronic localiz. function (ELF)
   LORBIT       =     11    0 simple, 1 ext, 2 COOP (PROOUT), +10 PAW based schemes


 Dipole corrections
   LMONO  =      F    monopole corrections only (constant potential shift)
   LDIPOL =      F    correct potential (dipole corrections)
   IDIPOL =      0    1-x, 2-y, 3-z, 4-all directions 
   EPSILON=  1.0000000 bulk dielectric constant

 LDA+U is selected, type is set to LDAUTYPE =  2
   angular momentum for each species LDAUL =    -1    2   -1   -1
   U (eV)           for each species LDAUU =   0.0  4.2  0.0  0.0
   J (eV)           for each species LDAUJ =   0.0  0.0  0.0  0.0
 Exchange correlation treatment:
   GGA     =    PS    GGA type
   LEXCH   =    14    internal setting for exchange type
   VOSKOWN=      0    Vosko Wilk Nusair interpolation
   LHFCALC =     F    Hartree Fock is set to
   LHFONE  =     F    Hartree Fock one center treatment
   AEXX    =    0.0000 exact exchange contribution

 Linear response parameters
   LEPSILON=     F    determine dielectric tensor
   LRPA    =     F    only Hartree local field effects (RPA)
   LNABLA  =     F    use nabla operator in PAW spheres
   LVEL    =     F    velocity operator in full k-point grid
   LINTERFAST=   F  fast interpolation
   KINTER  =     0    interpolate to denser k-point grid
   CSHIFT  =0.1000    complex shift for real part using Kramers Kronig
   OMEGAMAX=  -1.0    maximum frequency
   DEG_THRESHOLD= 0.2000000E-02 threshold for treating states as degnerate
   RTIME   =   -0.100 relaxation time in fs
  (WPLASMAI=    0.000 imaginary part of plasma frequency in eV, 0.658/RTIME)
   DFIELD  = 0.0000000 0.0000000 0.0000000 field for delta impulse in time
 
 Orbital magnetization related:
   ORBITALMAG=     F  switch on orbital magnetization
   LCHIMAG   =     F  perturbation theory with respect to B field
   DQ        =  0.001000  dq finite difference perturbation B field
   LLRAUG    =     F  two centre corrections for induced B field



--------------------------------------------------------------------------------------------------------


 quasi-Newton-method for relaxation of ions
 charge density and potential will be updated during run
 spin polarized calculation
 Variant of blocked Davidson
 Davidson routine will perform the subspace rotation
 perform sub-space diagonalisation
    after iterative eigenvector-optimisation
 modified Broyden-mixing scheme, WC =      100.0
 initial mixing is a Kerker type mixing with AMIX =  0.4000 and BMIX =      1.0000
 Hartree-type preconditioning will be used
 using additional bands          202
 real space projection scheme for non local part
 use partial core corrections
 calculate Harris-corrections to forces 
   (improved forces if not selfconsistent)
 use gradient corrections 
 use of overlap-Matrix (Vanderbilt PP)
 Gauss-broadening in eV      SIGMA  =   0.01


--------------------------------------------------------------------------------------------------------


  energy-cutoff  :      500.00
  volume of cell :     3671.03
      direct lattice vectors                 reciprocal lattice vectors
    15.426331000  0.000000000  0.000000000     0.064824228  0.000000000  0.000000000
     0.000000000 15.426331000  0.000000000     0.000000000  0.064824228  0.000000000
     0.000000000  0.000000000 15.426331000     0.000000000  0.000000000  0.064824228

  length of vectors
    15.426331000 15.426331000 15.426331000     0.064824228  0.064824228  0.064824228


 
 old parameters found on file WAVECAR:
  energy-cutoff  :      500.00
  volume of cell :     3671.03
      direct lattice vectors                 reciprocal lattice vectors
    15.426331000  0.000000000  0.000000000     0.064824228  0.000000000  0.000000000
     0.000000000 15.426331000  0.000000000     0.000000000  0.064824228  0.000000000
     0.000000000  0.000000000 15.426331000     0.000000000  0.000000000  0.064824228

  length of vectors

 
 k-points in units of 2pi/SCALE and weight: Title                                   
   0.01620606  0.01620606  0.01620606       0.250
  -0.01620606  0.01620606  0.01620606       0.250
   0.01620606 -0.01620606  0.01620606       0.250
  -0.01620606 -0.01620606  0.01620606       0.250
 
 k-points in reciprocal lattice and weights: Title                                   
   0.25000000  0.25000000  0.25000000       0.250
  -0.25000000  0.25000000  0.25000000       0.250
   0.25000000 -0.25000000  0.25000000       0.250
  -0.25000000 -0.25000000  0.25000000       0.250
 
 position of ions in fractional coordinates (direct lattice) 
   0.90059059  0.11715232  0.08143159
   0.99639590  0.99184948  0.99104321
   0.99809934  0.99214001  0.49302805
   0.00484861  0.49482587  0.99742692
   0.99413756  0.50335182  0.50770775
   0.49421475  0.99422125  0.00009671
   0.50170502  0.00865511  0.49864345
   0.50358622  0.49403958  0.99676316
   0.49173049  0.49941612  0.49592166
   0.00632127  0.00361252  0.25658499
   0.00143950  0.00829167  0.75422019
   0.99341146  0.49386103  0.25185576
   0.99258938  0.49941990  0.74182901
   0.50463908  0.00992372  0.25082807
   0.49317835  0.00532894  0.75225235
   0.49228331  0.49625417  0.25772233
   0.50061757  0.50358253  0.75919282
   0.99389199  0.25804562  0.00217155
   0.99784252  0.24788252  0.49162775
   0.99736074  0.75549310  0.00651215
   0.99648861  0.75716141  0.50589319
   0.49405489  0.25694709  0.00326239
   0.50922816  0.24612317  0.49764119
   0.50649357  0.75660400  0.99975541
   0.50705143  0.75355790  0.50874198
   0.00039771  0.25901429  0.25632200
   0.00681209  0.24318236  0.74776627
   0.00664103  0.74845503  0.24372338
   0.99270374  0.75060326  0.74330533
   0.50922110  0.24214145  0.25335505
   0.50766357  0.24331507  0.75190172
   0.50645170  0.75170318  0.25201251
   0.50198740  0.74162296  0.74384283
   0.25719903  0.99857261  0.00525233
   0.25080391  0.99352538  0.50586941
   0.24287450  0.50648473  0.99783275
   0.25457516  0.49431141  0.50712598
   0.75687326  0.00163586  0.99283216
   0.74965757  0.00799087  0.49453704
   0.74188968  0.49950617  0.00504585
   0.75522783  0.49871940  0.50584236
   0.24461387  0.00265747  0.24315215
   0.25797326  0.99782991  0.74386785
   0.25456060  0.49139519  0.25212407
   0.24639093  0.50561361  0.74124759
   0.74338150  0.00204254  0.25602588
   0.74864348  0.00727412  0.75424539
   0.75500601  0.49814067  0.24292686
   0.75701704  0.49863279  0.74272362
   0.25654191  0.25026606  0.00723071
   0.25348275  0.25657838  0.50578818
   0.25134952  0.74176654  0.99389364
   0.25226866  0.75508562  0.49305712
   0.75462493  0.25147941  0.00541385
   0.74202333  0.24327222  0.49669572
   0.74196804  0.75001821  0.99421300
   0.74124774  0.75336306  0.49410502
   0.25114248  0.25759048  0.24409608
   0.24379096  0.25152840  0.74455577
   0.24388829  0.74739197  0.25598266
   0.24773916  0.74142506  0.75664225
   0.74112783  0.25267624  0.24278183
   0.74506195  0.24253579  0.75047450
   0.74547645  0.75007419  0.25691288
   0.75732002  0.75044146  0.75670442
   0.01115147  0.50017432  0.62492566
   0.99392109  0.00983527  0.37573449
   0.99772267  0.00368616  0.87143169
   0.49662458  0.48976283  0.37592386
   0.49097988  0.49305789  0.87506918
   0.99925845  0.74600044  0.12555089
   0.00224048  0.74808253  0.62390911
   0.50318395  0.74909870  0.62457626
   0.98666482  0.24370375  0.37689552
   0.25461609  0.00307801  0.12486051
   0.25441175  0.00356843  0.62484798
   0.23637646  0.49349927  0.62605885
   0.74803137  0.48817618  0.12630233
   0.74356331  0.49181313  0.62451729
   0.75183526  0.00228982  0.37636757
   0.74993332  0.00137667  0.87302870
   0.23819630  0.25002553  0.12627235
   0.24421382  0.25031796  0.62554267
   0.73220304  0.26268486  0.13140508
   0.25526821  0.74495479  0.37474404
   0.25198222  0.75119612  0.87530045
   0.75275870  0.74957742  0.37438482
   0.74856225  0.75050424  0.87545895
   0.12392237  0.49760190  0.99210059
   0.62518534  0.50143293  0.99631459
   0.12455982  0.00733415  0.25127605
   0.62431185  0.00635551  0.25073098
   0.62427205  0.26240594  0.48409049
   0.62446744  0.74922484  0.00316861
   0.62430669  0.76884849  0.49487120
   0.12435359  0.25247971  0.75797783
   0.12488941  0.74843365  0.25290202
   0.62363884  0.24071116  0.27287570
   0.62623047  0.25378908  0.75823129
   0.62260470  0.75075935  0.25195193
   0.37603400  0.00431518  0.99122001
   0.37537271  0.51007815  0.50719428
   0.87429743  0.01632838  0.00531685
   0.87528199  0.50862416  0.50328769
   0.37621259  0.99794658  0.75736163
   0.37345994  0.49224196  0.24678138
   0.87568903  0.49388135  0.25039674
   0.87520307  0.51064624  0.74276270
   0.37524366  0.24231275  0.01247044
   0.87915191  0.23148239  0.02281560
   0.87489814  0.74135902  0.74864793
   0.51560911  0.12256295  0.49037187
   0.99792102  0.12602687  0.74080711
   0.48919519  0.12482758  0.26639160
   0.50297908  0.12374541  0.75210634
   0.50326463  0.62507431  0.75374744
   0.99168325  0.37568615  0.00287864
   0.99337903  0.87357368  0.99975956
   0.98690060  0.87561402  0.49587685
   0.49791752  0.37318896  0.01215103
   0.49829363  0.87530750  0.00844470
   0.01113287  0.37420124  0.25109874
   0.24967284  0.62450533  0.00348662
   0.73479173  0.12542400  0.50656908
   0.24553906  0.62429104  0.74886218
   0.74967950  0.12442540  0.73912613
   0.25823156  0.37297794  0.49366400
   0.25954150  0.87561306  0.49916390
   0.23809916  0.37407242  0.25884981
   0.99600159  0.00433699  0.12601318
   0.00605753  0.99487402  0.62285710
   0.00351638  0.50771680  0.12546184
   0.49386589  0.01281665  0.12610387
   0.49796102  0.00042448  0.62276258
   0.50379820  0.51134976  0.12796226
   0.51048286  0.50337333  0.62473635
   0.00054760  0.49804924  0.37668039
   0.99116021  0.49885415  0.87296007
   0.50242318  0.98392889  0.37646472
   0.51590823  0.99509659  0.87533544
   0.01900357  0.24852053  0.12848203
   0.01015103  0.26081415  0.62149746
   0.51810222  0.23460333  0.12772579
   0.50996638  0.24308705  0.62284708
   0.49654619  0.74003436  0.12712137
   0.98551311  0.24604682  0.87481062
   0.99276303  0.74995278  0.37496283
   0.00119713  0.75024330  0.87378075
   0.48067598  0.26539281  0.37642131
   0.48916378  0.25584182  0.87544071
   0.49124583  0.75988599  0.37555606
   0.49757042  0.75626423  0.87437716
   0.24098213  0.49159543  0.12508033
   0.75040600  0.00065917  0.12704128
   0.74481450  0.99190530  0.62255883
   0.25255582  0.00191276  0.37505385
   0.24217437  0.99386035  0.87429728
   0.25063002  0.51293363  0.37560856
   0.26213031  0.49926445  0.87399092
   0.74864282  0.51158599  0.37579055
   0.75479536  0.51178094  0.87369703
   0.25047161  0.75534297  0.12517421
   0.24770782  0.75170906  0.62486410
   0.74080313  0.26433205  0.62234202
   0.75224636  0.75196709  0.12596736
   0.74642512  0.75195537  0.62432606
   0.26234900  0.24270372  0.37483313
   0.25968464  0.24980700  0.87571972
   0.77138204  0.23963603  0.37630562
   0.76652114  0.23911393  0.87226595
   0.12507058  0.99498034  0.00198101
   0.12452006  0.99450757  0.49604131
   0.12354163  0.49352375  0.48996963
   0.62618255  0.99281188  0.00717268
   0.62372699  0.97842230  0.50064617
   0.62529289  0.48747889  0.49576317
   0.12670370  0.99933119  0.74745519
   0.12397005  0.51126652  0.25228368
   0.12319460  0.49102141  0.76588045
   0.62418530  0.99336441  0.74243069
   0.62458990  0.50392199  0.25265177
   0.62628648  0.49051791  0.75882983
   0.12431518  0.25390307  0.98778809
   0.12357740  0.25351772  0.48854538
   0.12464503  0.75148210  0.00024278
   0.12374537  0.75911379  0.49419022
   0.62482880  0.25473653  0.98478916
   0.12473988  0.23297395  0.26613928
   0.12329589  0.75609039  0.75171449
   0.62616921  0.75680948  0.75139779
   0.37770532  0.01518001  0.49534552
   0.37280463  0.49919582  0.01088269
   0.87436031  0.01638149  0.51080772
   0.87514058  0.50739670  0.00326550
   0.37638792  0.99140531  0.25546123
   0.37452468  0.50034920  0.73748332
   0.87367269  0.99697372  0.24519703
   0.87466456  0.99546364  0.73894046
   0.37929763  0.23514084  0.50880396
   0.37606695  0.75174918  0.00299542
   0.37718452  0.73680890  0.50341523
   0.87442542  0.24210088  0.51520563
   0.87257184  0.74529425  0.99857343
   0.87212894  0.73574109  0.50438991
   0.37765827  0.26103601  0.23748297
   0.37652139  0.24766204  0.74319094
   0.37635080  0.75251511  0.24636455
   0.37499253  0.75289114  0.74761475
   0.87543427  0.25995230  0.23606675
   0.87483539  0.25275498  0.73523555
   0.87368064  0.75180812  0.24828723
   0.00861837  0.12444768  0.01013588
   0.00672709  0.12570720  0.51177081
   0.00043504  0.62548026  0.99390487
   0.00959193  0.62704763  0.49394446
   0.50974861  0.12383485  0.99353364
   0.49377365  0.62707416  0.99532494
   0.51411665  0.62697408  0.49251338
   0.98478269  0.12810233  0.23911989
   0.99461992  0.62380559  0.25698171
   0.01330508  0.62463094  0.75437985
   0.49640441  0.62629465  0.26115896
   0.99345970  0.37384453  0.49632569
   0.48741926  0.37152895  0.51146569
   0.48133934  0.87841946  0.50375164
   0.99303859  0.37445908  0.75335239
   0.99893930  0.87671460  0.25163415
   0.99779121  0.87575321  0.74881652
   0.50860801  0.37188137  0.23780992
   0.49548515  0.37291081  0.74092630
   0.50011013  0.87626731  0.23979758
   0.50082821  0.87534661  0.74928456
   0.24012992  0.12406024  0.99331894
   0.24214126  0.12426192  0.49706702
   0.23920474  0.62659998  0.50657487
   0.73484683  0.12218118  0.01002457
   0.75307674  0.62597174  0.00784171
   0.73545822  0.62636811  0.50504426
   0.26352128  0.12621152  0.25230713
   0.25008201  0.12430687  0.75766423
   0.25457165  0.62354540  0.23928321
   0.76355268  0.12630471  0.24405110
   0.75104549  0.62531633  0.24339405
   0.73632162  0.62537115  0.74392648
   0.25372993  0.37508646  0.99684639
   0.25055865  0.87376340  0.00272793
   0.75996699  0.37902156  0.98255094
   0.76195601  0.37298807  0.48755104
   0.75733701  0.87533144  0.00501360
   0.76843027  0.87674906  0.50046446
   0.25593595  0.37561670  0.75755456
   0.24912349  0.87565776  0.25214242
   0.24807255  0.87340677  0.74584422
   0.74338333  0.37581997  0.27242630
   0.75785755  0.37440296  0.76074089
   0.74969845  0.87598628  0.24699322
   0.75357960  0.87520857  0.74673331
 
 position of ions in cartesian coordinates  (Angst):
  13.89280855  1.80723050  1.25619062
  15.37073301 15.30059844 15.28816066
  15.39701077 15.30508025  7.60561396
   0.07479626  7.63334772 15.38663779
  15.33589504  7.76487181  7.83206785
   7.62392036 15.33718608  0.00149181
   7.73946775  0.13351659  7.69223886
   7.76848776  7.62121808 15.37639846
   7.58559725  7.70415840  7.65025172
   0.09751403  0.05572786  3.95816504
   0.02220619  0.12791004 11.63485033
  15.32469403  7.61846372  3.88521035
  15.31201235  7.70421666 11.44369986
   7.78472953  0.15308658  3.86935681
   7.60793252  0.08220593 11.60449375
   7.59412523  7.65538102  3.97570992
   7.72269241  7.76843076 11.71155969
  15.33210679  3.98069711  0.03349902
  15.39304906  3.82391781  7.58401237
  15.38561682 11.65448669  0.10045860
  15.37216306 11.68022258  7.80407579
   7.62145429  3.96375082  0.05032674
   7.85552212  3.79677747  7.67677779
   7.81333751 11.67162370 15.42255786
   7.82194314 11.62463367  7.84802215
   0.00613522  3.99564020  3.95410807
   0.10508555  3.75141162 11.53529001
   0.10244678 11.54591502  3.75975747
  15.31377640 11.57905441 11.46647405
   7.85541316  3.73535420  3.90833879
   7.83138629  3.75345882 11.59908487
   7.81269154 11.59602206  3.88762838
   7.74382382 11.44052133 11.47476577
   3.96763731 15.40431158  0.08102411
   3.86898407 15.32645132  7.80370890
   3.74666235  7.81320113 15.39289832
   3.92716074  7.62541147  7.82309317
  11.67577741  0.02523526 15.31575747
  11.56446582  0.12326986  7.62889207
  11.44463571  7.70554748  0.07783897
  11.65039445  7.69341054  7.80329165
   3.77349450  0.04099494  3.75094559
   3.97958090 15.39285450 11.47515167
   3.92693600  7.58042491  3.88934933
   3.80090798  7.79976284 11.43473066
  11.46764903  0.03150897  3.94953989
  11.54882206  0.11221302 11.63523909
  11.64697260  7.68448282  3.74747019
  11.67799549  7.69207452 11.45750047
   3.95750048  3.86068711  0.11154331
   3.91030884  3.95806296  7.80245582
   3.87740093 11.44273611 15.33213227
   3.89157983 11.64820078  7.60606231
  11.64109392  3.87940462  0.08351586
  11.44669749  3.75279783  7.66219251
  11.44584460 11.57002917 15.33705890
  11.43473299 11.62162785  7.62222752
   3.87420709  3.97367593  3.76550688
   3.76080003  3.88016034 11.48576378
   3.76230155 11.52951589  3.94887325
   3.82170634 11.43746834 11.67221380
  11.43288325  3.89786734  3.74523281
  11.49357226  3.74143737 11.57706801
  11.49996648 11.57089275  3.96322315
  11.68266923 11.57655842 11.67317282
   0.17202625  7.71585454  9.64031012
  15.33255579  0.15172208  5.79620456
  15.39120013  0.05686400 13.44299373
   7.66109521  7.55524352  5.79912595
   7.57401819  7.60607424 13.49910678
  15.41489157 11.50804969  1.93678955
   0.03456241 11.54016868  9.62462845
   7.76228221 11.55584457  9.63492005
  15.22061803  3.75945467  5.81411508
   3.92779202  0.04748241  1.92613959
   3.92463979  0.05504775  9.63911179
   3.64642148  7.61288312  9.65779107
  11.53937951  7.53076733  1.94838160
  11.47045368  7.58687215  9.63401051
  11.59805959  0.03532347  5.80597067
  11.56871969  0.02123689 13.46762974
   3.67449497  3.85697656  1.94791910
   3.76732327  3.86148764  9.64982825
  11.29520649  4.05226359  2.02709818
   3.93785192 11.49191922  5.78092560
   3.88716106 11.58820003 13.50267449
  11.61230483 11.56322946  5.77538418
  11.54756907 11.57752688 13.50511959
   1.91166743  7.67617169 15.30447211
   9.64431597  7.73527036 15.36947861
   1.92150097  0.11313899  3.87626755
   9.63084125  0.09804213  3.86785908
   9.63022733  4.04796082  7.46774010
   9.63324145 11.55779032  0.04887997
   9.63076169 11.86051135  7.63404694
   1.91831966  3.89483560 11.69281693
   1.92658545 11.54558528  3.90135032
   9.62045916  3.71329004  4.20947087
   9.66043855  3.91503438 11.69672684
   9.60450611 11.58146225  3.88669380
   5.80082492  0.06656735 15.29088801
   5.79062366  7.86863430  7.82414692
  13.48720152  0.25188702  0.08201952
  13.50238964  7.84620459  7.76388254
   5.80357999 15.39465431 11.68331119
   5.76111664  7.59348744  3.80693120
  13.50866886  7.61877712  3.86270298
  13.50117221  7.87739799 11.45810330
   5.78863294  3.73799671  0.19237320
  13.56208844  3.57092400  0.35196098
  13.49646837 11.43644966 11.54889074
   7.95395682  1.89069662  7.56463880
  15.39425993  1.94413220 11.42793576
   7.54648690  1.92563159  4.10944504
   7.75912180  1.90893761 11.60224138
   7.76352684  9.64260325 11.62755746
  15.29803405  5.79545887  0.04440678
  15.32419367 13.47603681 15.42262183
  15.22425538 13.50751174  7.64956041
   7.68104055  5.75693636  0.18744578
   7.68684246 13.50278321  0.13027070
   0.17173931  5.77255213  3.87353227
   3.85153594  9.63382597  0.05378575
  11.33514049  1.93483206  7.81450233
   3.78776680  9.63052027 11.55219579
  11.56480416  1.91942747 11.40200427
   3.98356547  5.75368113  7.61542420
   4.00377308 13.50749693  7.70026759
   3.67299642  5.77056493  3.99310279
  15.36465015  0.06690377  1.94392105
   0.09344541 15.34725590  9.60839979
   0.05424479  7.83220747  1.93541585
   7.61853871  0.19771389  1.94532005
   7.68171154  0.00654811  9.60694164
   7.77175774  7.88825069  1.97398818
   7.87487760  7.76520358  9.63738974
   0.00844752  7.68307240  5.81079644
  15.28996552  7.69548930 13.46657102
   7.75054631 15.17841278  5.80746943
   7.95857107 15.35068934 13.50321422
   0.29315530  3.83376000  1.98200630
   0.15659314  4.02340537  9.58742559
   7.99241633  3.61906859  1.97034033
   7.86691018  3.74994135  9.60824528
   7.65988594 11.41601504  1.96101639
  15.20285141  3.79559972 13.49511817
  15.31469106 11.56901987  5.78430080
   0.01846737 11.57350155 13.47923102
   7.41506685  4.09403727  5.80679965
   7.54600238  3.94670054 13.50483815
   7.57812074 11.72225275  5.79345207
   7.67568601 11.66638236 13.48843147
   3.71747011  7.58351383  1.92953065
  11.57601137  0.01016850  1.95978076
  11.48975503 15.30145949  9.60379858
   3.89600960  0.02950691  5.78570489
   3.73586198 15.33161869 13.48719918
   3.86630166  7.91268389  5.79426198
   4.04370897  7.70181864 13.48247315
  11.54881188  7.89189486  5.79706945
  11.64372309  7.89490218 13.47793964
   3.86385802 11.65217070  1.93097874
   3.82122290 11.59611275  9.63936046
  11.42787424  4.07767377  9.60045398
  11.60440138 11.60009324  1.94321412
  11.51460101 11.59991247  9.63106042
   4.04708253  3.74402798  5.78229989
   4.00598124  3.85360539 13.50914230
  11.89959461  3.69670477  5.80501506
  11.82460885  3.68865068 13.45586324
   1.92938015 15.34889599  0.03055975
   1.92088762 15.34160290  7.65209737
   1.90579402  7.61326070  7.55843372
   9.65969933 15.31544472  0.11064807
   9.62181893 15.09346631  7.72313353
   9.64597506  7.52001064  7.64780678
   1.95457320 15.41601374 11.53049109
   1.91240300  7.88696661  3.89181153
   1.90044060  7.57465885 11.81472540
   9.62888908 15.32396812 11.45298159
   9.63513048  7.77366739  3.89748985
   9.66130257  7.56689162 11.70596014
   1.91772714  3.91679285 15.23794611
   1.90634593  3.91084827  7.53646277
   1.92281546 11.59261155  0.00374514
   1.90893700 11.71034056  7.62354198
   9.63881591  3.92965003 15.19168353
   1.92427866  3.59393329  4.10555257
   1.90200317 11.66370063 11.59619661
   9.65949348 11.67479359 11.59131104
   5.82660734  0.23417185  7.64136388
   5.75100767  7.70075989  0.16787997
  13.48817160  0.25270626  7.87988893
  13.50020826  7.82726947  0.05037461
   5.80628463 15.29374640  3.94082949
   5.77754166  7.71855239 11.37666175
  13.47756410 15.37964655  3.78249056
  13.49286497 15.35635155 11.39914010
   5.85117078  3.62736050  7.84897824
   5.80133319 11.59673163  0.04620830
   5.81857326 11.36625805  7.76585000
  13.48917593  3.73472824  7.94773266
  13.46058206 11.49715576 15.40432431
  13.45374967 11.34978553  7.78088574
   5.82588145  4.02682795  3.66349095
   5.80834363  3.82051662 11.46470950
   5.80571204 11.60854719  3.80050113
   5.78475888 11.61434798 11.53295252
  13.50473878  4.01011021  3.64164388
  13.49550023  3.89908193 11.34198702
  13.47768669 11.59764097  3.83016095
   0.13294981  1.91977110  0.15635946
   0.10377437  1.93920087  7.89474595
   0.00671110  9.64886550 15.33230548
   0.14796832  9.67304428  7.61975072
   7.86355080  1.91031731 15.32657887
   7.61711581  9.67345350 15.35421197
   7.93093358  9.67190964  7.59767435
  15.19158368  1.97614897  3.68874256
  15.34333613  9.62303156  3.96428491
   0.20524862  9.63576361 11.63731330
   7.65769869  9.66142853  4.02872458
  15.32543812  5.76704948  7.65648442
   7.51909089  5.73132851  7.89003909
   7.42530004 13.55078933  7.77103948
  15.31894202  5.77652974 11.62146328
  15.40996828 13.52448966  3.88179163
  15.39225749 13.50965886 11.55149144
   7.84595545  5.73676512  3.66853459
   7.64351785  5.75264556 11.42977440
   7.71486445 13.51758960  3.69919687
   7.72594169 13.50338657 11.55871169
   3.70432366  1.91379430 15.32326675
   3.73535130  1.91690554  7.66792033
   3.69005155  9.66613871  7.81459169
  11.33599049  1.88480740  0.15464226
  11.61721109  9.65644730  0.12096874
  11.34542190  9.66256185  7.79097997
   4.06516651  1.94698066  3.89217337
   3.85784784  1.91759899 11.68797920
   3.92710650  9.61901767  3.69126193
  11.77881644  1.94841819  3.76481304
  11.58587640  9.64633669  3.75467721
  11.35874096  9.64718243 11.47605605
   3.91412183  5.78620788 15.37768236
   3.86520060 13.47896339  0.04208191
  11.72350234  5.84691199 15.15715598
  11.75418565  5.75383737  7.52112366
  11.68293135 13.50315259  0.07734144
  11.85405968 13.52502118  7.72033037
   3.94815269  5.79438755 11.68628741
   3.84306142 13.50818647  3.88963247
   3.82684934 13.47346197 11.50563974
  11.46767734  5.79752328  4.20253824
  11.69096147  5.77566401 11.73544082
  11.56509651 13.51325423  3.81019914
  11.62496838 13.50125707 11.51935523
 


--------------------------------------------------------------------------------------------------------


 k-point  1 :   0.2500 0.2500 0.2500  plane waves:   93161
 k-point  2 :  -0.2500 0.2500 0.2500  plane waves:   93161
 k-point  3 :   0.2500-0.2500 0.2500  plane waves:   93161
 k-point  4 :  -0.2500-0.2500 0.2500  plane waves:   93161

 maximum and minimum number of plane-waves per node :     11686    11606

 maximum number of plane-waves:     93161
 maximum index in each direction: 
   IXMAX=   28   IYMAX=   28   IZMAX=   27
   IXMIN=  -28   IYMIN=  -28   IZMIN=  -28


 real space projection operators:
  total allocation   :     105606.91 KBytes
  max/ min on nodes  :      13249.16      13170.19


 parallel 3D FFT for wavefunctions:
    minimum data exchange during FFTs selected (reduces bandwidth)
 parallel 3D FFT for charge:
    minimum data exchange during FFTs selected (reduces bandwidth)


 total amount of memory used by VASP MPI-rank0   291493. kBytes
=======================================================================

   base      :      30000. kBytes
   nonlr-proj:      49458. kBytes
   fftplans  :      27976. kBytes
   grid      :      34041. kBytes
   one-center:       1026. kBytes
   wavefun   :     148992. kBytes
 
     INWAV:  cpu time   54.6816: real time   54.9973
 Broyden mixing: mesh for mixing (old mesh)
   NGX = 57   NGY = 57   NGZ = 57
  (NGX  =240   NGY  =240   NGZ  =240)
  gives a total of 185193 points

 charge density for first step will be calculated from the start-wavefunctions


--------------------------------------------------------------------------------------------------------


 Maximum index for non-local projection operator          967
 Maximum index for augmentation-charges         3297 (set IRDMAX)


--------------------------------------------------------------------------------------------------------


 initial charge from wavefunction
 First call to EWALD:  gamma=   0.115
 Maximum number of real-space cells 3x 3x 3
 Maximum number of reciprocal cells 3x 3x 3

    FEWALD:  cpu time    0.0304: real time    0.0309


--------------------------------------- Iteration      1(   1)  ---------------------------------------


    POTLOK:  cpu time    0.2742: real time    0.2926
    SETDIJ:  cpu time    1.2599: real time    1.4317
     EDDAV:  cpu time  135.0385: real time  135.8607
       DOS:  cpu time    0.0037: real time    0.0232
    CHARGE:  cpu time    5.2339: real time    5.2373
    MIXING:  cpu time    0.0082: real time    0.0108
    --------------------------------------------
      LOOP:  cpu time  141.8185: real time  142.8564

 eigenvalue-minimisations  : 23436
 total energy-change (2. order) :-0.1849520E+04  (-0.3576039E+03)
 number of electron    1923.0000031 magnetization       1.0000000
 augmentation part      503.5305634 magnetization       0.6656933

 Broyden mixing:
  rms(total) = 0.79573E+01    rms(broyden)= 0.79541E+01
  rms(prec ) = 0.12300E+02
  weight for this iteration     100.00

 Free energy of the ion-electron system (eV)
  ---------------------------------------------------
  alpha Z        PSCENC =      6118.73324990
  Ewald energy   TEWEN  =   -103584.59143932
  -Hartree energ DENC   =    -65046.00487771
  -exchange      EXHF   =         0.00000000
  -V(xc)+E(xc)   XCENC  =      8957.21224897
  PAW double counting   =    197569.01966354  -198563.15523177
  entropy T*S    EENTRO =        -0.00585575
  eigenvalues    EBANDS =    -25877.98067398
  atomic energy  EATOM  =    178577.25249613
  Solvation  Ediel_sol  =         0.00000000
  ---------------------------------------------------
  free energy    TOTEN  =     -1849.52041999 eV

  energy without entropy =    -1849.51456424  energy(sigma->0) =    -1849.51749212


--------------------------------------------------------------------------------------------------------




--------------------------------------- Iteration      1(   2)  ---------------------------------------


    POTLOK:  cpu time    0.2621: real time    0.2647
    SETDIJ:  cpu time    1.4188: real time    1.4193
     EDDAV:  cpu time  149.5949: real time  150.4075
       DOS:  cpu time    0.0028: real time    0.0028
    CHARGE:  cpu time    5.2425: real time    5.2457
    MIXING:  cpu time    0.0173: real time    0.0181
    --------------------------------------------
      LOOP:  cpu time  156.5384: real time  157.3581

 eigenvalue-minimisations  : 26760
 total energy-change (2. order) :-0.2862137E+02  (-0.3259622E+03)
 number of electron    1923.0000031 magnetization       1.0000000
 augmentation part      507.1533816 magnetization       0.5431938

 Broyden mixing:
  rms(total) = 0.10812E+02    rms(broyden)= 0.10808E+02
  rms(prec ) = 0.15980E+02
  weight for this iteration     100.00

 eigenvalues of (default mixing * dielectric matrix)
  average eigenvalue GAMMA=   0.3797
  0.3797

 Free energy of the ion-electron system (eV)
  ---------------------------------------------------
  alpha Z        PSCENC =      6118.73324990
  Ewald energy   TEWEN  =   -103584.59143932
  -Hartree energ DENC   =    -65095.07457538
  -exchange      EXHF   =         0.00000000
  -V(xc)+E(xc)   XCENC  =      8955.98015819
  PAW double counting   =    199254.55369628  -200224.66505281
  entropy T*S    EENTRO =        -0.00052242
  eigenvalues    EBANDS =    -25880.32979645
  atomic energy  EATOM  =    178577.25249613
  Solvation  Ediel_sol  =         0.00000000
  ---------------------------------------------------
  free energy    TOTEN  =     -1878.14178587 eV

  energy without entropy =    -1878.14126345  energy(sigma->0) =    -1878.14152466


--------------------------------------------------------------------------------------------------------




--------------------------------------- Iteration      1(   3)  ---------------------------------------


    POTLOK:  cpu time    0.2888: real time    0.2916
    SETDIJ:  cpu time    1.4577: real time    1.4582
     EDDAV:  cpu time  153.7450: real time  154.4700
       DOS:  cpu time    0.0018: real time    0.0018
    CHARGE:  cpu time    5.2362: real time    5.2400
    MIXING:  cpu time    0.0074: real time    0.0074
    --------------------------------------------
      LOOP:  cpu time  160.7368: real time  161.4689

 eigenvalue-minimisations  : 27204
 total energy-change (2. order) : 0.3049662E+02  (-0.1482491E+03)
 number of electron    1923.0000030 magnetization       1.0000000
 augmentation part      492.3106719 magnetization       0.5713384

 Broyden mixing:
  rms(total) = 0.55337E+01    rms(broyden)= 0.55314E+01
  rms(prec ) = 0.63431E+01
  weight for this iteration     100.00

 eigenvalues of (default mixing * dielectric matrix)
  average eigenvalue GAMMA=   0.4447
  0.4447  0.4447

 Free energy of the ion-electron system (eV)
  ---------------------------------------------------
  alpha Z        PSCENC =      6118.73324990
  Ewald energy   TEWEN  =   -103584.59143932
  -Hartree energ DENC   =    -65191.80347326
  -exchange      EXHF   =         0.00000000
  -V(xc)+E(xc)   XCENC  =      8958.77334565
  PAW double counting   =    199442.60693297  -200406.74821025
  entropy T*S    EENTRO =        -0.00000000
  eigenvalues    EBANDS =    -25761.86806566
  atomic energy  EATOM  =    178577.25249613
  Solvation  Ediel_sol  =         0.00000000
  ---------------------------------------------------
  free energy    TOTEN  =     -1847.64516384 eV

  energy without entropy =    -1847.64516384  energy(sigma->0) =    -1847.64516384


--------------------------------------------------------------------------------------------------------




--------------------------------------- Iteration      1(   4)  ---------------------------------------


    POTLOK:  cpu time    0.2621: real time    0.2648
    SETDIJ:  cpu time    1.4170: real time    1.4175
     EDDAV:  cpu time  143.8340: real time  144.7846
       DOS:  cpu time    0.0018: real time    0.0018
    CHARGE:  cpu time    5.2741: real time    5.2781
    MIXING:  cpu time    0.0081: real time    0.0081
    --------------------------------------------
      LOOP:  cpu time  150.7971: real time  151.7550

 eigenvalue-minimisations  : 25284
 total energy-change (2. order) : 0.4223922E+02  (-0.3173870E+02)
 number of electron    1923.0000030 magnetization       1.0000000
 augmentation part      493.7580883 magnetization       0.5746896

 Broyden mixing:
  rms(total) = 0.40497E+01    rms(broyden)= 0.40489E+01
  rms(prec ) = 0.47072E+01
  weight for this iteration     100.00

 eigenvalues of (default mixing * dielectric matrix)
  average eigenvalue GAMMA=   0.5875
  0.6643  0.6643  0.4339

 Free energy of the ion-electron system (eV)
  ---------------------------------------------------
  alpha Z        PSCENC =      6118.73324990
  Ewald energy   TEWEN  =   -103584.59143932
  -Hartree energ DENC   =    -65149.33267852
  -exchange      EXHF   =         0.00000000
  -V(xc)+E(xc)   XCENC  =      8964.41248598
  PAW double counting   =    199534.82656010  -200514.46281977
  entropy T*S    EENTRO =        -0.00000000
  eigenvalues    EBANDS =    -25752.24379614
  atomic energy  EATOM  =    178577.25249613
  Solvation  Ediel_sol  =         0.00000000
  ---------------------------------------------------
  free energy    TOTEN  =     -1805.40594164 eV

  energy without entropy =    -1805.40594164  energy(sigma->0) =    -1805.40594164


--------------------------------------------------------------------------------------------------------




--------------------------------------- Iteration      1(   5)  ---------------------------------------


    POTLOK:  cpu time    0.2636: real time    0.2659
    SETDIJ:  cpu time    1.4172: real time    1.4183
     EDDAV:  cpu time  150.6654: real time  151.3598
       DOS:  cpu time    0.0019: real time    0.0019
    CHARGE:  cpu time    5.2461: real time    5.2710
    MIXING:  cpu time    0.0169: real time    0.0169
    --------------------------------------------
      LOOP:  cpu time  157.6111: real time  158.3339

 eigenvalue-minimisations  : 26700
 total energy-change (2. order) : 0.3477243E+02  (-0.1079037E+02)
 number of electron    1923.0000030 magnetization       1.0000000
 augmentation part      494.3810737 magnetization       0.5915252

 Broyden mixing:
  rms(total) = 0.21226E+01    rms(broyden)= 0.21222E+01
  rms(prec ) = 0.24747E+01
  weight for this iteration     100.00

 eigenvalues of (default mixing * dielectric matrix)
  average eigenvalue GAMMA=   0.6863
  0.8863  0.8863  0.4864  0.4864

 Free energy of the ion-electron system (eV)
  ---------------------------------------------------
  alpha Z        PSCENC =      6118.73324990
  Ewald energy   TEWEN  =   -103584.59143932
  -Hartree energ DENC   =    -65160.93684959
  -exchange      EXHF   =         0.00000000
  -V(xc)+E(xc)   XCENC  =      8969.91501566
  PAW double counting   =    199013.55541200  -200007.01744303
  entropy T*S    EENTRO =        -0.00000000
  eigenvalues    EBANDS =    -25697.54395513
  atomic energy  EATOM  =    178577.25249613
  Solvation  Ediel_sol  =         0.00000000
  ---------------------------------------------------
  free energy    TOTEN  =     -1770.63351337 eV

  energy without entropy =    -1770.63351337  energy(sigma->0) =    -1770.63351337


--------------------------------------------------------------------------------------------------------




--------------------------------------- Iteration      1(   6)  ---------------------------------------


    POTLOK:  cpu time    0.3625: real time    0.3651
    SETDIJ:  cpu time    1.4144: real time    1.4152
     EDDAV:  cpu time  152.3874: real time  153.2469
       DOS:  cpu time    0.0019: real time    0.0019
    CHARGE:  cpu time    5.2773: real time    5.2808
    MIXING:  cpu time    0.0089: real time    0.0089
    --------------------------------------------
      LOOP:  cpu time  159.4522: real time  160.3188

 eigenvalue-minimisations  : 26940
 total energy-change (2. order) : 0.1053306E+02  (-0.4847983E+01)
 number of electron    1923.0000030 magnetization       1.0000000
 augmentation part      495.6420460 magnetization       0.5929584

 Broyden mixing:
  rms(total) = 0.14017E+01    rms(broyden)= 0.14014E+01
  rms(prec ) = 0.14920E+01
  weight for this iteration     100.00

 eigenvalues of (default mixing * dielectric matrix)
  average eigenvalue GAMMA=   0.7156
  0.9707  0.9707  0.4396  0.5985  0.5985

 Free energy of the ion-electron system (eV)
  ---------------------------------------------------
  alpha Z        PSCENC =      6118.73324990
  Ewald energy   TEWEN  =   -103584.59143932
  -Hartree energ DENC   =    -65108.60895631
  -exchange      EXHF   =         0.00000000
  -V(xc)+E(xc)   XCENC  =      8969.99915668
  PAW double counting   =    198545.26768067  -199546.31663539
  entropy T*S    EENTRO =        -0.00000000
  eigenvalues    EBANDS =    -25731.83600326
  atomic energy  EATOM  =    178577.25249613
  Solvation  Ediel_sol  =         0.00000000
  ---------------------------------------------------
  free energy    TOTEN  =     -1760.10045089 eV

  energy without entropy =    -1760.10045089  energy(sigma->0) =    -1760.10045089


--------------------------------------------------------------------------------------------------------




--------------------------------------- Iteration      1(   7)  ---------------------------------------


    POTLOK:  cpu time    0.2642: real time    0.2644
    SETDIJ:  cpu time    1.4232: real time    1.4242
     EDDAV:  cpu time  151.3831: real time  152.4798
       DOS:  cpu time    0.0019: real time    0.0019
    CHARGE:  cpu time    5.3103: real time    5.3140
    MIXING:  cpu time    0.0079: real time    0.0079
    --------------------------------------------
      LOOP:  cpu time  158.3907: real time  159.4923

 eigenvalue-minimisations  : 26880
 total energy-change (2. order) : 0.8218596E+00  (-0.9574926E+00)
 number of electron    1923.0000030 magnetization       1.0000000
 augmentation part      496.1938937 magnetization       0.5945533

 Broyden mixing:
  rms(total) = 0.93825E+00    rms(broyden)= 0.93773E+00
  rms(prec ) = 0.10165E+01
  weight for this iteration     100.00

 eigenvalues of (default mixing * dielectric matrix)
  average eigenvalue GAMMA=   0.8861
  1.4286  1.4286  0.7206  0.7206  0.4926  0.5255

 Free energy of the ion-electron system (eV)
  ---------------------------------------------------
  alpha Z        PSCENC =      6118.73324990
  Ewald energy   TEWEN  =   -103584.59143932
  -Hartree energ DENC   =    -65080.73495394
  -exchange      EXHF   =         0.00000000
  -V(xc)+E(xc)   XCENC  =      8968.79383893
  PAW double counting   =    198300.19862305  -199301.77252484
  entropy T*S    EENTRO =        -0.00000000
  eigenvalues    EBANDS =    -25757.15788122
  atomic energy  EATOM  =    178577.25249613
  Solvation  Ediel_sol  =         0.00000000
  ---------------------------------------------------
  free energy    TOTEN  =     -1759.27859131 eV

  energy without entropy =    -1759.27859131  energy(sigma->0) =    -1759.27859131


--------------------------------------------------------------------------------------------------------




--------------------------------------- Iteration      1(   8)  ---------------------------------------


    POTLOK:  cpu time    0.2638: real time    0.2663
    SETDIJ:  cpu time    1.4172: real time    1.4176
     EDDAV:  cpu time  150.5727: real time  151.3225
       DOS:  cpu time    0.0020: real time    0.0020
    CHARGE:  cpu time    5.3036: real time    5.3071
    MIXING:  cpu time    0.0088: real time    0.0088
    --------------------------------------------
      LOOP:  cpu time  157.5681: real time  158.3241

 eigenvalue-minimisations  : 26700
 total energy-change (2. order) : 0.4589855E+00  (-0.5256897E+00)
[...]
   81        1.573   3.461   0.000   5.034
   82        1.574   3.457   0.000   5.031
   83        1.574   3.457   0.000   5.031
   84        1.578   3.452   0.000   5.030
   85        1.575   3.461   0.000   5.036
   86        1.575   3.465   0.000   5.040
   87        1.576   3.462   0.000   5.038
   88        1.575   3.465   0.000   5.039
   89        1.575   3.461   0.000   5.036
   90        1.575   3.458   0.000   5.032
   91        1.574   3.459   0.000   5.033
   92        1.574   3.461   0.000   5.035
   93        1.578   3.463   0.000   5.040
   94        1.577   3.473   0.000   5.050
   95        1.576   3.469   0.000   5.045
   96        1.575   3.460   0.000   5.035
   97        1.575   3.465   0.000   5.040
   98        1.576   3.466   0.000   5.042
   99        1.575   3.460   0.000   5.034
  100        1.576   3.458   0.000   5.033
  101        1.575   3.458   0.000   5.033
  102        1.575   3.456   0.000   5.031
  103        1.567   3.482   0.000   5.049
  104        1.574   3.457   0.000   5.031
  105        1.577   3.471   0.000   5.048
  106        1.575   3.461   0.000   5.036
  107        1.575   3.460   0.000   5.035
  108        1.576   3.470   0.000   5.046
  109        1.574   3.457   0.000   5.031
  110        1.565   3.481   0.000   5.046
  111        1.576   3.471   0.000   5.047
  112        1.577   3.457   0.000   5.033
  113        1.576   3.472   0.000   5.049
  114        1.577   3.470   0.000   5.047
  115        1.574   3.464   0.000   5.038
  116        1.575   3.461   0.000   5.035
  117        1.575   3.467   0.000   5.042
  118        1.576   3.469   0.000   5.045
  119        1.576   3.472   0.000   5.048
  120        1.575   3.458   0.000   5.033
  121        1.575   3.463   0.000   5.037
  122        1.577   3.468   0.000   5.045
  123        1.576   3.473   0.000   5.049
  124        1.576   3.465   0.000   5.041
  125        1.576   3.474   0.000   5.050
  126        1.576   3.469   0.000   5.044
  127        1.575   3.456   0.000   5.031
  128        1.574   3.458   0.000   5.032
  129        1.576   3.468   0.000   5.044
  130        1.736   4.371   0.000   6.107
  131        1.737   4.373   0.000   6.110
  132        1.737   4.378   0.000   6.115
  133        1.738   4.386   0.000   6.124
  134        1.738   4.383   0.000   6.121
  135        1.737   4.366   0.000   6.102
  136        1.736   4.364   0.000   6.101
  137        1.738   4.381   0.000   6.119
  138        1.738   4.380   0.000   6.118
  139        1.739   4.384   0.000   6.124
  140        1.739   4.385   0.000   6.124
  141        1.738   4.376   0.000   6.114
  142        1.738   4.376   0.000   6.114
  143        1.738   4.379   0.000   6.117
  144        1.738   4.382   0.000   6.120
  145        1.738   4.381   0.000   6.119
  146        1.736   4.376   0.000   6.112
  147        1.737   4.369   0.000   6.106
  148        1.736   4.368   0.000   6.104
  149        1.739   4.377   0.000   6.117
  150        1.738   4.382   0.000   6.120
  151        1.738   4.374   0.000   6.112
  152        1.738   4.378   0.000   6.116
  153        1.737   4.380   0.000   6.117
  154        1.737   4.371   0.000   6.108
  155        1.738   4.373   0.000   6.111
  156        1.737   4.369   0.000   6.106
  157        1.737   4.367   0.000   6.104
  158        1.738   4.374   0.000   6.112
  159        1.738   4.374   0.000   6.112
  160        1.737   4.366   0.000   6.103
  161        1.736   4.367   0.000   6.103
  162        1.737   4.369   0.000   6.106
  163        1.736   4.367   0.000   6.103
  164        1.737   4.375   0.000   6.113
  165        1.737   4.369   0.000   6.106
  166        1.736   4.369   0.000   6.105
  167        1.737   4.367   0.000   6.103
  168        1.736   4.367   0.000   6.104
  169        1.739   4.368   0.000   6.108
  170        1.738   4.375   0.000   6.113
  171        1.737   4.370   0.000   6.107
  172        1.738   4.385   0.000   6.123
  173        1.737   4.368   0.000   6.105
  174        1.737   4.368   0.000   6.105
  175        1.739   4.378   0.000   6.116
  176        1.737   4.364   0.000   6.101
  177        1.738   4.379   0.000   6.117
  178        1.737   4.367   0.000   6.104
  179        1.738   4.373   0.000   6.110
  180        1.738   4.379   0.000   6.117
  181        1.736   4.368   0.000   6.104
  182        1.738   4.375   0.000   6.112
  183        1.736   4.364   0.000   6.100
  184        1.737   4.375   0.000   6.113
  185        1.737   4.383   0.000   6.120
  186        1.737   4.378   0.000   6.115
  187        1.736   4.373   0.000   6.108
  188        1.738   4.372   0.000   6.109
  189        1.738   4.381   0.000   6.119
  190        1.738   4.380   0.000   6.118
  191        1.739   4.383   0.000   6.121
  192        1.737   4.368   0.000   6.105
  193        1.739   4.383   0.000   6.122
  194        1.737   4.368   0.000   6.105
  195        1.737   4.370   0.000   6.107
  196        1.737   4.378   0.000   6.116
  197        1.737   4.370   0.000   6.107
  198        1.737   4.380   0.000   6.118
  199        1.737   4.375   0.000   6.112
  200        1.738   4.382   0.000   6.120
  201        1.738   4.376   0.000   6.114
  202        1.738   4.372   0.000   6.109
  203        1.738   4.381   0.000   6.120
  204        1.738   4.374   0.000   6.112
  205        1.737   4.371   0.000   6.108
  206        1.736   4.366   0.000   6.102
  207        1.737   4.369   0.000   6.106
  208        1.737   4.381   0.000   6.118
  209        1.737   4.371   0.000   6.108
  210        1.737   4.368   0.000   6.104
  211        1.737   4.371   0.000   6.108
  212        1.736   4.378   0.000   6.114
  213        1.739   4.372   0.000   6.111
  214        1.737   4.372   0.000   6.109
  215        1.738   4.377   0.000   6.116
  216        1.736   4.366   0.000   6.102
  217        1.736   4.366   0.000   6.102
  218        1.737   4.375   0.000   6.111
  219        1.738   4.376   0.000   6.114
  220        1.738   4.380   0.000   6.118
  221        1.738   4.379   0.000   6.117
  222        1.737   4.377   0.000   6.115
  223        1.737   4.379   0.000   6.116
  224        1.738   4.376   0.000   6.114
  225        1.738   4.375   0.000   6.113
  226        1.738   4.378   0.000   6.116
  227        1.737   4.379   0.000   6.116
  228        1.738   4.377   0.000   6.115
  229        1.738   4.376   0.000   6.114
  230        1.737   4.368   0.000   6.105
  231        1.738   4.373   0.000   6.111
  232        1.737   4.369   0.000   6.105
  233        1.738   4.379   0.000   6.117
  234        1.737   4.367   0.000   6.104
  235        1.737   4.366   0.000   6.103
  236        1.739   4.384   0.000   6.123
  237        1.739   4.388   0.000   6.126
  238        1.737   4.376   0.000   6.113
  239        1.738   4.376   0.000   6.114
  240        1.737   4.380   0.000   6.117
  241        1.738   4.375   0.000   6.113
  242        1.738   4.385   0.000   6.122
  243        1.738   4.385   0.000   6.123
  244        1.738   4.378   0.000   6.116
  245        1.738   4.378   0.000   6.116
  246        1.738   4.378   0.000   6.116
  247        1.738   4.385   0.000   6.123
  248        1.737   4.373   0.000   6.111
  249        1.738   4.385   0.000   6.123
  250        1.738   4.372   0.000   6.110
  251        1.738   4.379   0.000   6.117
  252        1.737   4.379   0.000   6.117
  253        1.738   4.379   0.000   6.117
  254        1.739   4.384   0.000   6.123
  255        1.738   4.374   0.000   6.112
  256        1.738   4.385   0.000   6.123
  257        1.738   4.378   0.000   6.116
--------------------------------------------------
tot        345.4081194.746 112.1541652.308
 


 magnetization (x)
 
# of ion       s       p       d       tot
------------------------------------------
    1       -0.000  -0.000   0.000  -0.000
    2       -0.000  -0.000  -0.000  -0.000
    3       -0.000  -0.000   0.000  -0.000
    4        0.000  -0.000  -0.000  -0.000
    5       -0.000  -0.000  -0.000  -0.000
    6       -0.000  -0.000   0.000   0.000
    7       -0.000  -0.000   0.000   0.000
    8       -0.000  -0.000  -0.000  -0.000
    9        0.000   0.000   0.000   0.000
   10       -0.000  -0.000   0.000   0.000
   11       -0.000  -0.000  -0.000  -0.000
   12       -0.000  -0.000   0.000  -0.000
   13       -0.000  -0.000   0.000  -0.000
   14       -0.000  -0.000  -0.000  -0.000
   15       -0.000  -0.000  -0.000  -0.000
   16       -0.000  -0.000   0.000   0.000
   17       -0.000   0.000  -0.000  -0.000
   18       -0.000  -0.000  -0.002  -0.002
   19       -0.000  -0.000   0.000   0.000
   20        0.000  -0.000   0.000   0.000
   21       -0.000  -0.000  -0.000  -0.000
   22       -0.000  -0.000  -0.000  -0.000
   23       -0.000  -0.000  -0.000  -0.000
   24       -0.000  -0.000   0.000   0.000
   25       -0.000   0.000  -0.000  -0.000
   26       -0.000  -0.000  -0.000  -0.000
   27       -0.000  -0.000   0.000   0.000
   28        0.000  -0.000   0.000   0.000
   29       -0.000  -0.000  -0.000  -0.000
   30       -0.000  -0.000   0.000  -0.000
   31       -0.000  -0.000  -0.000  -0.000
   32       -0.000  -0.000   0.000   0.000
   33        0.000   0.000   0.000   0.000
   34       -0.000  -0.000   0.000   0.000
   35       -0.000   0.000  -0.000  -0.000
   36       -0.000  -0.000  -0.000  -0.000
   37        0.000   0.000   0.000   0.000
   38       -0.000   0.000   0.010   0.010
   39        0.000   0.000   0.001   0.001
   40        0.000   0.000   0.007   0.008
   41        0.000   0.000   0.000   0.000
   42       -0.000  -0.000   0.000   0.000
   43       -0.000  -0.000  -0.000  -0.000
   44       -0.000  -0.000  -0.000  -0.000
   45       -0.000   0.000  -0.000  -0.000
   46        0.000   0.000   0.003   0.003
   47        0.000   0.000   0.004   0.004
   48        0.000   0.000   0.003   0.003
   49        0.000   0.000   0.000   0.000
   50       -0.000  -0.000  -0.000  -0.000
   51       -0.000   0.000  -0.000  -0.000
   52       -0.000  -0.000  -0.000  -0.000
   53       -0.000   0.000   0.000   0.000
   54        0.005   0.007   0.880   0.892
   55       -0.000   0.000   0.001   0.001
   56        0.000   0.000   0.000   0.000
   57        0.000   0.000   0.000   0.000
   58       -0.000  -0.000  -0.000  -0.000
   59       -0.000  -0.000   0.000  -0.000
   60       -0.000  -0.000   0.000   0.000
   61       -0.000   0.000  -0.000  -0.000
   62        0.000   0.001   0.083   0.084
   63       -0.000   0.000   0.009   0.009
   64        0.000   0.000   0.000   0.000
   65        0.000   0.000   0.000   0.000
   66       -0.000  -0.000   0.000  -0.000
   67       -0.000  -0.000   0.000  -0.000
   68       -0.000  -0.000   0.000  -0.000
   69       -0.000  -0.000   0.000  -0.000
   70       -0.000  -0.000   0.000  -0.000
   71       -0.000  -0.000   0.000  -0.000
   72       -0.000  -0.000   0.000  -0.000
   73       -0.000  -0.000   0.000  -0.000
   74       -0.000  -0.000   0.000  -0.000
   75        0.000   0.000   0.000   0.000
   76        0.000   0.000   0.000   0.000
   77       -0.000  -0.000   0.000  -0.000
   78       -0.000  -0.001   0.000  -0.001
   79       -0.000  -0.000   0.000  -0.000
   80       -0.000  -0.000   0.000  -0.000
   81       -0.000  -0.002   0.000  -0.002
   82        0.000   0.000   0.000   0.000
   83       -0.000  -0.000   0.000  -0.000
   84       -0.002  -0.039   0.000  -0.041
   85       -0.000  -0.000   0.000  -0.000
   86        0.000   0.000   0.000   0.000
   87       -0.000  -0.000   0.000  -0.000
   88       -0.000  -0.000   0.000  -0.000
   89       -0.000  -0.000   0.000  -0.000
   90       -0.000  -0.000   0.000  -0.001
   91       -0.000  -0.000   0.000  -0.000
   92       -0.000  -0.000   0.000  -0.000
   93       -0.000  -0.000   0.000  -0.000
   94       -0.000  -0.000   0.000  -0.000
   95       -0.000  -0.000   0.000  -0.000
   96       -0.000  -0.000   0.000  -0.000
   97       -0.000   0.000   0.000   0.000
   98       -0.000  -0.002   0.000  -0.003
   99       -0.000  -0.000   0.000  -0.000
  100       -0.000  -0.000   0.000  -0.000
  101       -0.000  -0.000   0.000  -0.000
  102       -0.000  -0.000   0.000  -0.000
  103       -0.000  -0.001   0.000  -0.001
  104       -0.000  -0.000   0.000  -0.000
  105       -0.000  -0.000   0.000  -0.000
  106       -0.000  -0.000   0.000  -0.000
  107       -0.000  -0.000   0.000  -0.000
  108       -0.000  -0.000   0.000  -0.000
  109       -0.000  -0.000   0.000  -0.000
  110       -0.001  -0.014   0.000  -0.015
  111       -0.000  -0.000   0.000  -0.000
  112        0.000  -0.000   0.000  -0.000
  113       -0.000  -0.000   0.000  -0.000
  114       -0.000  -0.000   0.000  -0.000
  115       -0.000  -0.000   0.000  -0.000
  116       -0.000  -0.000   0.000  -0.000
  117       -0.000  -0.000   0.000  -0.000
  118       -0.000  -0.000   0.000  -0.000
  119        0.000   0.000   0.000   0.000
  120       -0.000  -0.000   0.000  -0.000
  121       -0.000  -0.000   0.000  -0.000
  122       -0.000  -0.000   0.000  -0.000
  123       -0.000  -0.000   0.000  -0.000
  124       -0.000  -0.000   0.000  -0.000
  125        0.000  -0.000   0.000  -0.000
  126       -0.000  -0.001   0.000  -0.002
  127       -0.000  -0.000   0.000  -0.000
  128       -0.000  -0.000   0.000  -0.000
  129        0.000   0.000   0.000   0.000
  130       -0.000  -0.000   0.000  -0.000
  131       -0.000  -0.000   0.000  -0.000
  132       -0.000  -0.000   0.000  -0.000
  133       -0.000  -0.000   0.000  -0.000
  134       -0.000  -0.000   0.000  -0.000
  135       -0.000  -0.000   0.000  -0.000
  136        0.000  -0.000   0.000  -0.000
  137       -0.000  -0.000   0.000  -0.000
  138        0.000   0.000   0.000   0.000
  139       -0.000  -0.000   0.000  -0.000
  140       -0.000  -0.000   0.000  -0.000
  141       -0.000  -0.000   0.000  -0.000
  142       -0.000  -0.000   0.000  -0.000
  143       -0.000  -0.000   0.000  -0.000
  144       -0.000  -0.000   0.000  -0.000
  145       -0.000  -0.000   0.000  -0.000
  146       -0.000  -0.000   0.000  -0.000
  147        0.000   0.000   0.000   0.000
  148        0.000   0.000   0.000   0.000
  149        0.000  -0.000   0.000  -0.000
  150       -0.000  -0.000   0.000  -0.000
  151       -0.000  -0.000   0.000  -0.000
  152        0.000  -0.000   0.000  -0.000
  153        0.000   0.000   0.000   0.000
  154        0.000  -0.000   0.000  -0.000
  155       -0.000  -0.000   0.000  -0.000
  156       -0.000   0.000   0.000   0.000
  157        0.000   0.000   0.000   0.000
  158        0.000   0.000   0.000   0.000
  159        0.000   0.000   0.000   0.000
  160        0.000  -0.000   0.000  -0.000
  161        0.000   0.000   0.000   0.000
  162        0.000   0.000   0.000   0.000
  163        0.000   0.000   0.000   0.000
  164       -0.000  -0.000   0.000  -0.000
  165       -0.000  -0.000   0.000  -0.000
  166        0.000   0.000   0.000   0.000
  167        0.000  -0.000   0.000  -0.000
  168        0.000  -0.000   0.000  -0.000
  169       -0.000  -0.000   0.000  -0.000
  170       -0.000  -0.001   0.000  -0.001
  171       -0.000  -0.000   0.000  -0.000
  172       -0.000   0.000   0.000  -0.000
  173        0.000   0.000   0.000   0.000
  174       -0.000  -0.000   0.000  -0.000
  175       -0.000  -0.000   0.000  -0.000
  176       -0.000  -0.000   0.000  -0.000
  177        0.000  -0.000   0.000  -0.000
  178       -0.000  -0.000   0.000  -0.000
  179        0.000   0.000   0.000   0.000
  180       -0.000  -0.000   0.000  -0.000
  181       -0.000  -0.000   0.000  -0.000
  182       -0.000  -0.000   0.000  -0.000
  183       -0.000  -0.000   0.000  -0.000
  184        0.000  -0.000   0.000  -0.000
  185        0.000   0.000   0.000   0.000
  186        0.000   0.000   0.000   0.000
  187       -0.000  -0.006   0.000  -0.006
  188       -0.000  -0.000   0.000  -0.000
  189        0.000   0.000   0.000   0.000
  190        0.000  -0.000   0.000  -0.000
  191       -0.000  -0.000   0.000  -0.000
  192       -0.000  -0.000   0.000  -0.000
  193       -0.000  -0.000   0.000  -0.000
  194       -0.000  -0.000   0.000  -0.000
  195       -0.000  -0.000   0.000  -0.000
  196       -0.000  -0.000   0.000  -0.000
  197       -0.000  -0.000   0.000  -0.000
  198       -0.000  -0.000   0.000  -0.000
  199       -0.000  -0.000   0.000  -0.000
  200        0.000  -0.000   0.000  -0.000
  201       -0.000  -0.000   0.000  -0.000
  202       -0.000  -0.000   0.000  -0.000
  203       -0.000  -0.000   0.000  -0.000
  204       -0.000  -0.000   0.000  -0.000
  205       -0.000  -0.000   0.000  -0.000
  206       -0.000  -0.000   0.000  -0.000
  207        0.000  -0.000   0.000  -0.000
  208       -0.000  -0.000   0.000  -0.000
  209       -0.000  -0.000   0.000  -0.000
  210       -0.000  -0.000   0.000  -0.000
  211       -0.000  -0.000   0.000  -0.000
  212       -0.000  -0.000   0.000  -0.000
  213       -0.000  -0.000   0.000  -0.000
  214       -0.000  -0.000   0.000  -0.000
  215       -0.000   0.000   0.000   0.000
  216       -0.000  -0.000   0.000  -0.000
  217       -0.000  -0.000   0.000  -0.000
  218       -0.000  -0.000   0.000  -0.000
  219       -0.000  -0.000   0.000  -0.000
  220       -0.000  -0.000   0.000  -0.000
  221        0.000   0.000   0.000   0.000
  222       -0.000  -0.000   0.000  -0.000
  223       -0.000   0.000   0.000   0.000
  224       -0.000  -0.000   0.000  -0.000
  225       -0.000  -0.000   0.000  -0.000
  226       -0.000  -0.000   0.000  -0.000
  227       -0.000  -0.000   0.000  -0.000
  228        0.000   0.000   0.000   0.000
  229       -0.000  -0.000   0.000  -0.000
  230       -0.000  -0.000   0.000  -0.000
  231       -0.000  -0.000   0.000  -0.000
  232       -0.000  -0.000   0.000  -0.000
  233       -0.000  -0.000   0.000  -0.000
  234        0.000   0.000   0.000   0.000
  235       -0.000  -0.000   0.000  -0.000
  236       -0.000   0.001   0.000   0.001
  237        0.000  -0.000   0.000  -0.000
  238        0.000  -0.000   0.000  -0.000
  239       -0.000  -0.000   0.000  -0.000
  240        0.000   0.000   0.000   0.000
  241        0.000   0.000   0.000   0.000
  242       -0.000  -0.000   0.000  -0.000
  243       -0.000  -0.000   0.000  -0.000
  244        0.000   0.000   0.000   0.000
  245        0.000   0.000   0.000   0.000
  246        0.000   0.000   0.000   0.000
  247       -0.000   0.001   0.000   0.001
  248        0.000  -0.000   0.000  -0.000
  249        0.000  -0.000   0.000  -0.000
  250       -0.000  -0.000   0.000  -0.000
  251        0.000   0.000   0.000   0.000
  252        0.000   0.000   0.000   0.000
  253        0.000   0.000   0.000   0.000
  254       -0.000  -0.000   0.000  -0.000
  255        0.000   0.000   0.000   0.000
  256       -0.000  -0.000   0.000  -0.000
  257       -0.000  -0.000   0.000  -0.000
--------------------------------------------------
tot          0.001  -0.062   1.000   0.940
 

 total amount of memory used by VASP MPI-rank0   291493. kBytes
=======================================================================

   base      :      30000. kBytes
   nonlr-proj:      49458. kBytes
   fftplans  :      27976. kBytes
   grid      :      34041. kBytes
   one-center:       1026. kBytes
   wavefun   :     148992. kBytes
 
  
  
 General timing and accounting informations for this job:
 ========================================================
  
                  Total CPU time used (sec):     4942.204
                            User time (sec):     4541.758
                          System time (sec):      400.446
                         Elapsed time (sec):     4983.895
  
                   Maximum memory used (kb):      628732.
                   Average memory used (kb):           0.
  
                          Minor page faults:       339216
                          Major page faults:           30
                 Voluntary context switches:        35689
