 vasp.5.4.4.18Apr17-6-g9f103f2a35 (build Apr 30 2017 20:10:35) complex          
  
 executed on             LinuxIFC date 2017.08.03  23:23:00
 running on   64 total cores
 distrk:  each k-point on   64 cores,    1 groups
 distr:  one band on NCORES_PER_BAND=   8 cores,    8 groups


--------------------------------------------------------------------------------------------------------


 INCAR:
 POTCAR:   PAW_PBE Ti_pv 07Sep2000                
 POTCAR:   PAW_PBE O 08Apr2002                    
 POTCAR:    PAW_PBE F 08Apr2002                   
 POTCAR:   PAW_PBE Ti_pv 07Sep2000                
   VRHFIN =Ti: d3 s1                                                            
   LEXCH  = PE                                                                  
   EATOM  =  1042.3781 eV,   76.6126 Ry                                         
                                                                                
   TITEL  = PAW_PBE Ti_pv 07Sep2000                                             
   LULTRA =        F    use ultrasoft PP ?                                      
   IUNSCR =        1    unscreen: 0-lin 1-nonlin 2-no                           
   RPACOR =    2.200    partial core radius                                     
   POMASS =   47.880; ZVAL   =   10.000    mass and valenz                      
   RCORE  =    2.500    outmost cutoff radius                                   
   RWIGS  =    2.500; RWIGS  =    1.323    wigner-seitz radius (au A)           
   ENMAX  =  222.338; ENMIN  =  166.753 eV                                      
   RCLOC  =    1.701    cutoff for local pot                                    
   LCOR   =        T    correct aug charges                                     
   LPAW   =        T    paw PP                                                  
   EAUG   =  482.848                                                            
   DEXC   =    -.008                                                            
   RMAX   =    3.092    core radius for proj-oper                               
   RAUG   =    1.300    factor for augmentation sphere                          
   RDEP   =    2.538    radius for radial grids                                 
   QCUT   =   -4.042; QGAM   =    8.085    optimization parameters              
                                                                                
   Description                                                                  
     l     E      TYP  RCUT    TYP  RCUT                                        
     1   .000     23  2.300                                                     
     1  -.100     23  2.300                                                     
     2   .000     23  2.500                                                     
     2   .000     23  2.500                                                     
     0   .000     23  2.500                                                     
     0  1.500     23  2.500                                                     
     3   .000      7   .000                                                     
  local pseudopotential read in
  partial core-charges read in
  atomic valenz-charges read in
  non local Contribution for L=           1  read in
    real space projection operators read in
  non local Contribution for L=           1  read in
    real space projection operators read in
  non local Contribution for L=           2  read in
    real space projection operators read in
  non local Contribution for L=           2  read in
    real space projection operators read in
  non local Contribution for L=           0  read in
    real space projection operators read in
  non local Contribution for L=           0  read in
    real space projection operators read in
    PAW grid and wavefunctions read in
 
   number of l-projection  operators is LMAX  =           6
   number of lm-projection operators is LMMAX =          18
 
 POTCAR:   PAW_PBE O 08Apr2002                    
   VRHFIN =O: s2p4                                                              
   LEXCH  = PE                                                                  
   EATOM  =   432.3788 eV,   31.7789 Ry                                         
                                                                                
   TITEL  = PAW_PBE O 08Apr2002                                                 
   LULTRA =        F    use ultrasoft PP ?                                      
   IUNSCR =        0    unscreen: 0-lin 1-nonlin 2-no                           
   RPACOR =     .000    partial core radius                                     
   POMASS =   16.000; ZVAL   =    6.000    mass and valenz                      
   RCORE  =    1.520    outmost cutoff radius                                   
   RWIGS  =    1.550; RWIGS  =     .820    wigner-seitz radius (au A)           
   ENMAX  =  400.000; ENMIN  =  300.000 eV                                      
   ICORE  =        2    local potential                                         
   LCOR   =        T    correct aug charges                                     
   LPAW   =        T    paw PP                                                  
   EAUG   =  605.392                                                            
   DEXC   =     .000                                                            
   RMAX   =    2.264    core radius for proj-oper                               
   RAUG   =    1.300    factor for augmentation sphere                          
   RDEP   =    1.550    radius for radial grids                                 
   QCUT   =   -5.520; QGAM   =   11.041    optimization parameters              
                                                                                
   Description                                                                  
     l     E      TYP  RCUT    TYP  RCUT                                        
     0   .000     23  1.200                                                     
     0  -.700     23  1.200                                                     
     1   .000     23  1.520                                                     
     1   .600     23  1.520                                                     
     2   .000      7  1.500                                                     
  local pseudopotential read in
  atomic valenz-charges read in
  non local Contribution for L=           0  read in
    real space projection operators read in
  non local Contribution for L=           0  read in
    real space projection operators read in
  non local Contribution for L=           1  read in
    real space projection operators read in
  non local Contribution for L=           1  read in
    real space projection operators read in
    PAW grid and wavefunctions read in
 
   number of l-projection  operators is LMAX  =           4
   number of lm-projection operators is LMMAX =           8
 
 POTCAR:    PAW_PBE F 08Apr2002                   
   VRHFIN =F: s2p5                                                              
   LEXCH  = PE                                                                  
   EATOM  =   659.6475 eV,   48.4827 Ry                                         
                                                                                
   TITEL  = PAW_PBE F 08Apr2002                                                 
   LULTRA =        F    use ultrasoft PP ?                                      
   IUNSCR =        1    unscreen: 0-lin 1-nonlin 2-no                           
   RPACOR =    1.200    partial core radius                                     
   POMASS =   18.998; ZVAL   =    7.000    mass and valenz                      
   RCORE  =    1.520    outmost cutoff radius                                   
   RWIGS  =    1.500; RWIGS  =    0.794    wigner-seitz radius (au A)           
   ENMAX  =  400.000; ENMIN  =  300.000 eV                                      
   ICORE  =        2    local potential                                         
   LCOR   =        T    correct aug charges                                     
   LPAW   =        T    paw PP                                                  
   EAUG   =  613.614                                                            
   RMAX   =    1.555    core radius for proj-oper                               
   RAUG   =    1.300    factor for augmentation sphere                          
   RDEP   =    1.539    radius for radial grids                                 
   RDEPT  =    1.299    core radius for aug-charge                              
                                                                                
   Atomic configuration                                                         
    4 entries                                                                   
     n  l   j            E        occ.                                          
     1  0  0.50      -663.3661   2.0000                                         
     2  0  0.50       -29.8995   2.0000                                         
     2  1  0.50       -11.1114   5.0000                                         
     3  2  1.50       -10.8847   0.0000                                         
   Description                                                                  
     l       E           TYP  RCUT    TYP  RCUT                                 
     0    -29.8995018     23  1.200                                             
     0     -9.5240782     23  1.200                                             
     1    -11.1113914     23  1.520                                             
     1      1.3605826     23  1.520                                             
     2    -10.8846608      7  1.500                                             
  local pseudopotential read in
  partial core-charges read in
  partial kinetic energy density read in
  atomic valenz-charges read in
  non local Contribution for L=           0  read in
    real space projection operators read in
  non local Contribution for L=           0  read in
    real space projection operators read in
  non local Contribution for L=           1  read in
    real space projection operators read in
  non local Contribution for L=           1  read in
    real space projection operators read in
    PAW grid and wavefunctions read in
 
   number of l-projection  operators is LMAX  =           4
   number of lm-projection operators is LMMAX =           8
 
 Optimization of the real space projectors (new method)

 maximal supplied QI-value         = 15.12
 optimisation between [QCUT,QGAM] = [ 13.45, 27.06] = [ 50.69,205.06] Ry 
 Optimized for a Real-space Cutoff    1.49 Angstroem

   l    n(q)    QCUT    max X(q) W(low)/X(q) W(high)/X(q)  e(spline) 
   1     12    13.455     4.841    0.13E-05    0.83E-06    0.56E-07
   1     12    13.455     5.701    0.32E-04    0.25E-04    0.17E-06
   2     11    13.455     4.569    0.64E-05    0.34E-05    0.50E-07
   2     11    13.455    32.276    0.49E-04    0.38E-04    0.46E-06
   0     12    13.455    30.046    0.17E-04    0.41E-05    0.51E-07
   0     12    13.455    45.433    0.12E-04    0.27E-04    0.38E-06
 Optimization of the real space projectors (new method)

 maximal supplied QI-value         = 24.76
 optimisation between [QCUT,QGAM] = [ 13.37, 26.98] = [ 50.04,203.89] Ry 
 Optimized for a Real-space Cutoff    1.17 Angstroem

   l    n(q)    QCUT    max X(q) W(low)/X(q) W(high)/X(q)  e(spline) 
   0      9    13.368     4.192    0.20E-04    0.58E-05    0.56E-07
   0      9    13.368     8.473    0.60E-04    0.52E-04    0.21E-06
   1      9    13.368     2.474    0.22E-04    0.17E-04    0.28E-07
   1      9    13.368     3.912    0.94E-04    0.97E-04    0.20E-06
 Optimization of the real space projectors (new method)

 maximal supplied QI-value         = 24.76
 optimisation between [QCUT,QGAM] = [ 13.37, 26.98] = [ 50.04,203.89] Ry 
 Optimized for a Real-space Cutoff    1.17 Angstroem

   l    n(q)    QCUT    max X(q) W(low)/X(q) W(high)/X(q)  e(spline) 
   0      9    13.368    14.049    0.39E-04    0.34E-04    0.16E-06
   0      9    13.368     8.945    0.54E-04    0.47E-04    0.20E-06
   1      9    13.368     7.086    0.99E-04    0.10E-03    0.23E-06
   1      9    13.368     6.747    0.86E-04    0.89E-04    0.21E-06

 ----------------------------------------------------------------------------- 
|                                                                             |
|  ADVICE TO THIS USER RUNNING 'VASP/VAMP'   (HEAR YOUR MASTER'S VOICE ...):  |
|                                                                             |
|      You enforced a specific xc-type in the INCAR file,                     |
|      a different type was found on the POTCAR file                          |
|          I HOPE YOU KNOW, WHAT YOU ARE  DOING                               |
|                                                                             |
 ----------------------------------------------------------------------------- 

 PAW_PBE Ti_pv 07Sep2000                :
 energy of atom  1       EATOM=-1042.3781
 kinetic energy error for atom=    0.0006 (will be added to EATOM!!)
 PAW_PBE O 08Apr2002                    :
 energy of atom  2       EATOM= -432.3788
 kinetic energy error for atom=    0.0091 (will be added to EATOM!!)
  PAW_PBE F 08Apr2002                   :
 energy of atom  3       EATOM= -659.6475
 kinetic energy error for atom=    0.0140 (will be added to EATOM!!)
 
 
 POSCAR: TiOF2 2x2x2 config 0253                 
  positions in direct lattice
  velocities in cartesian coordinates
 exchange correlation table for  LEXCH =       14
   RHO(1)=    0.500       N(1)  =     2000
   RHO(2)=  100.500       N(2)  =     4000

 VTST: version 3.1, (03/28/14)

 CHAIN: initializing optimizer
 
 OPT: Using VASP QUASI-newton optimizer
 CHAIN: Read ICHAIN            0
 
 POSCAR: TiOF2 2x2x2 config 0253                 
  positions in direct lattice
  velocities in cartesian coordinates
 


--------------------------------------------------------------------------------------------------------


 ion  position               nearest neighbor table
   1  0.000  0.989  0.989-   9 1.83  13 1.83  17 1.97  21 1.97  29 2.00  25 2.00
   2  1.000  0.989  0.511-  10 1.83  13 1.83  22 1.97  18 1.97  29 2.00  26 2.00
   3  0.000  0.511  0.989-   9 1.83  14 1.83  19 1.97  23 1.97  30 2.00  25 2.00
   4  1.000  0.511  0.511-  10 1.83  14 1.83  24 1.97  20 1.97  30 2.00  26 2.00
   5  0.500  0.989  0.989-  11 1.83  15 1.83  21 1.97  17 1.97  31 2.00  27 2.00
   6  0.500  0.989  0.511-  12 1.83  15 1.83  18 1.97  22 1.97  31 2.00  28 2.00
   7  0.500  0.511  0.989-  11 1.83  16 1.83  23 1.97  19 1.97  32 2.00  27 2.00
   8  0.500  0.511  0.511-  12 1.83  16 1.83  20 1.97  24 1.97  32 2.00  28 2.00
   9  0.000  0.750  0.006-   3 1.83   1 1.83
  10  1.000  0.750  0.494-   4 1.83   2 1.83
  11  0.500  0.750  0.006-   5 1.83   7 1.83
  12  0.500  0.750  0.494-   6 1.83   8 1.83
  13  1.000  0.006  0.750-   1 1.83   2 1.83
  14  0.000  0.494  0.750-   4 1.83   3 1.83
  15  0.500  0.006  0.750-   5 1.83   6 1.83
  16  0.500  0.494  0.750-   8 1.83   7 1.83
  17  0.250  0.006  0.006-   5 1.97   1 1.97
  18  0.250  0.006  0.494-   6 1.97   2 1.97
  19  0.250  0.494  0.006-   3 1.97   7 1.97
  20  0.250  0.494  0.494-   4 1.97   8 1.97
  21  0.750  0.006  0.006-   5 1.97   1 1.97
  22  0.750  0.006  0.494-   6 1.97   2 1.97
  23  0.750  0.494  0.006-   3 1.97   7 1.97
  24  0.750  0.494  0.494-   4 1.97   8 1.97
  25  0.000  0.250  0.009-   3 2.00   1 2.00
  26  1.000  0.250  0.491-   2 2.00   4 2.00
  27  0.500  0.250  0.009-   5 2.00   7 2.00
  28  0.500  0.250  0.491-   6 2.00   8 2.00
  29  1.000  0.009  0.250-   2 2.00   1 2.00
  30  0.000  0.491  0.250-   3 2.00   4 2.00
  31  0.500  0.009  0.250-   6 2.00   5 2.00
  32  0.500  0.491  0.250-   7 2.00   8 2.00
 

IMPORTANT INFORMATION: All symmetrisations will be switched off!
NOSYMM: (Re-)initialisation of all symmetry stuff for point group C_1.

 
 
 KPOINTS: Title                                   

Automatic generation of k-mesh.
Space group operators:
 irot       det(A)        alpha          n_x          n_y          n_z        tau_x        tau_y        tau_z
    1     1.000000     0.000000     1.000000     0.000000     0.000000     0.000000     0.000000     0.000000
 
 Subroutine IBZKPT returns following result:
 ===========================================
 
 Found      4 irreducible k-points:
 
 Following reciprocal coordinates:
            Coordinates               Weight
  0.250000  0.250000  0.250000      2.000000
 -0.250000  0.250000  0.250000      2.000000
  0.250000 -0.250000  0.250000      2.000000
 -0.250000 -0.250000  0.250000      2.000000
 
 Following cartesian coordinates:
            Coordinates               Weight
  0.031822  0.032704  0.032704      2.000000
 -0.031822  0.032704  0.032704      2.000000
  0.031822 -0.032704  0.032704      2.000000
 -0.031822 -0.032704  0.032704      2.000000
 


--------------------------------------------------------------------------------------------------------




 Dimension of arrays:
   k-points           NKPTS =      4   k-points in BZ     NKDIM =      4   number of bands    NBANDS=    160
   number of dos      NEDOS =   3001   number of ions     NIONS =     32
   non local maximal  LDIM  =      6   non local SUM 2l+1 LMDIM =     18
   total plane-waves  NPLWV = 343000
   max r-space proj   IRMAX =  10359   max aug-charges    IRDMAX= 232235
   dimension x,y,z NGX =    70 NGY =   70 NGZ =   70
   dimension x,y,z NGXF=   140 NGYF=  140 NGZF=  140
   support grid    NGXF=   280 NGYF=  280 NGZF=  280
   ions per type =               8   8  16
   NGX,Y,Z   is equivalent  to a cutoff of  14.81, 15.22, 15.22 a.u.
   NGXF,Y,Z  is equivalent  to a cutoff of  29.63, 30.45, 30.45 a.u.

 SYSTEM =  LTO                                     
 POSCAR =  TiOF2 2x2x2 config 0253                 

 Startparameter for this run:
   NWRITE =      2    write-flag & timer
   PREC   = accura    normal or accurate (medium, high low for compatibility)
   ISTART =      1    job   : 0-new  1-cont  2-samecut
   ICHARG =      0    charge: 1-file 2-atom 10-const
   ISPIN  =      2    spin polarized calculation?
   LNONCOLLINEAR =      F non collinear calculations
   LSORBIT =      F    spin-orbit coupling
   INIWAV =      1    electr: 0-lowe 1-rand  2-diag
   LASPH  =      T    aspherical Exc in radial PAW
   METAGGA=      F    non-selfconsistent MetaGGA calc.

 Electronic Relaxation 1
   ENCUT  =  700.0 eV  51.45 Ry    7.17 a.u.  16.95 16.49 16.49*2*pi/ulx,y,z
   ENINI  =  700.0     initial cutoff
   ENAUG  =  613.6 eV  augmentation charge cutoff
   NELM   =     60;   NELMIN=  2; NELMDL=  0     # of ELM steps 
   EDIFF  = 0.1E-05   stopping-criterion for ELM
   LREAL  =      T    real-space projection
   NLSPLINE    = F    spline interpolate recip. space projectors
   LCOMPAT=      F    compatible to vasp.4.4
   GGA_COMPAT  = T    GGA compatible to vasp.4.4-vasp.4.6
   LMAXPAW     = -100 max onsite density
   LMAXMIX     =    4 max onsite mixed and CHGCAR
   VOSKOWN=      0    Vosko Wilk Nusair interpolation
   ROPT   =   -0.00010  -0.00010  -0.00010
 Ionic relaxation
   EDIFFG = -.1E-01   stopping-criterion for IOM
   NSW    =    100    number of steps for IOM
   NBLOCK =      1;   KBLOCK =    100    inner block; outer block 
   IBRION =      1    ionic relax: 0-MD 1-quasi-New 2-CG
   NFREE  =      0    steps in history (QN), initial steepest desc. (CG)
   ISIF   =      3    stress and relaxation
   IWAVPR =     11    prediction:  0-non 1-charg 2-wave 3-comb
   ISYM   =      0    0-nonsym 1-usesym 2-fastsym
   LCORR  =      T    Harris-Foulkes like correction to forces

   POTIM  = 0.5000    time-step for ionic-motion
   TEIN   =    0.0    initial temperature
   TEBEG  =    0.0;   TEEND  =   0.0 temperature during run
   SMASS  =  -3.00    Nose mass-parameter (am)
   estimated Nose-frequenzy (Omega)   =  0.10E-29 period in steps =****** mass=  -0.141E-26a.u.
   SCALEE = 1.0000    scale energy and forces
   NPACO  =    256;   APACO  = 16.0  distance and # of slots for P.C.
   PSTRESS=    0.0 pullay stress

  Mass of Ions in am
   POMASS =  47.88 16.00 19.00
  Ionic Valenz
   ZVAL   =  10.00  6.00  7.00
  Atomic Wigner-Seitz radii
   RWIGS  =  -1.00 -1.00 -1.00
  virtual crystal weights 
   VCA    =   1.00  1.00  1.00
   NELECT =     240.0000    total number of electrons
   NUPDOWN=      -1.0000    fix difference up-down

 DOS related values:
   EMIN   =  10.00;   EMAX   =-10.00  energy-range for DOS
   EFERMI =   0.00
   ISMEAR =     0;   SIGMA  =   0.01  broadening in eV -4-tet -1-fermi 0-gaus

 Electronic relaxation 2 (details)
   IALGO  =     38    algorithm
   LDIAG  =      T    sub-space diagonalisation (order eigenvalues)
   LSUBROT=      F    optimize rotation matrix (better conditioning)
   TURBO    =      0    0=normal 1=particle mesh
   IRESTART =      0    0=no restart 2=restart with 2 vectors
   NREBOOT  =      0    no. of reboots
   NMIN     =      0    reboot dimension
   EREF     =   0.00    reference energy to select bands
   IMIX   =      4    mixing-type and parameters
     AMIX     =   0.40;   BMIX     =  1.00
     AMIX_MAG =   1.60;   BMIX_MAG =  1.00
     AMIN     =   0.10
     WC   =   100.;   INIMIX=   1;  MIXPRE=   1;  MAXMIX= -45

 Intra band minimization:
   WEIMIN = 0.0010     energy-eigenvalue tresh-hold
   EBREAK =  0.16E-08  absolut break condition
   DEPER  =   0.30     relativ break condition  

   TIME   =   0.40     timestep for ELM

  volume/ion in A,a.u.               =      14.35        96.81
  Fermi-wavevector in a.u.,A,eV,Ry     =   1.318817  2.492202 23.664310  1.739278
  Thomas-Fermi vector in A             =   2.448759
 
 Write flags
   LWAVE        =      T    write WAVECAR
   LDOWNSAMPLE  =      F    k-point downsampling of WAVECAR
   LCHARG       =      T    write CHGCAR
   LVTOT        =      F    write LOCPOT, total local potential
   LVHAR        =      F    write LOCPOT, Hartree potential only
   LELF         =      F    write electronic localiz. function (ELF)
   LORBIT       =     11    0 simple, 1 ext, 2 COOP (PROOUT), +10 PAW based schemes


 Dipole corrections
   LMONO  =      F    monopole corrections only (constant potential shift)
   LDIPOL =      F    correct potential (dipole corrections)
   IDIPOL =      0    1-x, 2-y, 3-z, 4-all directions 
   EPSILON=  1.0000000 bulk dielectric constant

 LDA+U is selected, type is set to LDAUTYPE =  2
   angular momentum for each species LDAUL =     2   -1   -1
   U (eV)           for each species LDAUU =   4.2  0.0  0.0
   J (eV)           for each species LDAUJ =   0.0  0.0  0.0
 Exchange correlation treatment:
   GGA     =    PS    GGA type
   LEXCH   =    14    internal setting for exchange type
   VOSKOWN=      0    Vosko Wilk Nusair interpolation
   LHFCALC =     F    Hartree Fock is set to
   LHFONE  =     F    Hartree Fock one center treatment
   AEXX    =    0.0000 exact exchange contribution

 Linear response parameters
   LEPSILON=     F    determine dielectric tensor
   LRPA    =     F    only Hartree local field effects (RPA)
   LNABLA  =     F    use nabla operator in PAW spheres
   LVEL    =     F    velocity operator in full k-point grid
   LINTERFAST=   F  fast interpolation
   KINTER  =     0    interpolate to denser k-point grid
   CSHIFT  =0.1000    complex shift for real part using Kramers Kronig
   OMEGAMAX=  -1.0    maximum frequency
   DEG_THRESHOLD= 0.2000000E-02 threshold for treating states as degnerate
   RTIME   =   -0.100 relaxation time in fs
  (WPLASMAI=    0.000 imaginary part of plasma frequency in eV, 0.658/RTIME)
   DFIELD  = 0.0000000 0.0000000 0.0000000 field for delta impulse in time
 
 Orbital magnetization related:
   ORBITALMAG=     F  switch on orbital magnetization
   LCHIMAG   =     F  perturbation theory with respect to B field
   DQ        =  0.001000  dq finite difference perturbation B field
   LLRAUG    =     F  two centre corrections for induced B field



--------------------------------------------------------------------------------------------------------


 quasi-Newton-method for relaxation of ions
 charge density and potential will be updated during run
 spin polarized calculation
 Variant of blocked Davidson
 Davidson routine will perform the subspace rotation
 perform sub-space diagonalisation
    after iterative eigenvector-optimisation
 modified Broyden-mixing scheme, WC =      100.0
 initial mixing is a Kerker type mixing with AMIX =  0.4000 and BMIX =      1.0000
 Hartree-type preconditioning will be used
 using additional bands           40
 real space projection scheme for non local part
 use partial core corrections
 calculate Harris-corrections to forces 
   (improved forces if not selfconsistent)
 use gradient corrections 
 use of overlap-Matrix (Vanderbilt PP)
 Gauss-broadening in eV      SIGMA  =   0.01


--------------------------------------------------------------------------------------------------------


  energy-cutoff  :      700.00
  volume of cell :      459.07
      direct lattice vectors                 reciprocal lattice vectors
     7.856192370 -0.000000002 -0.000000005     0.127288125  0.000000000  0.000000000
    -0.000000000  7.644245028  0.000000729     0.000000000  0.130817366 -0.000000012
    -0.000000006  0.000000727  7.644263303     0.000000000 -0.000000012  0.130817053

  length of vectors
     7.856192370  7.644245028  7.644263303     0.127288125  0.130817366  0.130817053


 
 old parameters found on file WAVECAR:
  energy-cutoff  :      700.00
  volume of cell :      438.28
      direct lattice vectors                 reciprocal lattice vectors
     7.596000000  0.000000000  0.000000000     0.131648236  0.000000000  0.000000000
     0.000000000  7.596000000  0.000000000     0.000000000  0.131648236  0.000000000
     0.000000000  0.000000000  7.596000000     0.000000000  0.000000000  0.131648236

  length of vectors

 
 k-points in units of 2pi/SCALE and weight: Title                                   
   0.03182203  0.03270434  0.03270426       0.250
  -0.03182203  0.03270434  0.03270426       0.250
   0.03182203 -0.03270434  0.03270427       0.250
  -0.03182203 -0.03270434  0.03270427       0.250
 
 k-points in reciprocal lattice and weights: Title                                   
   0.25000000  0.25000000  0.25000000       0.250
  -0.25000000  0.25000000  0.25000000       0.250
   0.25000000 -0.25000000  0.25000000       0.250
  -0.25000000 -0.25000000  0.25000000       0.250
 
 position of ions in fractional coordinates (direct lattice) 
   0.00000000  0.98874726  0.98874990
   1.00000000  0.98874815  0.51124927
   0.00000000  0.51125227  0.98875177
   1.00000000  0.51125297  0.51124896
   0.50000000  0.98874771  0.98875142
   0.50000000  0.98874830  0.51124791
   0.50000000  0.51125196  0.98875183
   0.50000000  0.51125265  0.51124875
   0.00000000  0.74999946  0.00612988
   1.00000000  0.74999751  0.49387012
   0.50000000  0.75000223  0.00613072
   0.50000000  0.75000063  0.49386935
   1.00000000  0.00613062  0.75000100
   0.00000000  0.49386870  0.74999905
   0.50000000  0.00613057  0.75000084
   0.50000000  0.49386967  0.74999925
   0.25000033  0.00598958  0.00598946
   0.25000038  0.00598954  0.49401062
   0.24999980  0.49401030  0.00598945
   0.24999970  0.49401028  0.49401049
   0.74999968  0.00598958  0.00598946
   0.74999962  0.00598954  0.49401062
   0.75000021  0.49401030  0.00598945
   0.75000029  0.49401028  0.49401049
   0.00000000  0.24999979  0.00875150
   1.00000000  0.25000052  0.49124850
   0.50000000  0.24999963  0.00875138
   0.50000000  0.25000022  0.49124862
   1.00000000  0.00875094  0.24999963
   0.00000000  0.49124860  0.25000035
   0.50000000  0.00875156  0.24999970
   0.50000000  0.49124866  0.25000029
 
 position of ions in cartesian coordinates  (Angst):
   0.00000002  7.55822707  7.55826528
   7.85619234  7.55823347  3.90812476
   0.00000002  3.90813838  7.55827921
   7.85619234  3.90814337  3.90812200
   3.92809620  7.55823049  7.55827694
   3.92809616  7.55823465  3.90811436
   3.92809620  3.90813597  7.55827971
   3.92809616  3.90814088  3.90812045
   0.00000002  5.73317967  0.04685893
   7.85619235  5.73316512  3.77527381
   3.92809620  5.73320080  0.04686538
   3.92809617  5.73318892  3.77526789
   7.85619237  0.04686449  5.73320514
  -0.00000000  3.77525388  5.73319059
   3.92809618  0.04686410  5.73320394
   3.92809618  3.77526128  5.73319208
   1.96405067  0.04578583  0.04578499
   1.96405105  0.04578588  3.77634722
   1.96404649  3.77633580  0.04578527
   1.96404575  3.77633599  3.77634664
   5.89214174  0.04578583  0.04578499
   5.89214127  0.04578588  3.77634722
   5.89214593  3.77633580  0.04578527
   5.89214657  3.77633599  3.77634664
   0.00000002  1.91105968  0.06689895
   7.85619235  1.91106561  3.75523308
   3.92809621  1.91105845  0.06689803
   3.92809616  1.91106333  3.75523394
   7.85619237  0.06689451  1.91106298
  -0.00000000  3.75522483  1.91106882
   3.92809618  0.06689927  1.91106351
   3.92809618  3.75522533  1.91106836
 


--------------------------------------------------------------------------------------------------------


 k-point  1 :   0.2500 0.2500 0.2500  plane waves:   19322
 k-point  2 :  -0.2500 0.2500 0.2500  plane waves:   19322
 k-point  3 :   0.2500-0.2500 0.2500  plane waves:   19322
 k-point  4 :  -0.2500-0.2500 0.2500  plane waves:   19322

 maximum and minimum number of plane-waves per node :      2433     2389

 maximum number of plane-waves:     19322
 maximum index in each direction: 
   IXMAX=   17   IYMAX=   16   IZMAX=   16
   IXMIN=  -17   IYMIN=  -16   IZMIN=  -16


 real space projection operators:
  total allocation   :      18650.69 KBytes
  max/ min on nodes  :       2489.88       1939.56


 parallel 3D FFT for wavefunctions:
    minimum data exchange during FFTs selected (reduces bandwidth)
 parallel 3D FFT for charge:
    minimum data exchange during FFTs selected (reduces bandwidth)


 total amount of memory used by VASP MPI-rank0    62277. kBytes
=======================================================================

   base      :      30000. kBytes
   nonlr-proj:       8641. kBytes
   fftplans  :       8422. kBytes
   grid      :       8783. kBytes
   one-center:        124. kBytes
   wavefun   :       6307. kBytes
 
     INWAV:  cpu time    3.7664: real time    7.2028
 Broyden mixing: mesh for mixing (old mesh)
   NGX = 33   NGY = 33   NGZ = 33
  (NGX  =140   NGY  =140   NGZ  =140)
  gives a total of  35937 points

 charge density for first step will be calculated from the start-wavefunctions


--------------------------------------------------------------------------------------------------------


 Maximum index for non-local projection operator         1387
 Maximum index for augmentation-charges         7204 (set IRDMAX)


--------------------------------------------------------------------------------------------------------


 initial charge from wavefunction
 First call to EWALD:  gamma=   0.230
 Maximum number of real-space cells 3x 3x 3
 Maximum number of reciprocal cells 3x 3x 3

    FEWALD:  cpu time    0.0040: real time    0.0034


--------------------------------------- Iteration      1(   1)  ---------------------------------------


    POTLOK:  cpu time    0.1490: real time    0.2174
    SETDIJ:  cpu time    0.8479: real time    0.8545
     EDDAV:  cpu time    3.5475: real time    3.5537
       DOS:  cpu time    0.0010: real time    0.0008
    CHARGE:  cpu time    0.3989: real time    0.4077
    MIXING:  cpu time    0.0020: real time    0.0025
    --------------------------------------------
      LOOP:  cpu time    4.9462: real time    5.0366

 eigenvalue-minimisations  :  2560
 total energy-change (2. order) :-0.2136666E+03  (-0.6102627E-01)
 number of electron     240.0000002 magnetization       0.0000000
 augmentation part       61.9439885 magnetization       0.0000000

 Broyden mixing:
  rms(total) = 0.65189E-02    rms(broyden)= 0.60769E-02
  rms(prec ) = 0.64077E-02
  weight for this iteration     100.00

 Free energy of the ion-electron system (eV)
  ---------------------------------------------------
  alpha Z        PSCENC =       762.76675710
  Ewald energy   TEWEN  =    -12838.67895135
  -Hartree energ DENC   =     -8211.96724956
  -exchange      EXHF   =         0.00000000
  -V(xc)+E(xc)   XCENC  =      1119.89997042
  PAW double counting   =     18019.37185724   -18143.19867975
  entropy T*S    EENTRO =        -0.00000000
  eigenvalues    EBANDS =     -3224.21352892
  atomic energy  EATOM  =     22302.35321627
  Solvation  Ediel_sol  =         0.00000000
  ---------------------------------------------------
  free energy    TOTEN  =      -213.66660854 eV

  energy without entropy =     -213.66660854  energy(sigma->0) =     -213.66660854


--------------------------------------------------------------------------------------------------------




--------------------------------------- Iteration      1(   2)  ---------------------------------------


    POTLOK:  cpu time    0.1500: real time    0.1626
    SETDIJ:  cpu time    0.8559: real time    0.8541
     EDDAV:  cpu time    3.5995: real time    3.5983
       DOS:  cpu time    0.0010: real time    0.0009
    CHARGE:  cpu time    0.4059: real time    0.4029
    MIXING:  cpu time    0.0120: real time    0.0120
    --------------------------------------------
      LOOP:  cpu time    5.0242: real time    5.0309

 eigenvalue-minimisations  :  2560
 total energy-change (2. order) :-0.7699488E-04  (-0.2253532E-05)
 number of electron     240.0000002 magnetization      -0.0000000
 augmentation part       61.9449604 magnetization      -0.0000000

 Broyden mixing:
  rms(total) = 0.36407E-02    rms(broyden)= 0.36104E-02
  rms(prec ) = 0.37930E-02
  weight for this iteration     100.00

 eigenvalues of (default mixing * dielectric matrix)
  average eigenvalue GAMMA=   2.3268
  2.3268

 Free energy of the ion-electron system (eV)
  ---------------------------------------------------
  alpha Z        PSCENC =       762.76675710
  Ewald energy   TEWEN  =    -12838.67895135
  -Hartree energ DENC   =     -8211.90684449
  -exchange      EXHF   =         0.00000000
  -V(xc)+E(xc)   XCENC  =      1119.89672322
  PAW double counting   =     18019.97241315   -18143.78697747
  entropy T*S    EENTRO =        -0.00000000
  eigenvalues    EBANDS =     -3224.28302197
  atomic energy  EATOM  =     22302.35321627
  Solvation  Ediel_sol  =         0.00000000
  ---------------------------------------------------
  free energy    TOTEN  =      -213.66668554 eV

  energy without entropy =     -213.66668554  energy(sigma->0) =     -213.66668554


--------------------------------------------------------------------------------------------------------




--------------------------------------- Iteration      1(   3)  ---------------------------------------


    POTLOK:  cpu time    0.2430: real time    0.2613
    SETDIJ:  cpu time    0.8629: real time    0.8616
     EDDAV:  cpu time    3.6594: real time    3.6584
       DOS:  cpu time    0.0010: real time    0.0009
    CHARGE:  cpu time    0.4069: real time    0.4045
    MIXING:  cpu time    0.0030: real time    0.0029
    --------------------------------------------
      LOOP:  cpu time    5.1762: real time    5.1896

 eigenvalue-minimisations  :  2496
 total energy-change (2. order) :-0.8187098E-04  (-0.1592641E-05)
 number of electron     240.0000002 magnetization      -0.0000000
 augmentation part       61.9450062 magnetization      -0.0000000

 Broyden mixing:
  rms(total) = 0.50706E-03    rms(broyden)= 0.49790E-03
  rms(prec ) = 0.58067E-03
  weight for this iteration     100.00

 eigenvalues of (default mixing * dielectric matrix)
  average eigenvalue GAMMA=   1.7341
  0.9908  2.4775

 Free energy of the ion-electron system (eV)
  ---------------------------------------------------
  alpha Z        PSCENC =       762.76675710
  Ewald energy   TEWEN  =    -12838.67895135
  -Hartree energ DENC   =     -8211.94332533
  -exchange      EXHF   =         0.00000000
  -V(xc)+E(xc)   XCENC  =      1119.89905506
  PAW double counting   =     18020.84797170   -18144.64962951
  entropy T*S    EENTRO =        -0.00000000
  eigenvalues    EBANDS =     -3224.26186136
  atomic energy  EATOM  =     22302.35321627
  Solvation  Ediel_sol  =         0.00000000
  ---------------------------------------------------
  free energy    TOTEN  =      -213.66676741 eV

  energy without entropy =     -213.66676741  energy(sigma->0) =     -213.66676741


--------------------------------------------------------------------------------------------------------




--------------------------------------- Iteration      1(   4)  ---------------------------------------


    POTLOK:  cpu time    0.1590: real time    0.1788
    SETDIJ:  cpu time    0.8649: real time    0.8636
     EDDAV:  cpu time    2.5156: real time    2.5146
       DOS:  cpu time    0.0010: real time    0.0010
    CHARGE:  cpu time    0.4069: real time    0.4055
    MIXING:  cpu time    0.0030: real time    0.0027
    --------------------------------------------
      LOOP:  cpu time    3.9504: real time    3.9662

 eigenvalue-minimisations  :  1472
 total energy-change (2. order) :-0.1409837E-05  (-0.5083055E-07)
 number of electron     240.0000002 magnetization       0.0000000
 augmentation part       61.9452613 magnetization       0.0000000

 Broyden mixing:
  rms(total) = 0.15884E-03    rms(broyden)= 0.15756E-03
  rms(prec ) = 0.22938E-03
  weight for this iteration     100.00

 eigenvalues of (default mixing * dielectric matrix)
  average eigenvalue GAMMA=   1.4616
  2.5000  1.1764  0.7083

 Free energy of the ion-electron system (eV)
  ---------------------------------------------------
  alpha Z        PSCENC =       762.76675710
  Ewald energy   TEWEN  =    -12838.67895135
  -Hartree energ DENC   =     -8211.96027740
  -exchange      EXHF   =         0.00000000
  -V(xc)+E(xc)   XCENC  =      1119.90038711
  PAW double counting   =     18020.88409908   -18144.68546722
  entropy T*S    EENTRO =        -0.00000000
  eigenvalues    EBANDS =     -3224.24653240
  atomic energy  EATOM  =     22302.35321627
  Solvation  Ediel_sol  =         0.00000000
  ---------------------------------------------------
  free energy    TOTEN  =      -213.66676882 eV

  energy without entropy =     -213.66676882  energy(sigma->0) =     -213.66676882


--------------------------------------------------------------------------------------------------------




--------------------------------------- Iteration      1(   5)  ---------------------------------------


    POTLOK:  cpu time    0.1370: real time    0.1699
    SETDIJ:  cpu time    0.8749: real time    0.8814
     EDDAV:  cpu time    2.5776: real time    2.5825
       DOS:  cpu time    0.0010: real time    0.0009
    --------------------------------------------
      LOOP:  cpu time    3.5905: real time    3.6347

 eigenvalue-minimisations  :  1472
 total energy-change (2. order) :-0.2043089E-07  (-0.2568613E-07)
 number of electron     240.0000002 magnetization       0.0000000
 augmentation part       61.9452613 magnetization       0.0000000

 Free energy of the ion-electron system (eV)
  ---------------------------------------------------
  alpha Z        PSCENC =       762.76675710
  Ewald energy   TEWEN  =    -12838.67895135
  -Hartree energ DENC   =     -8211.96948050
  -exchange      EXHF   =         0.00000000
  -V(xc)+E(xc)   XCENC  =      1119.90073708
  PAW double counting   =     18020.85982746   -18144.66086446
  entropy T*S    EENTRO =        -0.00000000
  eigenvalues    EBANDS =     -3224.23801044
  atomic energy  EATOM  =     22302.35321627
  Solvation  Ediel_sol  =         0.00000000
  ---------------------------------------------------
  free energy    TOTEN  =      -213.66676884 eV

  energy without entropy =     -213.66676884  energy(sigma->0) =     -213.66676884


--------------------------------------------------------------------------------------------------------




 average (electrostatic) potential at core
  the test charge radii are     1.0397  0.7215  0.7167
  (the norm of the test charge is              1.0000)
       1 -58.9006       2 -58.9008       3 -58.9006       4 -58.9004       5 -58.9005
       6 -58.9006       7 -58.9007       8 -58.9006       9 -74.1006      10 -74.1006
      11 -74.1006      12 -74.1006      13 -74.1004      14 -74.1003      15 -74.1003
      16 -74.1003      17 -79.2643      18 -79.2644      19 -79.2644      20 -79.2643
      21 -79.2643      22 -79.2644      23 -79.2644      24 -79.2643      25 -78.6521
      26 -78.6521      27 -78.6521      28 -78.6521      29 -78.6524      30 -78.6524
      31 -78.6524      32 -78.6525
 
 
 
 E-fermi :  -0.7704     XC(G=0):  -9.0145     alpha+bet : -7.6972


 spin component 1

 k-point     1 :       0.2500    0.2500    0.2500
  band No.  band energies     occupation 
      1     -34.9412      1.00000
      2     -34.9385      1.00000
      3     -34.9383      1.00000
      4     -34.9356      1.00000
      5     -34.8730      1.00000
      6     -34.8704      1.00000
      7     -34.8703      1.00000
      8     -34.8677      1.00000
      9     -34.7896      1.00000
     10     -34.7878      1.00000
     11     -34.7764      1.00000
     12     -34.7763      1.00000
     13     -34.7747      1.00000
     14     -34.7746      1.00000
     15     -34.7635      1.00000
     16     -34.7620      1.00000
     17     -34.7186      1.00000
     18     -34.7169      1.00000
     19     -34.7048      1.00000
     20     -34.7047      1.00000
     21     -34.7033      1.00000
     22     -34.7032      1.00000
     23     -34.6902      1.00000
     24     -34.6889      1.00000
     25     -23.1129      1.00000
     26     -23.0737      1.00000
     27     -23.0737      1.00000
     28     -23.0429      1.00000
     29     -22.7771      1.00000
     30     -22.7550      1.00000
     31     -22.7549      1.00000
     32     -22.7395      1.00000
     33     -22.4591      1.00000
     34     -22.4265      1.00000
     35     -22.3221      1.00000
     36     -22.3218      1.00000
     37     -22.3091      1.00000
     38     -22.3088      1.00000
     39     -22.1955      1.00000
     40     -22.1900      1.00000
     41     -16.7550      1.00000
     42     -16.7446      1.00000
     43     -16.6016      1.00000
     44     -16.6012      1.00000
     45     -16.5890      1.00000
     46     -16.5887      1.00000
     47     -16.4677      1.00000
     48     -16.4521      1.00000
     49      -6.5828      1.00000
     50      -6.5564      1.00000
     51      -6.5561      1.00000
     52      -6.5451      1.00000
     53      -5.9762      1.00000
     54      -5.8740      1.00000
     55      -5.8663      1.00000
     56      -5.8365      1.00000
     57      -5.7719      1.00000
     58      -5.7652      1.00000
     59      -5.7040      1.00000
     60      -5.6179      1.00000
     61      -5.5651      1.00000
     62      -5.5636      1.00000
     63      -5.5625      1.00000
     64      -5.4312      1.00000
     65      -5.1579      1.00000
     66      -5.1539      1.00000
     67      -5.1135      1.00000
     68      -5.0760      1.00000
     69      -4.8053      1.00000
     70      -4.7050      1.00000
     71      -4.5229      1.00000
     72      -4.4853      1.00000
     73      -4.4841      1.00000
     74      -4.4813      1.00000
     75      -4.4534      1.00000
     76      -4.4482      1.00000
     77      -4.4326      1.00000
     78      -4.3619      1.00000
     79      -4.3534      1.00000
     80      -4.3325      1.00000
     81      -4.2631      1.00000
     82      -4.2391      1.00000
     83      -4.1068      1.00000
     84      -4.0830      1.00000
     85      -3.8420      1.00000
     86      -3.8396      1.00000
     87      -3.5852      1.00000
     88      -3.5778      1.00000
     89      -3.4577      1.00000
     90      -3.4310      1.00000
     91      -3.4176      1.00000
     92      -3.3965      1.00000
     93      -3.3284      1.00000
     94      -3.3278      1.00000
     95      -3.3228      1.00000
     96      -3.3094      1.00000
     97      -3.1722      1.00000
     98      -3.1612      1.00000
     99      -3.1278      1.00000
    100      -3.1254      1.00000
    101      -3.1249      1.00000
    102      -2.9759      1.00000
    103      -2.9129      1.00000
    104      -2.9097      1.00000
    105      -2.7117      1.00000
    106      -2.6984      1.00000
    107      -2.2172      1.00000
    108      -2.0840      1.00000
    109      -2.0830      1.00000
    110      -2.0015      1.00000
    111      -1.9765      1.00000
    112      -1.9566      1.00000
    113      -1.9256      1.00000
    114      -1.8221      1.00000
    115      -1.8092      1.00000
    116      -1.7959      1.00000
    117      -1.7937      1.00000
    118      -1.6711      1.00000
    119      -0.8319      1.00000
    120      -0.8277      1.00000
    121       2.1383      0.00000
    122       2.1563      0.00000
    123       2.1852      0.00000
    124       2.2188      0.00000
    125       2.2676      0.00000
    126       2.2735      0.00000
    127       2.6431      0.00000
    128       2.6612      0.00000
    129       2.6894      0.00000
    130       2.6898      0.00000
    131       3.0846      0.00000
    132       3.1813      0.00000
    133       3.2031      0.00000
    134       3.2477      0.00000
    135       3.2805      0.00000
    136       3.3149      0.00000
    137       3.3441      0.00000
    138       3.4598      0.00000
    139       3.5283      0.00000
    140       3.6233      0.00000
    141       3.6234      0.00000
    142       3.6602      0.00000
    143       3.7057      0.00000
    144       3.7363      0.00000
    145       3.8048      0.00000
    146       4.0385      0.00000
    147       4.0558      0.00000
    148       4.1061      0.00000
    149       4.1210      0.00000
    150       4.1735      0.00000
    151       4.4365      0.00000
    152       4.4812      0.00000
    153       4.7157      0.00000
    154       5.4145      0.00000
    155       5.4834      0.00000
    156       5.5930      0.00000
    157       5.9561      0.00000
    158       6.0001      0.00000
    159       6.5293      0.00000
    160       6.5573      0.00000

 k-point     2 :      -0.2500    0.2500    0.2500
  band No.  band energies     occupation 
      1     -34.9412      1.00000
      2     -34.9385      1.00000
      3     -34.9383      1.00000
      4     -34.9356      1.00000
      5     -34.8730      1.00000
      6     -34.8704      1.00000
      7     -34.8703      1.00000
      8     -34.8677      1.00000
      9     -34.7896      1.00000
     10     -34.7878      1.00000
     11     -34.7764      1.00000
     12     -34.7763      1.00000
     13     -34.7747      1.00000
     14     -34.7746      1.00000
     15     -34.7635      1.00000
     16     -34.7620      1.00000
     17     -34.7186      1.00000
     18     -34.7169      1.00000
     19     -34.7048      1.00000
     20     -34.7047      1.00000
     21     -34.7033      1.00000
     22     -34.7032      1.00000
     23     -34.6902      1.00000
     24     -34.6889      1.00000
     25     -23.1129      1.00000
     26     -23.0737      1.00000
     27     -23.0737      1.00000
     28     -23.0429      1.00000
     29     -22.7771      1.00000
     30     -22.7550      1.00000
     31     -22.7549      1.00000
     32     -22.7395      1.00000
     33     -22.4591      1.00000
     34     -22.4265      1.00000
     35     -22.3221      1.00000
     36     -22.3218      1.00000
     37     -22.3091      1.00000
     38     -22.3088      1.00000
     39     -22.1955      1.00000
     40     -22.1900      1.00000
     41     -16.7550      1.00000
     42     -16.7446      1.00000
     43     -16.6016      1.00000
     44     -16.6012      1.00000
     45     -16.5890      1.00000
     46     -16.5887      1.00000
     47     -16.4677      1.00000
     48     -16.4521      1.00000
     49      -6.5828      1.00000
     50      -6.5564      1.00000
     51      -6.5561      1.00000
     52      -6.5451      1.00000
     53      -5.9762      1.00000
     54      -5.8740      1.00000
     55      -5.8663      1.00000
     56      -5.8365      1.00000
     57      -5.7719      1.00000
     58      -5.7652      1.00000
     59      -5.7040      1.00000
     60      -5.6179      1.00000
     61      -5.5651      1.00000
     62      -5.5636      1.00000
     63      -5.5625      1.00000
     64      -5.4312      1.00000
     65      -5.1579      1.00000
     66      -5.1539      1.00000
     67      -5.1135      1.00000
     68      -5.0760      1.00000
     69      -4.8053      1.00000
     70      -4.7050      1.00000
     71      -4.5229      1.00000
     72      -4.4853      1.00000
     73      -4.4841      1.00000
     74      -4.4813      1.00000
     75      -4.4534      1.00000
     76      -4.4482      1.00000
     77      -4.4326      1.00000
     78      -4.3619      1.00000
     79      -4.3534      1.00000
     80      -4.3325      1.00000
     81      -4.2631      1.00000
     82      -4.2391      1.00000
     83      -4.1068      1.00000
     84      -4.0830      1.00000
     85      -3.8420      1.00000
     86      -3.8396      1.00000
     87      -3.5852      1.00000
     88      -3.5778      1.00000
     89      -3.4577      1.00000
     90      -3.4310      1.00000
     91      -3.4176      1.00000
     92      -3.3965      1.00000
     93      -3.3284      1.00000
     94      -3.3278      1.00000
     95      -3.3228      1.00000
     96      -3.3094      1.00000
     97      -3.1722      1.00000
     98      -3.1612      1.00000
     99      -3.1278      1.00000
    100      -3.1254      1.00000
    101      -3.1249      1.00000
    102      -2.9759      1.00000
    103      -2.9129      1.00000
    104      -2.9097      1.00000
    105      -2.7117      1.00000
    106      -2.6984      1.00000
    107      -2.2172      1.00000
    108      -2.0840      1.00000
    109      -2.0830      1.00000
    110      -2.0015      1.00000
    111      -1.9765      1.00000
    112      -1.9566      1.00000
    113      -1.9256      1.00000
    114      -1.8221      1.00000
    115      -1.8092      1.00000
    116      -1.7959      1.00000
    117      -1.7937      1.00000
    118      -1.6711      1.00000
    119      -0.8319      1.00000
    120      -0.8277      1.00000
    121       2.1383      0.00000
    122       2.1563      0.00000
    123       2.1852      0.00000
    124       2.2188      0.00000
    125       2.2676      0.00000
    126       2.2735      0.00000
    127       2.6431      0.00000
    128       2.6612      0.00000
    129       2.6894      0.00000
    130       2.6898      0.00000
    131       3.0846      0.00000
    132       3.1813      0.00000
    133       3.2031      0.00000
    134       3.2477      0.00000
    135       3.2805      0.00000
    136       3.3149      0.00000
    137       3.3441      0.00000
    138       3.4598      0.00000
    139       3.5283      0.00000
    140       3.6233      0.00000
    141       3.6234      0.00000
    142       3.6602      0.00000
    143       3.7057      0.00000
    144       3.7363      0.00000
    145       3.8048      0.00000
    146       4.0385      0.00000
    147       4.0558      0.00000
    148       4.1061      0.00000
    149       4.1210      0.00000
    150       4.1735      0.00000
    151       4.4365      0.00000
    152       4.4812      0.00000
    153       4.7157      0.00000
    154       5.4145      0.00000
    155       5.4834      0.00000
    156       5.5930      0.00000
    157       5.9561      0.00000
    158       6.0001      0.00000
    159       6.5293      0.00000
    160       6.5573      0.00000

 k-point     3 :       0.2500   -0.2500    0.2500
  band No.  band energies     occupation 
      1     -34.9412      1.00000
      2     -34.9385      1.00000
      3     -34.9383      1.00000
      4     -34.9356      1.00000
      5     -34.8730      1.00000
      6     -34.8704      1.00000
      7     -34.8703      1.00000
      8     -34.8677      1.00000
      9     -34.7896      1.00000
     10     -34.7878      1.00000
     11     -34.7764      1.00000
     12     -34.7763      1.00000
     13     -34.7746      1.00000
     14     -34.7746      1.00000
     15     -34.7635      1.00000
     16     -34.7620      1.00000
     17     -34.7186      1.00000
     18     -34.7169      1.00000
     19     -34.7048      1.00000
     20     -34.7046      1.00000
     21     -34.7033      1.00000
     22     -34.7032      1.00000
     23     -34.6902      1.00000
     24     -34.6889      1.00000
     25     -23.1129      1.00000
     26     -23.0738      1.00000
     27     -23.0736      1.00000
     28     -23.0429      1.00000
     29     -22.7771      1.00000
     30     -22.7551      1.00000
     31     -22.7549      1.00000
     32     -22.7395      1.00000
     33     -22.4591      1.00000
     34     -22.4265      1.00000
     35     -22.3221      1.00000
     36     -22.3218      1.00000
     37     -22.3091      1.00000
     38     -22.3088      1.00000
     39     -22.1955      1.00000
     40     -22.1900      1.00000
     41     -16.7550      1.00000
     42     -16.7446      1.00000
     43     -16.6016      1.00000
     44     -16.6012      1.00000
     45     -16.5890      1.00000
     46     -16.5887      1.00000
     47     -16.4677      1.00000
     48     -16.4521      1.00000
     49      -6.5828      1.00000
     50      -6.5565      1.00000
     51      -6.5560      1.00000
     52      -6.5451      1.00000
     53      -5.9762      1.00000
     54      -5.8740      1.00000
     55      -5.8663      1.00000
     56      -5.8365      1.00000
     57      -5.7719      1.00000
     58      -5.7652      1.00000
     59      -5.7040      1.00000
     60      -5.6179      1.00000
     61      -5.5651      1.00000
     62      -5.5636      1.00000
     63      -5.5625      1.00000
     64      -5.4312      1.00000
     65      -5.1579      1.00000
     66      -5.1539      1.00000
     67      -5.1135      1.00000
     68      -5.0760      1.00000
     69      -4.8053      1.00000
     70      -4.7050      1.00000
     71      -4.5229      1.00000
     72      -4.4853      1.00000
     73      -4.4841      1.00000
     74      -4.4813      1.00000
     75      -4.4534      1.00000
     76      -4.4482      1.00000
     77      -4.4326      1.00000
     78      -4.3618      1.00000
     79      -4.3534      1.00000
     80      -4.3326      1.00000
     81      -4.2631      1.00000
     82      -4.2391      1.00000
     83      -4.1068      1.00000
     84      -4.0830      1.00000
     85      -3.8420      1.00000
     86      -3.8396      1.00000
     87      -3.5852      1.00000
     88      -3.5778      1.00000
     89      -3.4577      1.00000
     90      -3.4310      1.00000
     91      -3.4176      1.00000
     92      -3.3965      1.00000
     93      -3.3284      1.00000
     94      -3.3278      1.00000
     95      -3.3228      1.00000
     96      -3.3094      1.00000
     97      -3.1722      1.00000
     98      -3.1612      1.00000
     99      -3.1278      1.00000
    100      -3.1254      1.00000
    101      -3.1249      1.00000
    102      -2.9759      1.00000
    103      -2.9129      1.00000
    104      -2.9097      1.00000
    105      -2.7117      1.00000
    106      -2.6984      1.00000
    107      -2.2172      1.00000
    108      -2.0840      1.00000
    109      -2.0830      1.00000
    110      -2.0015      1.00000
    111      -1.9765      1.00000
    112      -1.9565      1.00000
    113      -1.9256      1.00000
    114      -1.8221      1.00000
    115      -1.8092      1.00000
    116      -1.7959      1.00000
    117      -1.7937      1.00000
    118      -1.6711      1.00000
    119      -0.8319      1.00000
    120      -0.8277      1.00000
    121       2.1383      0.00000
    122       2.1563      0.00000
    123       2.1852      0.00000
    124       2.2188      0.00000
    125       2.2676      0.00000
    126       2.2735      0.00000
    127       2.6431      0.00000
    128       2.6612      0.00000
    129       2.6894      0.00000
    130       2.6898      0.00000
    131       3.0846      0.00000
    132       3.1814      0.00000
    133       3.2032      0.00000
    134       3.2476      0.00000
    135       3.2804      0.00000
    136       3.3149      0.00000
    137       3.3440      0.00000
    138       3.4598      0.00000
    139       3.5283      0.00000
    140       3.6233      0.00000
    141       3.6235      0.00000
    142       3.6602      0.00000
    143       3.7057      0.00000
    144       3.7362      0.00000
    145       3.8048      0.00000
    146       4.0385      0.00000
    147       4.0558      0.00000
    148       4.1062      0.00000
    149       4.1210      0.00000
    150       4.1735      0.00000
    151       4.4365      0.00000
    152       4.4812      0.00000
    153       4.7157      0.00000
    154       5.4144      0.00000
    155       5.4835      0.00000
    156       5.5930      0.00000
    157       5.9561      0.00000
    158       6.0001      0.00000
    159       6.5293      0.00000
    160       6.5573      0.00000

 k-point     4 :      -0.2500   -0.2500    0.2500
  band No.  band energies     occupation 
      1     -34.9412      1.00000
      2     -34.9385      1.00000
      3     -34.9383      1.00000
      4     -34.9356      1.00000
      5     -34.8730      1.00000
      6     -34.8704      1.00000
      7     -34.8703      1.00000
      8     -34.8677      1.00000
      9     -34.7896      1.00000
     10     -34.7878      1.00000
     11     -34.7764      1.00000
     12     -34.7763      1.00000
     13     -34.7746      1.00000
     14     -34.7746      1.00000
     15     -34.7635      1.00000
     16     -34.7620      1.00000
     17     -34.7186      1.00000
     18     -34.7169      1.00000
     19     -34.7048      1.00000
     20     -34.7046      1.00000
     21     -34.7033      1.00000
     22     -34.7032      1.00000
     23     -34.6902      1.00000
     24     -34.6889      1.00000
     25     -23.1129      1.00000
     26     -23.0738      1.00000
     27     -23.0736      1.00000
     28     -23.0429      1.00000
     29     -22.7771      1.00000
     30     -22.7551      1.00000
     31     -22.7549      1.00000
     32     -22.7395      1.00000
     33     -22.4591      1.00000
     34     -22.4265      1.00000
     35     -22.3221      1.00000
     36     -22.3218      1.00000
     37     -22.3091      1.00000
     38     -22.3088      1.00000
     39     -22.1955      1.00000
     40     -22.1900      1.00000
     41     -16.7550      1.00000
     42     -16.7446      1.00000
     43     -16.6016      1.00000
     44     -16.6012      1.00000
     45     -16.5890      1.00000
     46     -16.5887      1.00000
     47     -16.4677      1.00000
     48     -16.4521      1.00000
     49      -6.5828      1.00000
     50      -6.5565      1.00000
     51      -6.5560      1.00000
     52      -6.5451      1.00000
     53      -5.9762      1.00000
     54      -5.8740      1.00000
     55      -5.8663      1.00000
     56      -5.8365      1.00000
     57      -5.7719      1.00000
     58      -5.7652      1.00000
     59      -5.7040      1.00000
     60      -5.6179      1.00000
     61      -5.5651      1.00000
     62      -5.5636      1.00000
     63      -5.5625      1.00000
     64      -5.4312      1.00000
     65      -5.1579      1.00000
     66      -5.1539      1.00000
     67      -5.1135      1.00000
     68      -5.0760      1.00000
     69      -4.8053      1.00000
     70      -4.7050      1.00000
     71      -4.5229      1.00000
     72      -4.4853      1.00000
     73      -4.4841      1.00000
     74      -4.4813      1.00000
     75      -4.4534      1.00000
     76      -4.4482      1.00000
     77      -4.4326      1.00000
     78      -4.3618      1.00000
     79      -4.3534      1.00000
     80      -4.3326      1.00000
     81      -4.2631      1.00000
     82      -4.2391      1.00000
     83      -4.1068      1.00000
     84      -4.0830      1.00000
     85      -3.8420      1.00000
     86      -3.8396      1.00000
     87      -3.5852      1.00000
     88      -3.5778      1.00000
     89      -3.4577      1.00000
     90      -3.4310      1.00000
     91      -3.4176      1.00000
     92      -3.3965      1.00000
     93      -3.3284      1.00000
     94      -3.3278      1.00000
     95      -3.3228      1.00000
     96      -3.3094      1.00000
     97      -3.1722      1.00000
     98      -3.1612      1.00000
     99      -3.1278      1.00000
    100      -3.1254      1.00000
    101      -3.1249      1.00000
    102      -2.9759      1.00000
    103      -2.9129      1.00000
    104      -2.9097      1.00000
    105      -2.7117      1.00000
    106      -2.6984      1.00000
    107      -2.2172      1.00000
    108      -2.0840      1.00000
    109      -2.0830      1.00000
    110      -2.0015      1.00000
    111      -1.9765      1.00000
    112      -1.9565      1.00000
    113      -1.9256      1.00000
    114      -1.8221      1.00000
    115      -1.8092      1.00000
    116      -1.7959      1.00000
    117      -1.7937      1.00000
    118      -1.6711      1.00000
    119      -0.8319      1.00000
    120      -0.8277      1.00000
    121       2.1383      0.00000
    122       2.1563      0.00000
    123       2.1852      0.00000
    124       2.2188      0.00000
    125       2.2676      0.00000
    126       2.2735      0.00000
    127       2.6431      0.00000
    128       2.6612      0.00000
    129       2.6894      0.00000
    130       2.6898      0.00000
    131       3.0846      0.00000
    132       3.1814      0.00000
    133       3.2032      0.00000
    134       3.2476      0.00000
    135       3.2804      0.00000
    136       3.3149      0.00000
    137       3.3440      0.00000
    138       3.4598      0.00000
    139       3.5283      0.00000
    140       3.6233      0.00000
    141       3.6235      0.00000
    142       3.6602      0.00000
    143       3.7057      0.00000
    144       3.7362      0.00000
    145       3.8048      0.00000
    146       4.0385      0.00000
    147       4.0558      0.00000
    148       4.1062      0.00000
    149       4.1210      0.00000
    150       4.1735      0.00000
    151       4.4365      0.00000
    152       4.4812      0.00000
    153       4.7157      0.00000
    154       5.4144      0.00000
    155       5.4835      0.00000
    156       5.5930      0.00000
    157       5.9561      0.00000
    158       6.0001      0.00000
    159       6.5293      0.00000
    160       6.5573      0.00000

 spin component 2

 k-point     1 :       0.2500    0.2500    0.2500
  band No.  band energies     occupation 
      1     -34.9412      1.00000
      2     -34.9385      1.00000
      3     -34.9383      1.00000
      4     -34.9356      1.00000
      5     -34.8730      1.00000
      6     -34.8704      1.00000
      7     -34.8703      1.00000
      8     -34.8677      1.00000
      9     -34.7896      1.00000
     10     -34.7878      1.00000
     11     -34.7764      1.00000
     12     -34.7763      1.00000
     13     -34.7747      1.00000
     14     -34.7746      1.00000
     15     -34.7635      1.00000
     16     -34.7620      1.00000
     17     -34.7186      1.00000
     18     -34.7169      1.00000
     19     -34.7048      1.00000
     20     -34.7047      1.00000
     21     -34.7033      1.00000
     22     -34.7032      1.00000
     23     -34.6902      1.00000
     24     -34.6889      1.00000
     25     -23.1129      1.00000
     26     -23.0737      1.00000
     27     -23.0737      1.00000
     28     -23.0429      1.00000
     29     -22.7771      1.00000
     30     -22.7550      1.00000
     31     -22.7549      1.00000
     32     -22.7395      1.00000
     33     -22.4591      1.00000
     34     -22.4265      1.00000
     35     -22.3221      1.00000
     36     -22.3218      1.00000
     37     -22.3091      1.00000
     38     -22.3088      1.00000
     39     -22.1955      1.00000
     40     -22.1900      1.00000
     41     -16.7550      1.00000
     42     -16.7446      1.00000
     43     -16.6016      1.00000
     44     -16.6012      1.00000
     45     -16.5890      1.00000
     46     -16.5887      1.00000
     47     -16.4677      1.00000
     48     -16.4521      1.00000
     49      -6.5828      1.00000
     50      -6.5564      1.00000
     51      -6.5561      1.00000
     52      -6.5451      1.00000
     53      -5.9762      1.00000
     54      -5.8740      1.00000
     55      -5.8663      1.00000
     56      -5.8365      1.00000
     57      -5.7719      1.00000
     58      -5.7652      1.00000
     59      -5.7040      1.00000
     60      -5.6179      1.00000
     61      -5.5651      1.00000
     62      -5.5636      1.00000
     63      -5.5625      1.00000
     64      -5.4312      1.00000
     65      -5.1579      1.00000
     66      -5.1539      1.00000
     67      -5.1135      1.00000
     68      -5.0760      1.00000
     69      -4.8053      1.00000
     70      -4.7050      1.00000
     71      -4.5229      1.00000
     72      -4.4853      1.00000
     73      -4.4841      1.00000
     74      -4.4813      1.00000
     75      -4.4534      1.00000
     76      -4.4482      1.00000
     77      -4.4326      1.00000
     78      -4.3619      1.00000
     79      -4.3534      1.00000
     80      -4.3325      1.00000
     81      -4.2631      1.00000
     82      -4.2391      1.00000
     83      -4.1068      1.00000
     84      -4.0830      1.00000
     85      -3.8420      1.00000
     86      -3.8396      1.00000
     87      -3.5852      1.00000
     88      -3.5778      1.00000
     89      -3.4577      1.00000
     90      -3.4310      1.00000
     91      -3.4176      1.00000
     92      -3.3965      1.00000
     93      -3.3284      1.00000
     94      -3.3278      1.00000
     95      -3.3228      1.00000
     96      -3.3094      1.00000
     97      -3.1722      1.00000
     98      -3.1612      1.00000
     99      -3.1278      1.00000
    100      -3.1254      1.00000
    101      -3.1249      1.00000
    102      -2.9759      1.00000
    103      -2.9129      1.00000
    104      -2.9097      1.00000
    105      -2.7117      1.00000
    106      -2.6984      1.00000
    107      -2.2172      1.00000
    108      -2.0840      1.00000
    109      -2.0830      1.00000
    110      -2.0015      1.00000
    111      -1.9765      1.00000
    112      -1.9566      1.00000
    113      -1.9256      1.00000
    114      -1.8221      1.00000
    115      -1.8092      1.00000
    116      -1.7959      1.00000
    117      -1.7937      1.00000
    118      -1.6711      1.00000
    119      -0.8319      1.00000
    120      -0.8277      1.00000
    121       2.1383      0.00000
    122       2.1563      0.00000
    123       2.1852      0.00000
    124       2.2188      0.00000
    125       2.2676      0.00000
    126       2.2735      0.00000
    127       2.6431      0.00000
    128       2.6612      0.00000
    129       2.6894      0.00000
    130       2.6898      0.00000
    131       3.0846      0.00000
    132       3.1813      0.00000
    133       3.2031      0.00000
    134       3.2477      0.00000
    135       3.2805      0.00000
    136       3.3149      0.00000
    137       3.3441      0.00000
    138       3.4598      0.00000
    139       3.5283      0.00000
    140       3.6233      0.00000
    141       3.6234      0.00000
    142       3.6602      0.00000
    143       3.7057      0.00000
    144       3.7363      0.00000
    145       3.8048      0.00000
    146       4.0385      0.00000
    147       4.0558      0.00000
    148       4.1061      0.00000
    149       4.1210      0.00000
    150       4.1735      0.00000
    151       4.4365      0.00000
    152       4.4812      0.00000
    153       4.7157      0.00000
    154       5.4145      0.00000
    155       5.4834      0.00000
    156       5.5930      0.00000
    157       5.9561      0.00000
    158       6.0001      0.00000
    159       6.5293      0.00000
    160       6.5573      0.00000

 k-point     2 :      -0.2500    0.2500    0.2500
  band No.  band energies     occupation 
      1     -34.9412      1.00000
      2     -34.9385      1.00000
      3     -34.9383      1.00000
      4     -34.9356      1.00000
      5     -34.8730      1.00000
      6     -34.8704      1.00000
      7     -34.8703      1.00000
      8     -34.8677      1.00000
      9     -34.7896      1.00000
     10     -34.7878      1.00000
     11     -34.7764      1.00000
     12     -34.7763      1.00000
     13     -34.7747      1.00000
     14     -34.7746      1.00000
     15     -34.7635      1.00000
     16     -34.7620      1.00000
     17     -34.7186      1.00000
     18     -34.7169      1.00000
     19     -34.7048      1.00000
     20     -34.7047      1.00000
     21     -34.7033      1.00000
     22     -34.7032      1.00000
     23     -34.6902      1.00000
     24     -34.6889      1.00000
     25     -23.1129      1.00000
     26     -23.0737      1.00000
     27     -23.0737      1.00000
     28     -23.0429      1.00000
     29     -22.7771      1.00000
     30     -22.7550      1.00000
     31     -22.7549      1.00000
     32     -22.7395      1.00000
     33     -22.4591      1.00000
     34     -22.4265      1.00000
     35     -22.3221      1.00000
     36     -22.3218      1.00000
     37     -22.3091      1.00000
     38     -22.3088      1.00000
     39     -22.1955      1.00000
     40     -22.1900      1.00000
     41     -16.7550      1.00000
     42     -16.7446      1.00000
     43     -16.6016      1.00000
     44     -16.6012      1.00000
     45     -16.5890      1.00000
     46     -16.5887      1.00000
     47     -16.4677      1.00000
     48     -16.4521      1.00000
     49      -6.5828      1.00000
     50      -6.5564      1.00000
     51      -6.5561      1.00000
     52      -6.5451      1.00000
     53      -5.9762      1.00000
     54      -5.8740      1.00000
     55      -5.8663      1.00000
     56      -5.8365      1.00000
     57      -5.7719      1.00000
     58      -5.7652      1.00000
     59      -5.7040      1.00000
     60      -5.6179      1.00000
     61      -5.5651      1.00000
     62      -5.5636      1.00000
     63      -5.5625      1.00000
     64      -5.4312      1.00000
     65      -5.1579      1.00000
     66      -5.1539      1.00000
     67      -5.1135      1.00000
     68      -5.0760      1.00000
     69      -4.8053      1.00000
     70      -4.7050      1.00000
     71      -4.5229      1.00000
     72      -4.4853      1.00000
     73      -4.4841      1.00000
     74      -4.4813      1.00000
     75      -4.4534      1.00000
     76      -4.4482      1.00000
     77      -4.4326      1.00000
     78      -4.3619      1.00000
     79      -4.3534      1.00000
     80      -4.3325      1.00000
     81      -4.2631      1.00000
     82      -4.2391      1.00000
     83      -4.1068      1.00000
     84      -4.0830      1.00000
     85      -3.8420      1.00000
     86      -3.8396      1.00000
     87      -3.5852      1.00000
     88      -3.5778      1.00000
     89      -3.4577      1.00000
     90      -3.4310      1.00000
     91      -3.4176      1.00000
     92      -3.3965      1.00000
     93      -3.3284      1.00000
     94      -3.3278      1.00000
     95      -3.3228      1.00000
     96      -3.3094      1.00000
     97      -3.1722      1.00000
     98      -3.1612      1.00000
     99      -3.1278      1.00000
    100      -3.1254      1.00000
    101      -3.1249      1.00000
    102      -2.9759      1.00000
    103      -2.9129      1.00000
    104      -2.9097      1.00000
    105      -2.7117      1.00000
    106      -2.6984      1.00000
    107      -2.2172      1.00000
    108      -2.0840      1.00000
    109      -2.0830      1.00000
    110      -2.0015      1.00000
    111      -1.9765      1.00000
    112      -1.9566      1.00000
    113      -1.9256      1.00000
    114      -1.8221      1.00000
    115      -1.8092      1.00000
    116      -1.7959      1.00000
    117      -1.7937      1.00000
    118      -1.6711      1.00000
    119      -0.8319      1.00000
    120      -0.8277      1.00000
    121       2.1383      0.00000
    122       2.1563      0.00000
    123       2.1852      0.00000
    124       2.2188      0.00000
    125       2.2676      0.00000
    126       2.2735      0.00000
    127       2.6431      0.00000
    128       2.6612      0.00000
    129       2.6894      0.00000
    130       2.6898      0.00000
    131       3.0846      0.00000
    132       3.1813      0.00000
    133       3.2031      0.00000
    134       3.2477      0.00000
    135       3.2805      0.00000
    136       3.3149      0.00000
    137       3.3441      0.00000
    138       3.4598      0.00000
    139       3.5283      0.00000
    140       3.6233      0.00000
    141       3.6234      0.00000
    142       3.6602      0.00000
    143       3.7057      0.00000
    144       3.7363      0.00000
    145       3.8048      0.00000
    146       4.0385      0.00000
    147       4.0558      0.00000
    148       4.1061      0.00000
    149       4.1210      0.00000
    150       4.1735      0.00000
    151       4.4365      0.00000
    152       4.4812      0.00000
    153       4.7157      0.00000
    154       5.4145      0.00000
    155       5.4834      0.00000
    156       5.5930      0.00000
    157       5.9561      0.00000
    158       6.0001      0.00000
    159       6.5293      0.00000
    160       6.5573      0.00000

 k-point     3 :       0.2500   -0.2500    0.2500
  band No.  band energies     occupation 
      1     -34.9412      1.00000
      2     -34.9385      1.00000
      3     -34.9383      1.00000
      4     -34.9356      1.00000
      5     -34.8730      1.00000
      6     -34.8704      1.00000
      7     -34.8703      1.00000
      8     -34.8677      1.00000
      9     -34.7896      1.00000
     10     -34.7878      1.00000
     11     -34.7764      1.00000
     12     -34.7763      1.00000
     13     -34.7746      1.00000
     14     -34.7746      1.00000
     15     -34.7635      1.00000
     16     -34.7620      1.00000
     17     -34.7186      1.00000
     18     -34.7169      1.00000
     19     -34.7048      1.00000
     20     -34.7046      1.00000
     21     -34.7033      1.00000
     22     -34.7032      1.00000
     23     -34.6902      1.00000
     24     -34.6889      1.00000
     25     -23.1129      1.00000
     26     -23.0738      1.00000
     27     -23.0736      1.00000
     28     -23.0429      1.00000
     29     -22.7771      1.00000
     30     -22.7551      1.00000
     31     -22.7549      1.00000
     32     -22.7395      1.00000
     33     -22.4591      1.00000
     34     -22.4265      1.00000
     35     -22.3221      1.00000
     36     -22.3218      1.00000
     37     -22.3091      1.00000
     38     -22.3088      1.00000
     39     -22.1955      1.00000
     40     -22.1900      1.00000
     41     -16.7550      1.00000
     42     -16.7446      1.00000
     43     -16.6016      1.00000
     44     -16.6012      1.00000
     45     -16.5890      1.00000
     46     -16.5887      1.00000
     47     -16.4677      1.00000
     48     -16.4521      1.00000
     49      -6.5828      1.00000
     50      -6.5565      1.00000
     51      -6.5560      1.00000
     52      -6.5451      1.00000
     53      -5.9762      1.00000
     54      -5.8740      1.00000
     55      -5.8663      1.00000
     56      -5.8365      1.00000
     57      -5.7719      1.00000
     58      -5.7652      1.00000
     59      -5.7040      1.00000
     60      -5.6179      1.00000
     61      -5.5651      1.00000
     62      -5.5636      1.00000
     63      -5.5625      1.00000
     64      -5.4312      1.00000
     65      -5.1579      1.00000
     66      -5.1539      1.00000
     67      -5.1135      1.00000
     68      -5.0760      1.00000
     69      -4.8053      1.00000
     70      -4.7050      1.00000
     71      -4.5229      1.00000
     72      -4.4853      1.00000
     73      -4.4841      1.00000
     74      -4.4813      1.00000
     75      -4.4534      1.00000
     76      -4.4482      1.00000
     77      -4.4326      1.00000
     78      -4.3618      1.00000
     79      -4.3534      1.00000
     80      -4.3326      1.00000
     81      -4.2631      1.00000
     82      -4.2391      1.00000
     83      -4.1068      1.00000
     84      -4.0830      1.00000
     85      -3.8420      1.00000
     86      -3.8396      1.00000
     87      -3.5852      1.00000
     88      -3.5778      1.00000
     89      -3.4577      1.00000
     90      -3.4310      1.00000
     91      -3.4176      1.00000
     92      -3.3965      1.00000
     93      -3.3284      1.00000
     94      -3.3278      1.00000
     95      -3.3228      1.00000
     96      -3.3094      1.00000
     97      -3.1722      1.00000
     98      -3.1612      1.00000
     99      -3.1278      1.00000
    100      -3.1254      1.00000
    101      -3.1249      1.00000
    102      -2.9759      1.00000
    103      -2.9129      1.00000
    104      -2.9097      1.00000
    105      -2.7117      1.00000
    106      -2.6984      1.00000
    107      -2.2172      1.00000
    108      -2.0840      1.00000
    109      -2.0830      1.00000
    110      -2.0015      1.00000
    111      -1.9765      1.00000
    112      -1.9565      1.00000
    113      -1.9256      1.00000
    114      -1.8221      1.00000
    115      -1.8092      1.00000
    116      -1.7959      1.00000
    117      -1.7937      1.00000
    118      -1.6711      1.00000
    119      -0.8319      1.00000
    120      -0.8277      1.00000
    121       2.1383      0.00000
    122       2.1563      0.00000
    123       2.1852      0.00000
    124       2.2188      0.00000
    125       2.2676      0.00000
    126       2.2735      0.00000
    127       2.6431      0.00000
    128       2.6612      0.00000
    129       2.6894      0.00000
    130       2.6898      0.00000
    131       3.0846      0.00000
    132       3.1814      0.00000
    133       3.2032      0.00000
    134       3.2476      0.00000
    135       3.2804      0.00000
    136       3.3149      0.00000
    137       3.3440      0.00000
    138       3.4598      0.00000
    139       3.5283      0.00000
    140       3.6233      0.00000
    141       3.6235      0.00000
    142       3.6602      0.00000
    143       3.7057      0.00000
    144       3.7362      0.00000
    145       3.8048      0.00000
    146       4.0385      0.00000
    147       4.0558      0.00000
    148       4.1062      0.00000
    149       4.1210      0.00000
    150       4.1735      0.00000
    151       4.4365      0.00000
    152       4.4812      0.00000
    153       4.7157      0.00000
    154       5.4144      0.00000
    155       5.4835      0.00000
    156       5.5930      0.00000
    157       5.9561      0.00000
    158       6.0001      0.00000
    159       6.5293      0.00000
    160       6.5573      0.00000

 k-point     4 :      -0.2500   -0.2500    0.2500
  band No.  band energies     occupation 
      1     -34.9412      1.00000
      2     -34.9385      1.00000
      3     -34.9383      1.00000
[...]
  0.000   0.000  -0.000  -0.000  -0.000   0.000  -0.000   0.000  -0.000  -0.000  -0.000   0.000  -0.000  -0.000   0.000   0.000
  0.000   0.000  -0.000   0.000  -0.000  -0.000  -0.000   0.000   0.000  -0.000   0.000   0.000  -0.000   0.000   0.000   0.000
  0.000  -0.000  -0.000  -0.000  -0.000   0.000  -0.000   0.000   0.000   0.000   0.000  -0.000   0.000  -0.000  -0.000  -0.000
 -0.000  -0.000   0.000  -0.000   0.000  -0.000   0.000   0.000   0.000  -0.000  -0.000   0.000  -0.000  -0.000   0.000   0.000
 -0.000   0.000   0.000   0.000   0.000  -0.000   0.000  -0.000  -0.000  -0.000   0.000  -0.000  -0.000   0.000  -0.000  -0.000
 -0.000   0.000   0.000   0.000  -0.000   0.000  -0.000   0.000   0.000   0.000   0.000  -0.000   0.000  -0.000  -0.000  -0.000
 -0.000   0.000   0.000   0.000  -0.000  -0.000   0.000   0.000   0.000   0.000   0.000  -0.000   0.000  -0.000  -0.000  -0.000
 -0.000   0.000  -0.000  -0.000  -0.000   0.000   0.000  -0.000   0.000  -0.000  -0.000   0.000   0.000  -0.000   0.000   0.000
 -0.000   0.000  -0.000  -0.000  -0.000   0.000   0.000   0.000  -0.000  -0.000  -0.000  -0.000  -0.000   0.000   0.000   0.000


------------------------ aborting loop because EDIFF is reached ----------------------------------------


 


 total charge     
 
# of ion       s       p       d       tot
------------------------------------------
    1        0.318   6.464   1.755   8.538
    2        0.318   6.464   1.755   8.538
    3        0.318   6.464   1.755   8.538
    4        0.318   6.464   1.755   8.538
    5        0.318   6.464   1.755   8.538
    6        0.318   6.464   1.755   8.538
    7        0.318   6.464   1.755   8.538
    8        0.318   6.464   1.755   8.538
    9        1.569   3.472   0.000   5.041
   10        1.569   3.472   0.000   5.041
   11        1.569   3.472   0.000   5.041
   12        1.569   3.472   0.000   5.041
   13        1.569   3.472   0.000   5.041
   14        1.569   3.472   0.000   5.041
   15        1.569   3.472   0.000   5.041
   16        1.569   3.472   0.000   5.041
   17        1.729   4.383   0.000   6.112
   18        1.729   4.383   0.000   6.112
   19        1.729   4.383   0.000   6.112
   20        1.729   4.383   0.000   6.112
   21        1.729   4.383   0.000   6.112
   22        1.729   4.383   0.000   6.112
   23        1.729   4.383   0.000   6.112
   24        1.729   4.383   0.000   6.112
   25        1.730   4.380   0.000   6.110
   26        1.730   4.380   0.000   6.110
   27        1.730   4.380   0.000   6.110
   28        1.730   4.380   0.000   6.110
   29        1.730   4.380   0.000   6.110
   30        1.730   4.380   0.000   6.110
   31        1.730   4.380   0.000   6.110
   32        1.730   4.380   0.000   6.110
--------------------------------------------------
tot         42.773 149.592  14.042 206.407
 


 magnetization (x)
 
# of ion       s       p       d       tot
------------------------------------------
    1        0.000  -0.000   0.000   0.000
    2       -0.000  -0.000  -0.000  -0.000
    3        0.000  -0.000  -0.000  -0.000
    4        0.000  -0.000   0.000   0.000
    5        0.000  -0.000  -0.000  -0.000
    6        0.000  -0.000  -0.000  -0.000
    7        0.000  -0.000  -0.000  -0.000
    8        0.000   0.000   0.000   0.000
    9        0.000   0.000   0.000   0.000
   10        0.000  -0.000   0.000   0.000
   11        0.000   0.000   0.000   0.000
   12        0.000  -0.000   0.000   0.000
   13        0.000  -0.000   0.000  -0.000
   14       -0.000   0.000   0.000   0.000
   15        0.000  -0.000   0.000  -0.000
   16       -0.000   0.000   0.000   0.000
   17        0.000   0.000   0.000   0.000
   18       -0.000   0.000   0.000   0.000
   19       -0.000   0.000   0.000   0.000
   20        0.000   0.000   0.000   0.000
   21        0.000   0.000   0.000   0.000
   22       -0.000   0.000   0.000   0.000
   23       -0.000   0.000   0.000   0.000
   24        0.000   0.000   0.000   0.000
   25       -0.000   0.000   0.000  -0.000
   26        0.000  -0.000   0.000  -0.000
   27       -0.000   0.000   0.000  -0.000
   28       -0.000   0.000   0.000  -0.000
   29        0.000   0.000   0.000   0.000
   30        0.000   0.000   0.000   0.000
   31        0.000   0.000   0.000   0.000
   32        0.000   0.000   0.000   0.000
--------------------------------------------------
tot          0.000   0.000  -0.000   0.000
 
    CHARGE:  cpu time    0.4109: real time    0.4083
    FORLOC:  cpu time    0.0110: real time    0.0110
    FORNL :  cpu time    2.2287: real time    2.2254
    STRESS:  cpu time    6.7880: real time    6.7708
    FORCOR:  cpu time    0.1290: real time    0.1291
    FORHAR:  cpu time    0.0210: real time    0.0212
    MIXING:  cpu time    0.0700: real time    0.0693
    OFIELD:  cpu time    0.0000: real time    0.0000

  FORCE on cell =-STRESS in cart. coord.  units (eV):
  Direction    XX          YY          ZZ          XY          YZ          ZX
  --------------------------------------------------------------------------------------
  Alpha Z   762.76676   762.76676   762.76676
  Ewald   -4360.38708 -4239.11258 -4239.23621    -0.00000    -0.00459     0.00000
  Hartree  2699.56635  2756.23681  2756.17262    -0.00000    -0.00099     0.00000
  E(xc)   -1232.08327 -1232.55483 -1232.55474    -0.00000     0.00001    -0.00000
  Local   -1984.73649 -2221.12240 -2220.94119     0.00000     0.00540    -0.00000
  n-local  -974.70448  -962.87624  -962.87951    -0.00000     0.00016     0.00000
  augment   744.46147   763.68090   763.68184     0.00000    -0.00005     0.00000
  Kinetic  4345.21558  4373.02739  4373.02701     0.00000     0.00015     0.00000
  Fock        0.00000     0.00000     0.00000     0.00000     0.00000     0.00000
  -------------------------------------------------------------------------------------
  Total       0.09884     0.04580     0.03659     0.00000     0.00009    -0.00000
  in kB       0.34496     0.15983     0.12769     0.00000     0.00033    -0.00000
  external pressure =        0.21 kB  Pullay stress =        0.00 kB


 VOLUME and BASIS-vectors are now :
 -----------------------------------------------------------------------------
  energy-cutoff  :      700.00
  volume of cell :      459.07
      direct lattice vectors                 reciprocal lattice vectors
     7.856192370 -0.000000002 -0.000000005     0.127288125  0.000000000  0.000000000
    -0.000000000  7.644245028  0.000000729     0.000000000  0.130817366 -0.000000012
    -0.000000006  0.000000727  7.644263303     0.000000000 -0.000000012  0.130817053

  length of vectors
     7.856192370  7.644245028  7.644263303     0.127288125  0.130817366  0.130817053


 FORCES acting on ions
    electron-ion (+dipol)            ewald-force                    non-local-force                 convergence-correction
 -----------------------------------------------------------------------------------------------
   -.426E-05 0.343E+02 0.343E+02   0.418E-05 -.351E+02 -.351E+02   0.121E-06 0.795E+00 0.796E+00   -.210E-08 0.350E-03 0.337E-03
   0.420E-05 0.343E+02 -.343E+02   -.411E-05 -.351E+02 0.351E+02   -.124E-06 0.795E+00 -.796E+00   -.301E-08 0.343E-03 -.334E-03
   -.426E-05 -.343E+02 0.343E+02   0.417E-05 0.351E+02 -.351E+02   0.124E-06 -.795E+00 0.796E+00   0.319E-08 -.348E-03 0.410E-03
   0.418E-05 -.343E+02 -.343E+02   -.409E-05 0.351E+02 0.351E+02   -.124E-06 -.795E+00 -.796E+00   -.179E-08 -.346E-03 -.414E-03
   -.420E-05 0.343E+02 0.343E+02   0.411E-05 -.351E+02 -.351E+02   0.125E-06 0.796E+00 0.796E+00   -.111E-08 0.354E-03 0.393E-03
   0.431E-05 0.343E+02 -.343E+02   -.424E-05 -.351E+02 0.351E+02   -.121E-06 0.795E+00 -.796E+00   -.205E-08 0.346E-03 -.389E-03
   -.418E-05 -.343E+02 0.343E+02   0.408E-05 0.351E+02 -.351E+02   0.125E-06 -.795E+00 0.796E+00   0.413E-08 -.355E-03 0.373E-03
   0.427E-05 -.343E+02 -.343E+02   -.419E-05 0.351E+02 0.351E+02   -.123E-06 -.795E+00 -.796E+00   0.406E-09 -.351E-03 -.377E-03
   0.175E-06 -.188E-02 -.987E+01   -.394E-06 0.207E-02 0.128E+02   0.249E-06 -.124E-03 -.297E+01   0.293E-08 -.136E-04 0.215E-03
   -.276E-06 -.176E-01 0.987E+01   0.505E-06 0.191E-01 -.128E+02   -.266E-06 -.589E-03 0.297E+01   0.767E-09 0.122E-05 -.214E-03
   0.234E-06 0.143E-01 -.987E+01   -.461E-06 -.155E-01 0.128E+02   0.258E-06 0.441E-03 -.297E+01   0.309E-08 -.947E-05 0.218E-03
   -.160E-06 0.155E-02 0.987E+01   0.375E-06 -.163E-02 -.128E+02   -.251E-06 0.554E-04 0.297E+01   0.111E-08 0.409E-05 -.219E-03
   -.156E-07 -.988E+01 0.807E-02   0.169E-07 0.129E+02 -.872E-02   -.434E-08 -.297E+01 0.273E-03   0.119E-08 0.197E-03 -.133E-04
   -.614E-07 0.988E+01 -.757E-02   0.710E-07 -.129E+02 0.818E-02   -.110E-07 0.297E+01 -.189E-03   -.167E-09 -.195E-03 0.282E-05
   0.558E-07 -.988E+01 0.672E-02   -.643E-07 0.129E+02 -.726E-02   0.709E-08 -.297E+01 0.229E-03   0.130E-08 0.197E-03 -.198E-05
   -.839E-08 0.988E+01 -.598E-02   0.940E-08 -.129E+02 0.646E-02   -.116E-08 0.297E+01 -.209E-03   0.149E-09 -.199E-03 0.129E-04
   0.337E-02 0.109E+01 0.110E+01   -.349E-02 0.202E+01 0.201E+01   -.243E-04 -.310E+01 -.310E+01   0.808E-05 0.223E-03 0.240E-03
   0.390E-02 0.109E+01 -.110E+01   -.401E-02 0.202E+01 -.201E+01   -.471E-04 -.310E+01 0.310E+01   -.283E-05 0.223E-03 -.242E-03
   -.216E-02 -.109E+01 0.110E+01   0.216E-02 -.202E+01 0.201E+01   0.924E-04 0.310E+01 -.310E+01   0.402E-05 -.225E-03 0.255E-03
   -.295E-02 -.109E+01 -.110E+01   0.298E-02 -.202E+01 -.201E+01   0.996E-04 0.310E+01 0.310E+01   -.562E-05 -.221E-03 -.252E-03
   -.337E-02 0.109E+01 0.110E+01   0.349E-02 0.202E+01 0.201E+01   0.236E-04 -.310E+01 -.310E+01   -.808E-05 0.223E-03 0.240E-03
   -.391E-02 0.109E+01 -.110E+01   0.401E-02 0.202E+01 -.201E+01   0.478E-04 -.310E+01 0.310E+01   0.283E-05 0.223E-03 -.242E-03
   0.216E-02 -.109E+01 0.110E+01   -.216E-02 -.202E+01 0.201E+01   -.931E-04 0.310E+01 -.310E+01   -.402E-05 -.225E-03 0.255E-03
   0.295E-02 -.109E+01 -.110E+01   -.298E-02 -.202E+01 -.201E+01   -.989E-04 0.310E+01 0.310E+01   0.561E-05 -.221E-03 -.252E-03
   -.108E-05 0.107E-04 0.592E+01   0.947E-06 -.583E-04 -.289E+01   0.183E-06 0.111E-04 -.304E+01   0.360E-08 0.131E-04 0.243E-03
   0.101E-05 0.386E-02 -.592E+01   -.864E-06 -.342E-02 0.289E+01   -.197E-06 -.697E-03 0.304E+01   -.276E-08 -.833E-06 -.242E-03
   -.101E-05 -.363E-02 0.592E+01   0.876E-06 0.341E-02 -.290E+01   0.192E-06 0.422E-03 -.304E+01   0.382E-08 0.113E-04 0.247E-03
   0.107E-05 -.570E-03 -.592E+01   -.944E-06 0.744E-03 0.290E+01   -.183E-06 -.163E-03 0.304E+01   -.225E-08 -.181E-05 -.248E-03
   -.186E-07 0.591E+01 -.191E-02   0.196E-07 -.289E+01 0.165E-02   -.158E-08 -.304E+01 0.374E-03   0.692E-09 0.222E-03 0.121E-04
   -.811E-07 -.591E+01 0.195E-02   0.916E-07 0.288E+01 -.173E-02   -.167E-07 0.304E+01 -.332E-03   0.298E-08 -.217E-03 -.266E-05
   0.813E-07 0.591E+01 -.159E-02   -.959E-07 -.288E+01 0.138E-02   0.154E-07 -.304E+01 0.311E-03   0.611E-09 0.221E-03 0.169E-05
   0.165E-07 -.591E+01 0.151E-02   -.178E-07 0.288E+01 -.133E-02   -.402E-08 0.304E+01 -.268E-03   0.334E-08 -.223E-03 -.117E-04
 -----------------------------------------------------------------------------------------------
   -.202E-08 -.174E-03 -.576E-04   0.988E-13 0.245E-12 -.481E-13   -.678E-08 0.573E-04 -.130E-03   0.217E-08 0.334E-06 -.640E-06
 
 
 POSITION                                       TOTAL-FORCE (eV/Angst)
 -----------------------------------------------------------------------------------
      0.00000      7.55823      7.55827         0.000000      0.003454      0.002455
      7.85619      7.55823      3.90812        -0.000000      0.003176     -0.002202
      0.00000      3.90814      7.55828         0.000000     -0.003485      0.001819
      7.85619      3.90814      3.90812        -0.000000     -0.003703     -0.002035
      3.92810      7.55823      7.55828         0.000000      0.003549      0.001971
      3.92810      7.55823      3.90811        -0.000000      0.003350     -0.001726
      3.92810      3.90814      7.55828         0.000000     -0.003128      0.001863
      3.92810      3.90814      3.90812        -0.000000     -0.003362     -0.002051
      0.00000      5.73318      0.04686         0.000000      0.000054      0.003524
      7.85619      5.73317      3.77527        -0.000000      0.000877     -0.003632
      3.92810      5.73320      0.04687         0.000000     -0.000692      0.003653
      3.92810      5.73319      3.77527        -0.000000     -0.000026     -0.003767
      7.85619      0.04686      5.73321        -0.000000      0.003378     -0.000389
     -0.00000      3.77525      5.73319        -0.000000     -0.003487      0.000431
      3.92810      0.04686      5.73320         0.000000      0.003389     -0.000316
      3.92810      3.77526      5.73319         0.000000     -0.003351      0.000289
      1.96405      0.04579      0.04578        -0.000135      0.006790      0.006899
      1.96405      0.04579      3.77635        -0.000158      0.006781     -0.006877
      1.96405      3.77634      0.04579         0.000096     -0.006768      0.006899
      1.96405      3.77634      3.77635         0.000122     -0.006778     -0.006898
      5.89214      0.04579      0.04578         0.000135      0.006790      0.006899
      5.89214      0.04579      3.77635         0.000158      0.006781     -0.006877
      5.89215      3.77634      0.04579        -0.000096     -0.006768      0.006899
      5.89215      3.77634      3.77635        -0.000122     -0.006778     -0.006898
      0.00000      1.91106      0.06690         0.000000     -0.000020     -0.008717
      7.85619      1.91107      3.75523        -0.000000     -0.000259      0.008729
      3.92810      1.91106      0.06690         0.000000      0.000210     -0.008699
      3.92810      1.91106      3.75523        -0.000000      0.000013      0.008713
      7.85619      0.06689      1.91106         0.000000     -0.008821      0.000129
     -0.00000      3.75522      1.91107        -0.000000      0.008790     -0.000109
      3.92810      0.06690      1.91106         0.000000     -0.008762      0.000109
      3.92810      3.75523      1.91107        -0.000000      0.008806     -0.000088
 -----------------------------------------------------------------------------------
    total drift:                               -0.000000     -0.000116     -0.000188


--------------------------------------------------------------------------------------------------------



  FREE ENERGIE OF THE ION-ELECTRON SYSTEM (eV)
  ---------------------------------------------------
  free  energy   TOTEN  =      -213.66676884 eV

  energy  without entropy=     -213.66676884  energy(sigma->0) =     -213.66676884
 


--------------------------------------------------------------------------------------------------------


    POTLOK:  cpu time    0.9968: real time    0.9966


--------------------------------------------------------------------------------------------------------


 stress matrix after NEB project (eV)
      0.09884      0.00000     -0.00000
      0.00000      0.04580      0.00009
     -0.00000      0.00009      0.03659
  FORCES: max atom, RMS     0.009681    0.007045
  FORCE total and by dimension    0.039851    0.008821
  Stress total and by dimension    0.114917    0.098843
 Quasi-Newton relaxation of ions (Broydens 2nd method)
  g(Force)  = 0.766E-04   g(Stress)= 0.199E-04

 Reset! Starting new Quasi-Newton update for ions 


--------------------------------------------------------------------------------------------------------


  
 reached required accuracy - stopping structural energy minimisation
 writing wavefunctions
     LOOP+:  cpu time   42.9275: real time   46.6729
    4ORBIT:  cpu time    0.0000: real time    0.0000
 


 total charge     
 
# of ion       s       p       d       tot
------------------------------------------
    1        0.318   6.464   1.755   8.538
    2        0.318   6.464   1.755   8.538
    3        0.318   6.464   1.755   8.538
    4        0.318   6.464   1.755   8.538
    5        0.318   6.464   1.755   8.538
    6        0.318   6.464   1.755   8.538
    7        0.318   6.464   1.755   8.538
    8        0.318   6.464   1.755   8.538
    9        1.569   3.472   0.000   5.041
   10        1.569   3.472   0.000   5.041
   11        1.569   3.472   0.000   5.041
   12        1.569   3.472   0.000   5.041
   13        1.569   3.472   0.000   5.041
   14        1.569   3.472   0.000   5.041
   15        1.569   3.472   0.000   5.041
   16        1.569   3.472   0.000   5.041
   17        1.729   4.383   0.000   6.112
   18        1.729   4.383   0.000   6.112
   19        1.729   4.383   0.000   6.112
   20        1.729   4.383   0.000   6.112
   21        1.729   4.383   0.000   6.112
   22        1.729   4.383   0.000   6.112
   23        1.729   4.383   0.000   6.112
   24        1.729   4.383   0.000   6.112
   25        1.730   4.380   0.000   6.110
   26        1.730   4.380   0.000   6.110
   27        1.730   4.380   0.000   6.110
   28        1.730   4.380   0.000   6.110
   29        1.730   4.380   0.000   6.110
   30        1.730   4.380   0.000   6.110
   31        1.730   4.380   0.000   6.110
   32        1.730   4.380   0.000   6.110
--------------------------------------------------
tot         42.773 149.592  14.042 206.407
 


 magnetization (x)
 
# of ion       s       p       d       tot
------------------------------------------
    1        0.000  -0.000   0.000   0.000
    2       -0.000  -0.000  -0.000  -0.000
    3        0.000  -0.000  -0.000  -0.000
    4        0.000  -0.000   0.000   0.000
    5        0.000  -0.000  -0.000  -0.000
    6        0.000  -0.000  -0.000  -0.000
    7        0.000  -0.000  -0.000  -0.000
    8        0.000   0.000   0.000   0.000
    9        0.000   0.000   0.000   0.000
   10        0.000  -0.000   0.000   0.000
   11        0.000   0.000   0.000   0.000
   12        0.000  -0.000   0.000   0.000
   13        0.000  -0.000   0.000  -0.000
   14       -0.000   0.000   0.000   0.000
   15        0.000  -0.000   0.000  -0.000
   16       -0.000   0.000   0.000   0.000
   17        0.000   0.000   0.000   0.000
   18       -0.000   0.000   0.000   0.000
   19       -0.000   0.000   0.000   0.000
   20        0.000   0.000   0.000   0.000
   21        0.000   0.000   0.000   0.000
   22       -0.000   0.000   0.000   0.000
   23       -0.000   0.000   0.000   0.000
   24        0.000   0.000   0.000   0.000
   25       -0.000   0.000   0.000  -0.000
   26        0.000  -0.000   0.000  -0.000
   27       -0.000   0.000   0.000  -0.000
   28       -0.000   0.000   0.000  -0.000
   29        0.000   0.000   0.000   0.000
   30        0.000   0.000   0.000   0.000
   31        0.000   0.000   0.000   0.000
   32        0.000   0.000   0.000   0.000
--------------------------------------------------
tot          0.000   0.000  -0.000   0.000
 

 total amount of memory used by VASP MPI-rank0    62277. kBytes
=======================================================================

   base      :      30000. kBytes
   nonlr-proj:       8641. kBytes
   fftplans  :       8422. kBytes
   grid      :       8783. kBytes
   one-center:        124. kBytes
   wavefun   :       6307. kBytes
 
  
  
 General timing and accounting informations for this job:
 ========================================================
  
                  Total CPU time used (sec):       60.631
                            User time (sec):       54.373
                          System time (sec):        6.258
                         Elapsed time (sec):       75.375
  
                   Maximum memory used (kb):      176768.
                   Average memory used (kb):           0.
  
                          Minor page faults:       103856
                          Major page faults:            2
                 Voluntary context switches:        17414
