 vasp.6.3.0 20Jan22 (build Jan 25 2022 13:20:17) complex                        
  
 executed on             LinuxIFC date 2024.06.05  15:58:49
 running on   80 total cores
 distrk:  each k-point on   80 cores,    1 groups
 distr:  one band on NCORE=   8 cores,   10 groups


--------------------------------------------------------------------------------------------------------


 INCAR:
   SYSTEM = LTO
   ISTART = 1
   ENCUT = 700.0
   IALGO = 38
   EDIFF = 1E-6
   PREC = Accurate
   ISPIN = 2
   LMAXMIX = 4
   ADDGRID = .TRUE.
   LASPH = .TRUE.
   LREAL = Auto
   ROPT = 1E-4 1E-4 1E-4
   GGA = PS
   LDAU = .TRUE.
   LDAUTYPE = 2
   LDAUL = 2   -1    -1
   LDAUU = 4.2  0.0  0.0
   LDAUJ = 0.0  0.0  0.0
   NSW = 100
   EDIFFG = -0.01
   IBRION = 1
   ISIF = 3
   ISMEAR = 0
   SIGMA = 0.01
   ISYM = 0
   LORBIT = 11
   NEDOS = 3001
   NWRITE = 2
   NCORE = 8

 POTCAR:   PAW_PBE Ti_pv 07Sep2000                
 POTCAR:   PAW_PBE O 08Apr2002                    
 POTCAR:    PAW_PBE F 08Apr2002                   
 -----------------------------------------------------------------------------
|                                                                             |
|           W    W    AA    RRRRR   N    N  II  N    N   GGGG   !!!           |
|           W    W   A  A   R    R  NN   N  II  NN   N  G    G  !!!           |
|           W    W  A    A  R    R  N N  N  II  N N  N  G       !!!           |
|           W WW W  AAAAAA  RRRRR   N  N N  II  N  N N  G  GGG   !            |
|           WW  WW  A    A  R   R   N   NN  II  N   NN  G    G                |
|           W    W  A    A  R    R  N    N  II  N    N   GGGG   !!!           |
|                                                                             |
|     You use a magnetic or noncollinear calculation, but did not specify     |
|     the initial magnetic moment with the MAGMOM tag. Note that a            |
|     default of 1 will be used for all atoms. This ferromagnetic setup       |
|     may break the symmetry of the crystal, in particular it may rule        |
|     out finding an antiferromagnetic solution. Thence, we recommend         |
|     setting the initial magnetic moment manually or verifying carefully     |
|     that this magnetic setup is desired.                                    |
|                                                                             |
 -----------------------------------------------------------------------------

 POTCAR:   PAW_PBE Ti_pv 07Sep2000                
   VRHFIN =Ti: d3 s1                                                                                
   LEXCH  = PE                                                                                      
   EATOM  =  1042.3781 eV,   76.6126 Ry                                                             
                                                                                                    
   TITEL  = PAW_PBE Ti_pv 07Sep2000                                                                 
   LULTRA =        F    use ultrasoft PP ?                                                          
   IUNSCR =        1    unscreen: 0-lin 1-nonlin 2-no                                               
   RPACOR =    2.200    partial core radius                                                         
   POMASS =   47.880; ZVAL   =   10.000    mass and valenz                                          
   RCORE  =    2.500    outmost cutoff radius                                                       
   RWIGS  =    2.500; RWIGS  =    1.323    wigner-seitz radius (au A)                               
   ENMAX  =  222.338; ENMIN  =  166.753 eV                                                          
   RCLOC  =    1.701    cutoff for local pot                                                        
   LCOR   =        T    correct aug charges                                                         
   LPAW   =        T    paw PP                                                                      
   EAUG   =  482.848                                                                                
   DEXC   =    -.008                                                                                
   RMAX   =    3.092    core radius for proj-oper                                                   
   RAUG   =    1.300    factor for augmentation sphere                                              
   RDEP   =    2.538    radius for radial grids                                                     
   QCUT   =   -4.042; QGAM   =    8.085    optimization parameters                                  
                                                                                                    
   Description                                                                                      
     l     E      TYP  RCUT    TYP  RCUT                                                            
     1   .000     23  2.300                                                                         
     1  -.100     23  2.300                                                                         
     2   .000     23  2.500                                                                         
     2   .000     23  2.500                                                                         
     0   .000     23  2.500                                                                         
     0  1.500     23  2.500                                                                         
     3   .000      7   .000                                                                         
  local pseudopotential read in
  partial core-charges read in
  atomic valenz-charges read in
  non local Contribution for L=           1  read in
    real space projection operators read in
  non local Contribution for L=           1  read in
    real space projection operators read in
  non local Contribution for L=           2  read in
    real space projection operators read in
  non local Contribution for L=           2  read in
    real space projection operators read in
  non local Contribution for L=           0  read in
    real space projection operators read in
  non local Contribution for L=           0  read in
    real space projection operators read in
    PAW grid and wavefunctions read in
 
   number of l-projection  operators is LMAX  =           6
   number of lm-projection operators is LMMAX =          18
 
 POTCAR:   PAW_PBE O 08Apr2002                    
   VRHFIN =O: s2p4                                                                                  
   LEXCH  = PE                                                                                      
   EATOM  =   432.3788 eV,   31.7789 Ry                                                             
                                                                                                    
   TITEL  = PAW_PBE O 08Apr2002                                                                     
   LULTRA =        F    use ultrasoft PP ?                                                          
   IUNSCR =        0    unscreen: 0-lin 1-nonlin 2-no                                               
   RPACOR =     .000    partial core radius                                                         
   POMASS =   16.000; ZVAL   =    6.000    mass and valenz                                          
   RCORE  =    1.520    outmost cutoff radius                                                       
   RWIGS  =    1.550; RWIGS  =     .820    wigner-seitz radius (au A)                               
   ENMAX  =  400.000; ENMIN  =  300.000 eV                                                          
   ICORE  =        2    local potential                                                             
   LCOR   =        T    correct aug charges                                                         
   LPAW   =        T    paw PP                                                                      
   EAUG   =  605.392                                                                                
   DEXC   =     .000                                                                                
   RMAX   =    2.264    core radius for proj-oper                                                   
   RAUG   =    1.300    factor for augmentation sphere                                              
   RDEP   =    1.550    radius for radial grids                                                     
   QCUT   =   -5.520; QGAM   =   11.041    optimization parameters                                  
                                                                                                    
   Description                                                                                      
     l     E      TYP  RCUT    TYP  RCUT                                                            
     0   .000     23  1.200                                                                         
     0  -.700     23  1.200                                                                         
     1   .000     23  1.520                                                                         
     1   .600     23  1.520                                                                         
     2   .000      7  1.500                                                                         
  local pseudopotential read in
  atomic valenz-charges read in
  non local Contribution for L=           0  read in
    real space projection operators read in
  non local Contribution for L=           0  read in
    real space projection operators read in
  non local Contribution for L=           1  read in
    real space projection operators read in
  non local Contribution for L=           1  read in
    real space projection operators read in
    PAW grid and wavefunctions read in
 
   number of l-projection  operators is LMAX  =           4
   number of lm-projection operators is LMMAX =           8
 
 POTCAR:    PAW_PBE F 08Apr2002                   
   VRHFIN =F: s2p5                                                                                  
   LEXCH  = PE                                                                                      
   EATOM  =   659.6475 eV,   48.4827 Ry                                                             
                                                                                                    
   TITEL  = PAW_PBE F 08Apr2002                                                                     
   LULTRA =        F    use ultrasoft PP ?                                                          
   IUNSCR =        1    unscreen: 0-lin 1-nonlin 2-no                                               
   RPACOR =    1.200    partial core radius                                                         
   POMASS =   18.998; ZVAL   =    7.000    mass and valenz                                          
   RCORE  =    1.520    outmost cutoff radius                                                       
   RWIGS  =    1.500; RWIGS  =    0.794    wigner-seitz radius (au A)                               
   ENMAX  =  400.000; ENMIN  =  300.000 eV                                                          
   ICORE  =        2    local potential                                                             
   LCOR   =        T    correct aug charges                                                         
   LPAW   =        T    paw PP                                                                      
   EAUG   =  613.614                                                                                
   RMAX   =    1.555    core radius for proj-oper                                                   
   RAUG   =    1.300    factor for augmentation sphere                                              
   RDEP   =    1.539    radius for radial grids                                                     
   RDEPT  =    1.299    core radius for aug-charge                                                  
                                                                                                    
   Atomic configuration                                                                             
    4 entries                                                                                       
     n  l   j            E        occ.                                                              
     1  0  0.50      -663.3661   2.0000                                                             
     2  0  0.50       -29.8995   2.0000                                                             
     2  1  0.50       -11.1114   5.0000                                                             
     3  2  1.50       -10.8847   0.0000                                                             
   Description                                                                                      
     l       E           TYP  RCUT    TYP  RCUT                                                     
     0    -29.8995018     23  1.200                                                                 
     0     -9.5240782     23  1.200                                                                 
     1    -11.1113914     23  1.520                                                                 
     1      1.3605826     23  1.520                                                                 
     2    -10.8846608      7  1.500                                                                 
  local pseudopotential read in
  partial core-charges read in
  partial kinetic energy density read in
  atomic valenz-charges read in
  non local Contribution for L=           0  read in
    real space projection operators read in
  non local Contribution for L=           0  read in
    real space projection operators read in
  non local Contribution for L=           1  read in
    real space projection operators read in
  non local Contribution for L=           1  read in
    real space projection operators read in
    PAW grid and wavefunctions read in
 
   number of l-projection  operators is LMAX  =           4
   number of lm-projection operators is LMMAX =           8
 
 Optimization of the real space projectors (new method)

 maximal supplied QI-value         = 15.12
 optimisation between [QCUT,QGAM] = [ 13.45, 27.06] = [ 50.69,205.06] Ry 
 Optimized for a Real-space Cutoff    1.49 Angstroem

   l    n(q)    QCUT    max X(q) W(low)/X(q) W(high)/X(q)  e(spline) 
   1     12    13.455     4.841    0.13E-05    0.83E-06    0.56E-07
   1     12    13.455     5.701    0.32E-04    0.25E-04    0.17E-06
   2     11    13.455     4.569    0.64E-05    0.34E-05    0.50E-07
   2     11    13.455    32.276    0.49E-04    0.38E-04    0.46E-06
   0     12    13.455    30.046    0.17E-04    0.41E-05    0.51E-07
   0     12    13.455    45.433    0.12E-04    0.27E-04    0.38E-06
 Optimization of the real space projectors (new method)

 maximal supplied QI-value         = 24.76
 optimisation between [QCUT,QGAM] = [ 13.37, 26.98] = [ 50.04,203.89] Ry 
 Optimized for a Real-space Cutoff    1.17 Angstroem

   l    n(q)    QCUT    max X(q) W(low)/X(q) W(high)/X(q)  e(spline) 
   0      9    13.368     4.192    0.20E-04    0.58E-05    0.56E-07
   0      9    13.368     8.473    0.60E-04    0.52E-04    0.21E-06
   1      9    13.368     2.474    0.22E-04    0.17E-04    0.28E-07
   1      9    13.368     3.912    0.94E-04    0.97E-04    0.20E-06
 Optimization of the real space projectors (new method)

 maximal supplied QI-value         = 24.76
 optimisation between [QCUT,QGAM] = [ 13.37, 26.98] = [ 50.04,203.89] Ry 
 Optimized for a Real-space Cutoff    1.17 Angstroem

   l    n(q)    QCUT    max X(q) W(low)/X(q) W(high)/X(q)  e(spline) 
   0      9    13.368    14.049    0.39E-04    0.34E-04    0.16E-06
   0      9    13.368     8.945    0.54E-04    0.47E-04    0.20E-06
   1      9    13.368     7.086    0.99E-04    0.10E-03    0.23E-06
   1      9    13.368     6.747    0.86E-04    0.89E-04    0.21E-06
 -----------------------------------------------------------------------------
|                                                                             |
|               ----> ADVICE to this user running VASP <----                  |
|                                                                             |
|     You enforced a specific xc type in the INCAR file but a different       |
|     type was found in the POTCAR file.                                      |
|     I HOPE YOU KNOW WHAT YOU ARE DOING!                                     |
|                                                                             |
 -----------------------------------------------------------------------------

 PAW_PBE Ti_pv 07Sep2000                :
 energy of atom  1       EATOM=-1042.3781
 kinetic energy error for atom=    0.0006 (will be added to EATOM!!)
 PAW_PBE O 08Apr2002                    :
 energy of atom  2       EATOM= -432.3788
 kinetic energy error for atom=    0.0091 (will be added to EATOM!!)
  PAW_PBE F 08Apr2002                   :
 energy of atom  3       EATOM= -659.6475
 kinetic energy error for atom=    0.0140 (will be added to EATOM!!)
 
 
 POSCAR: Ti27 O27 F54
  positions in direct lattice
  velocities in cartesian coordinates
 exchange correlation table for  LEXCH =       14
   RHO(1)=    0.500       N(1)  =     2000
   RHO(2)=  100.500       N(2)  =     4000
 


--------------------------------------------------------------------------------------------------------


 ion  position               nearest neighbor table
   1  0.000  0.992  0.012-  46 1.79  30 1.86  82 1.93  73 1.94  55 2.04  92 2.09
   2  0.012  0.005  0.326-  37 1.80  46 1.85  28 1.91  59 2.04  91 2.06  83 2.06
   3  1.000  0.013  0.666-  29 1.79  84 1.91  74 1.92  92 1.92  91 1.93  60 2.07
   4  0.010  0.334  0.991-  38 1.80  47 1.85  56 1.94  55 1.95  85 2.04  93 2.06
   5  0.999  0.320  0.335-  28 1.75  86 1.93  94 1.93  75 1.93  93 1.94  57 2.09
   6  0.000  0.327  0.677-  47 1.80  29 1.86  76 1.93  87 1.94  58 2.02  94 2.06
   7  0.000  0.677  0.993-  30 1.80  48 1.88  88 1.93  77 1.93  95 2.03  56 2.05
   8  0.013  0.666  0.334-  39 1.76  57 1.92  96 1.93  59 1.93  95 1.93  89 2.07
   9  0.999  0.667  0.679-  48 1.78  78 1.91  90 1.91  60 1.93  58 1.94  96 2.07
  10  0.340  0.991  0.008-  49 1.83  32 1.86  40 1.87  61 2.06  73 2.06  98 2.06
  11  0.324  0.008  0.323-  49 1.83  31 1.86  37 1.86  79 2.06  97 2.06  66 2.06
  12  0.345  0.989  0.668-  41 1.81  33 1.81  98 1.94  97 1.94  74 2.10  62 2.10
  13  0.324  0.334  0.012-  50 1.79  38 1.85  61 1.93  63 1.94  80 2.04 100 2.09
  14  0.338  0.322  0.325-  31 1.80  50 1.85  42 1.91  75 2.04  99 2.06  64 2.06
  15  0.345  0.333  0.666-  43 1.79  65 1.92 100 1.92  62 1.92  99 1.93  76 2.07
  16  0.342  0.678  0.000-  32 1.80  44 1.83 101 1.95 102 1.96  63 2.07  77 2.08
  17  0.328  0.667  0.346-  51 1.78  39 1.90  64 1.94  66 1.94  81 2.04 101 2.07
  18  0.345  0.675  0.662-  45 1.81  33 1.84  51 1.89 102 2.03  65 2.07  78 2.10
  19  0.655  0.008  0.001-  40 1.79  34 1.86 103 1.95 104 1.95  72 2.04  82 2.08
  20  0.668  0.994  0.346-  52 1.78  35 1.89  79 1.94  83 1.94  67 2.03 103 2.06
  21  0.657  0.989  0.660-  36 1.82  41 1.84  52 1.88 104 2.03  84 2.08  68 2.09
  22  0.667  0.323  0.991-  34 1.80  53 1.85  85 1.95  80 1.95  69 2.04 105 2.05
  23  0.653  0.335  0.334-  42 1.75  70 1.93 106 1.93 105 1.94  67 1.94  86 2.08
  24  0.661  0.333  0.677-  53 1.80  43 1.87  68 1.93  71 1.93  87 2.03 106 2.07
  25  0.658  0.666  0.988-  54 1.80  44 1.83  69 1.95  72 1.96  88 2.07 107 2.09
  26  0.668  0.679  0.333-  35 1.77 107 1.92 108 1.92  89 1.93  81 1.94  70 2.07
  27  0.657  0.675  0.676-  45 1.83  36 1.83  54 1.86  71 2.07 108 2.07  90 2.09
  28  0.004  0.169  0.341-   5 1.75   2 1.91
  29  0.001  0.167  0.662-   3 1.79   6 1.86
  30  0.006  0.832  0.998-   7 1.80   1 1.86
  31  0.326  0.168  0.341-  14 1.80  11 1.86
  32  0.321  0.832  0.995-  16 1.80  10 1.86
  33  0.334  0.833  0.674-  12 1.81  18 1.84
  34  0.666  0.168  0.001-  22 1.80  19 1.86
  35  0.666  0.831  0.336-  26 1.77  20 1.89
  36  0.666  0.832  0.663-  21 1.82  27 1.83
  37  0.165  0.987  0.341-   2 1.80  11 1.86
  38  0.165  0.332  0.998-   4 1.80  13 1.85
  39  0.165  0.672  0.332-   8 1.76  17 1.90
  40  0.501  0.994  0.995-  19 1.79  10 1.87
  41  0.500  0.010  0.674-  12 1.81  21 1.84
  42  0.502  0.334  0.340-  23 1.75  14 1.91
  43  0.500  0.331  0.662-  15 1.79  24 1.87
  44  0.500  0.672  0.996-  25 1.83  16 1.83
  45  0.500  0.657  0.673-  18 1.81  27 1.83
  46  0.002  0.001  0.166-   1 1.79   2 1.85
  47  0.994  0.338  0.832-   6 1.80   4 1.85
  48  0.997  0.661  0.832-   9 1.78   7 1.88
  49  0.329  0.003  0.165-  10 1.83  11 1.83
  50  0.334  0.331  0.166-  13 1.79  14 1.85
  51  0.334  0.666  0.499-  17 1.78  18 1.89
  52  0.668  0.007  0.499-  20 1.78  21 1.88
  53  0.671  0.340  0.832-  24 1.80  22 1.85
  54  0.678  0.661  0.834-  25 1.80  27 1.86
  55  0.991  0.167  0.997-   4 1.95   1 2.04
  56  0.996  0.501  0.008-   4 1.94   7 2.05
  57  0.997  0.500  0.333-   8 1.92   5 2.09
  58  0.001  0.500  0.658-   9 1.94   6 2.02
  59  0.986  0.830  0.334-   8 1.93   2 2.04
  60  0.000  0.834  0.669-   9 1.93   3 2.07
  61  0.340  0.168  0.993-  13 1.93  10 2.06
  62  0.322  0.169  0.659-  15 1.92  12 2.10
  63  0.334  0.500  0.998-  13 1.94  16 2.07
  64  0.332  0.500  0.332-  17 1.94  14 2.06
  65  0.325  0.498  0.670-  15 1.92  18 2.07
  66  0.348  0.832  0.331-  17 1.94  11 2.06
  67  0.672  0.168  0.324-  23 1.94  20 2.03
  68  0.678  0.168  0.671-  24 1.93  21 2.09
  69  0.668  0.499  0.009-  25 1.95  22 2.04
  70  0.671  0.500  0.334-  23 1.93  26 2.07
  71  0.674  0.498  0.656-  24 1.93  27 2.07
  72  0.678  0.833  0.003-  25 1.96  19 2.04
  73  0.165  0.015  0.993-   1 1.94  10 2.06
  74  0.165  0.999  0.659-   3 1.92  12 2.10
  75  0.164  0.345  0.333-   5 1.93  14 2.04
  76  0.167  0.336  0.668-   6 1.93  15 2.07
  77  0.165  0.654  0.007-   7 1.93  16 2.08
  78  0.163  0.665  0.663-   9 1.91  18 2.10
  79  0.501  0.006  0.330-  20 1.94  11 2.06
  80  0.500  0.339  0.997-  22 1.95  13 2.04
  81  0.502  0.658  0.328-  26 1.94  17 2.04
  82  0.834  0.999  0.998-   1 1.93  19 2.08
  83  0.834  0.002  0.332-  20 1.94   2 2.06
  84  0.836  0.999  0.671-   3 1.91  21 2.08
  85  0.834  0.337  0.009-  22 1.95   4 2.04
  86  0.833  0.336  0.332-   5 1.93  23 2.08
  87  0.834  0.337  0.657-   6 1.94  24 2.03
  88  0.835  0.665  0.009-   7 1.93  25 2.07
  89  0.834  0.662  0.335-  26 1.93   8 2.07
  90  0.836  0.664  0.656-   9 1.91  27 2.09
  91  0.990  0.991  0.501-   3 1.93   2 2.06
  92  0.002  0.001  0.831-   3 1.92   1 2.09
  93  0.999  0.332  0.168-   5 1.94   4 2.06
  94  0.001  0.342  0.500-   5 1.93   6 2.06
  95  0.996  0.666  0.168-   8 1.93   7 2.03
  96  1.000  0.669  0.500-   8 1.93   9 2.07
  97  0.339  0.994  0.500-  12 1.94  11 2.06
  98  0.322  0.011  0.832-  12 1.94  10 2.06
  99  0.324  0.343  0.501-  15 1.93  14 2.06
 100  0.335  0.332  0.832-  15 1.92  13 2.09
 101  0.334  0.664  0.168-  16 1.95  17 2.07
 102  0.319  0.657  0.834-  16 1.96  18 2.03
 103  0.670  0.998  0.168-  19 1.95  20 2.06
 104  0.676  0.999  0.834-  19 1.95  21 2.03
 105  0.665  0.338  0.168-  23 1.94  22 2.05
 106  0.674  0.327  0.499-  23 1.93  24 2.07
 107  0.670  0.664  0.168-  26 1.92  25 2.09
 108  0.666  0.659  0.498-  26 1.92  27 2.07
 

IMPORTANT INFORMATION: All symmetrisations will be switched off!
NOSYMM: (Re-)initialisation of all symmetry stuff for point group C_1.


----------------------------------------------------------------------------------------

                                     Primitive cell                                     

  volume of cell :    1553.5736

  direct lattice vectors                    reciprocal lattice vectors
    11.583123078 -0.001492802 -0.006003187     0.086332527  0.000011077  0.000044875
    -0.001483136 11.576742365 -0.004281869     0.000011149  0.086380099  0.000032014
    -0.006021626 -0.004293133 11.585638647     0.000044738  0.000031930  0.086313792

  length of vectors
    11.583124729 11.576743252 11.585641007     0.086332539  0.086380106  0.086313810

  position of ions in fractional coordinates (direct lattice)
     0.000212381  0.991932781  0.011629599
     0.011962960  0.004519099  0.325572010
     0.999929256  0.012684980  0.666084220
     0.009526769  0.334470134  0.990681847
     0.998726925  0.320004056  0.334584325
     0.000455361  0.326764889  0.677107361
     0.000174421  0.677116160  0.993147516
     0.012602250  0.665880759  0.334360866
     0.999414963  0.666920137  0.678899366
     0.340121285  0.991424116  0.008394709
     0.323564023  0.008430806  0.323214102
     0.345268175  0.989032495  0.667649037
     0.324226705  0.333665130  0.011518528
     0.338167816  0.321937284  0.325363473
     0.345217711  0.333193502  0.666021367
     0.342241902  0.678380744  0.000048311
     0.327538655  0.666504146  0.346033489
     0.344564249  0.675440004  0.661600972
     0.654970856  0.008108073  0.000608776
     0.667618500  0.994090463  0.345964448
     0.656795725  0.989303490  0.660014221
     0.667321502  0.323409035  0.991100742
     0.653017908  0.334561682  0.334113275
     0.660587702  0.333249206  0.677365907
     0.657641905  0.666047053  0.987647846
     0.668370138  0.678764461  0.332766285
     0.656804644  0.674796082  0.675732748
     0.003782297  0.168714507  0.340515746
     0.000535258  0.166961892  0.661754545
     0.006404192  0.832173389  0.997591150
     0.326072569  0.167906424  0.341190898
     0.321126940  0.832255986  0.994924855
     0.333607213  0.833373084  0.674340122
     0.666166975  0.168303179  0.001339180
     0.666251241  0.831311158  0.335501442
     0.666306235  0.832295064  0.663084201
     0.165288372  0.986961904  0.341267997
     0.164727690  0.331766651  0.997958371
     0.164612538  0.672292533  0.331936477
     0.501290636  0.993753640  0.995256528
     0.499859326  0.009761883  0.674021180
     0.501797599  0.334026167  0.340267268
     0.499511896  0.331179393  0.661947116
     0.500269978  0.671667506  0.995752193
     0.499684831  0.657084244  0.672811174
     0.002376966  0.000979177  0.165999435
     0.993574709  0.338495308  0.831716619
     0.996808335  0.660592460  0.832106342
     0.329479599  0.002944442  0.165186819
     0.333988019  0.331279664  0.165997659
     0.334259585  0.665822335  0.499211750
     0.667786928  0.007366328  0.498814700
     0.671094581  0.339507605  0.832368632
     0.678149978  0.661068864  0.834113103
     0.991044237  0.167372576  0.996679286
     0.995906105  0.500624165  0.008301132
     0.997038995  0.500338985  0.332882382
     0.000769108  0.500426529  0.657965176
     0.985777257  0.830489431  0.334033290
     0.000201691  0.833593745  0.668812746
     0.339746673  0.168428910  0.992502762
     0.322377896  0.168890157  0.659494078
     0.334259031  0.500108303  0.997653934
     0.331909553  0.500013054  0.331569756
     0.325368195  0.497658363  0.670472313
     0.347946450  0.831992097  0.330906727
     0.671967316  0.168302017  0.323983138
     0.678084230  0.167841384  0.670773096
     0.668073645  0.498931847  0.008739900
     0.671406883  0.500154534  0.334477897
     0.674057690  0.497975260  0.655610032
     0.677662321  0.833441821  0.003362277
     0.164712242  0.015019146  0.992722219
     0.164532478  0.998773098  0.659305630
     0.163850281  0.345308359  0.333389101
     0.166796818  0.336256851  0.668155849
     0.164737061  0.653833140  0.007228677
     0.163489588  0.664730576  0.663187416
     0.501397759  0.005537655  0.330399279
     0.499562846  0.338869207  0.996764413
     0.502228769  0.658020758  0.328440605
     0.834082490  0.998794459  0.997501888
     0.834219666  0.002039364  0.331825109
     0.835525377  0.998584393  0.670721854
     0.834160861  0.337039979  0.008800317
     0.832943719  0.335578407  0.332496170
     0.834325717  0.336786823  0.657279621
     0.834659162  0.664805368  0.009110983
     0.834260613  0.661798270  0.335248652
     0.835818581  0.664203925  0.656002209
     0.990447510  0.990676598  0.501469396
     0.001851377  0.001422930  0.831398430
     0.998634865  0.331761473  0.167736757
     0.001465335  0.341761621  0.500100729
     0.995917039  0.665806519  0.168197301
     0.999632471  0.668539405  0.500474276
     0.339455508  0.994272166  0.500002590
     0.322432366  0.010752398  0.832177638
     0.324378607  0.342897893  0.501097687
     0.334695067  0.331809707  0.831510109
     0.334380503  0.664265062  0.167896211
     0.319183878  0.657116659  0.833583081
     0.669819183  0.998353390  0.167907072
     0.676272187  0.999253127  0.833578783
     0.664751023  0.337916813  0.167501570
     0.674320465  0.326745045  0.499184982
     0.669940572  0.664192493  0.167583857
     0.665661564  0.659418191  0.497598765

  ion indices of the primitive-cell ions
   primitive index   ion index
                 1           1
                 2           2
                 3           3
                 4           4
                 5           5
                 6           6
                 7           7
                 8           8
                 9           9
                10          10
                11          11
                12          12
                13          13
                14          14
                15          15
                16          16
                17          17
                18          18
                19          19
                20          20
                21          21
                22          22
                23          23
                24          24
                25          25
                26          26
                27          27
                28          28
                29          29
                30          30
                31          31
                32          32
                33          33
                34          34
                35          35
                36          36
                37          37
                38          38
                39          39
                40          40
                41          41
                42          42
                43          43
                44          44
                45          45
                46          46
                47          47
                48          48
                49          49
                50          50
                51          51
                52          52
                53          53
                54          54
                55          55
                56          56
                57          57
                58          58
                59          59
                60          60
                61          61
                62          62
                63          63
                64          64
                65          65
                66          66
                67          67
                68          68
                69          69
                70          70
                71          71
                72          72
                73          73
                74          74
                75          75
                76          76
                77          77
                78          78
                79          79
                80          80
                81          81
                82          82
                83          83
                84          84
                85          85
                86          86
                87          87
                88          88
                89          89
                90          90
                91          91
                92          92
                93          93
                94          94
                95          95
                96          96
                97          97
                98          98
                99          99
               100         100
               101         101
               102         102
               103         103
               104         104
               105         105
               106         106
               107         107
               108         108

----------------------------------------------------------------------------------------

 
 
 KPOINTS: Title                                   

Automatic generation of k-mesh.
 Grid dimensions read from file:
 generate k-points for:    3    3    3

 Generating k-lattice:

  Cartesian coordinates                     Fractional coordinates (reciprocal lattice)
     0.028777509  0.000003692  0.000014958     0.333333333 -0.000000000  0.000000000
     0.000003716  0.028793366  0.000010671    -0.000000000  0.333333333  0.000000000
     0.000014913  0.000010643  0.028771264     0.000000000 -0.000000000  0.333333333

  Length of vectors
     0.028777513  0.028793369  0.028771270

  Shift w.r.t. Gamma in fractional coordinates (k-lattice)
     0.000000000  0.000000000  0.000000000

 
 Subroutine IBZKPT returns following result:
 ===========================================
 
 Found     14 irreducible k-points:
 
 Following reciprocal coordinates:
            Coordinates               Weight
  0.000000  0.000000  0.000000      1.000000
  0.333333 -0.000000  0.000000      2.000000
  0.000000  0.333333  0.000000      2.000000
  0.333333  0.333333 -0.000000      2.000000
 -0.333333  0.333333  0.000000      2.000000
  0.000000 -0.000000  0.333333      2.000000
  0.333333 -0.000000  0.333333      2.000000
 -0.333333 -0.000000  0.333333      2.000000
  0.000000  0.333333  0.333333      2.000000
  0.333333  0.333333  0.333333      2.000000
 -0.333333  0.333333  0.333333      2.000000
 -0.000000 -0.333333  0.333333      2.000000
  0.333333 -0.333333  0.333333      2.000000
 -0.333333 -0.333333  0.333333      2.000000
 
 Following cartesian coordinates:
            Coordinates               Weight
  0.000000  0.000000  0.000000      1.000000
  0.028778  0.000004  0.000015      2.000000
  0.000004  0.028793  0.000011      2.000000
  0.028781  0.028797  0.000026      2.000000
 -0.028774  0.028790 -0.000004      2.000000
  0.000015  0.000011  0.028771      2.000000
  0.028792  0.000014  0.028786      2.000000
 -0.028763  0.000007  0.028756      2.000000
  0.000019  0.028804  0.028782      2.000000
  0.028796  0.028808  0.028797      2.000000
 -0.028759  0.028800  0.028767      2.000000
  0.000011 -0.028783  0.028761      2.000000
  0.028789 -0.028779  0.028776      2.000000
 -0.028766 -0.028786  0.028746      2.000000
 


--------------------------------------------------------------------------------------------------------




 Dimension of arrays:
   k-points           NKPTS =     14   k-points in BZ     NKDIM =     14   number of bands    NBANDS=    540
   number of dos      NEDOS =   3001   number of ions     NIONS =    108
   non local maximal  LDIM  =      6   non local SUM 2l+1 LMDIM =     18
   total plane-waves  NPLWV = ******
   max r-space proj   IRMAX =   8931   max aug-charges    IRDMAX= 200099
   dimension x,y,z NGX =   100 NGY =  100 NGZ =  100
   dimension x,y,z NGXF=   200 NGYF=  200 NGZF=  200
   support grid    NGXF=   400 NGYF=  400 NGZF=  400
   ions per type =              27  27  54
   NGX,Y,Z   is equivalent  to a cutoff of  14.35, 14.36, 14.35 a.u.
   NGXF,Y,Z  is equivalent  to a cutoff of  28.70, 28.72, 28.70 a.u.

 SYSTEM =  LTO                                     
 POSCAR =  Ti27 O27 F54                            

 Startparameter for this run:
   NWRITE =      2    write-flag & timer
   PREC   = accura    normal or accurate (medium, high low for compatibility)
   ISTART =      1    job   : 0-new  1-cont  2-samecut
   ICHARG =      0    charge: 1-file 2-atom 10-const
   ISPIN  =      2    spin polarized calculation?
   LNONCOLLINEAR =      F non collinear calculations
   LSORBIT =      F    spin-orbit coupling
   INIWAV =      1    electr: 0-lowe 1-rand  2-diag
   LASPH  =      T    aspherical Exc in radial PAW
 Electronic Relaxation 1
   ENCUT  =  700.0 eV  51.45 Ry    7.17 a.u.  24.99 24.97 24.99*2*pi/ulx,y,z
   ENINI  =  700.0     initial cutoff
   ENAUG  =  613.6 eV  augmentation charge cutoff
   NELM   =     60;   NELMIN=  2; NELMDL=  0     # of ELM steps 
   EDIFF  = 0.1E-05   stopping-criterion for ELM
   LREAL  =      T    real-space projection
   NLSPLINE    = F    spline interpolate recip. space projectors
   LCOMPAT=      F    compatible to vasp.4.4
   GGA_COMPAT  = T    GGA compatible to vasp.4.4-vasp.4.6
   LMAXPAW     = -100 max onsite density
   LMAXMIX     =    4 max onsite mixed and CHGCAR
   VOSKOWN=      0    Vosko Wilk Nusair interpolation
   ROPT   =   -0.00010  -0.00010  -0.00010
 Ionic relaxation
   EDIFFG = -.1E-01   stopping-criterion for IOM
   NSW    =    100    number of steps for IOM
   NBLOCK =      1;   KBLOCK =    100    inner block; outer block 
   IBRION =      1    ionic relax: 0-MD 1-quasi-New 2-CG
   NFREE  =      0    steps in history (QN), initial steepest desc. (CG)
   ISIF   =      3    stress and relaxation
   IWAVPR =     11    prediction:  0-non 1-charg 2-wave 3-comb
   ISYM   =      0    0-nonsym 1-usesym 2-fastsym
   LCORR  =      T    Harris-Foulkes like correction to forces

   POTIM  = 0.5000    time-step for ionic-motion
   TEIN   =    0.0    initial temperature
   TEBEG  =    0.0;   TEEND  =   0.0 temperature during run
   SMASS  =  -3.00    Nose mass-parameter (am)
   estimated Nose-frequenzy (Omega)   =  0.10E-29 period in steps = 0.13E+47 mass=  -0.307E-26a.u.
   SCALEE = 1.0000    scale energy and forces
   NPACO  =    256;   APACO  = 10.0  distance and # of slots for P.C.
   PSTRESS=    0.0 pullay stress

  Mass of Ions in am
   POMASS =  47.88 16.00 19.00
  Ionic Valenz
   ZVAL   =  10.00  6.00  7.00
  Atomic Wigner-Seitz radii
   RWIGS  =  -1.00 -1.00 -1.00
  virtual crystal weights 
   VCA    =   1.00  1.00  1.00
   NELECT =     810.0000    total number of electrons
   NUPDOWN=      -1.0000    fix difference up-down

 DOS related values:
   EMIN   =  10.00;   EMAX   =-10.00  energy-range for DOS
   EFERMI =   0.00
   ISMEAR =     0;   SIGMA  =   0.01  broadening in eV -4-tet -1-fermi 0-gaus

 Electronic relaxation 2 (details)
   IALGO  =     38    algorithm
   LDIAG  =      T    sub-space diagonalisation (order eigenvalues)
   LSUBROT=      F    optimize rotation matrix (better conditioning)
   TURBO    =      0    0=normal 1=particle mesh
   IRESTART =      0    0=no restart 2=restart with 2 vectors
   NREBOOT  =      0    no. of reboots
   NMIN     =      0    reboot dimension
   EREF     =   0.00    reference energy to select bands
   IMIX   =      4    mixing-type and parameters
     AMIX     =   0.40;   BMIX     =  1.00
     AMIX_MAG =   1.60;   BMIX_MAG =  1.00
     AMIN     =   0.10
     WC   =   100.;   INIMIX=   1;  MIXPRE=   1;  MAXMIX= -45

 Intra band minimization:
   WEIMIN = 0.0010     energy-eigenvalue tresh-hold
   EBREAK =  0.46E-09  absolut break condition
   DEPER  =   0.30     relativ break condition  

   TIME   =   0.40     timestep for ELM

  volume/ion in A,a.u.               =      14.38        97.07
  Fermi-wavevector in a.u.,A,eV,Ry     =   1.317627  2.489954 23.621639  1.736141
  Thomas-Fermi vector in A             =   2.447655
 
 Write flags
   LWAVE        =      T    write WAVECAR
   LDOWNSAMPLE  =      F    k-point downsampling of WAVECAR
   LCHARG       =      T    write CHGCAR
   LVTOT        =      F    write LOCPOT, total local potential
   LVHAR        =      F    write LOCPOT, Hartree potential only
   LELF         =      F    write electronic localiz. function (ELF)
   LORBIT       =     11    0 simple, 1 ext, 2 COOP (PROOUT), +10 PAW based schemes


 Dipole corrections
   LMONO  =      F    monopole corrections only (constant potential shift)
   LDIPOL =      F    correct potential (dipole corrections)
   IDIPOL =      0    1-x, 2-y, 3-z, 4-all directions 
   EPSILON=  1.0000000 bulk dielectric constant

 LDA+U is selected, type is set to LDAUTYPE =  2
   angular momentum for each species LDAUL =     2   -1   -1
   U (eV)           for each species LDAUU =   4.2  0.0  0.0
   J (eV)           for each species LDAUJ =   0.0  0.0  0.0
 Exchange correlation treatment:
   GGA     =    PS    GGA type
   LEXCH   =    14    internal setting for exchange type
   LIBXC   =     F    Libxc                    
   VOSKOWN =     0    Vosko Wilk Nusair interpolation
   LHFCALC =     F    Hartree Fock is set to
   LHFONE  =     F    Hartree Fock one center treatment
   AEXX    =    0.0000 exact exchange contribution

 Linear response parameters
   LEPSILON=     F    determine dielectric tensor
   LRPA    =     F    only Hartree local field effects (RPA)
   LNABLA  =     F    use nabla operator in PAW spheres
   LVEL    =     F    velocity operator in full k-point grid
   CSHIFT  =0.1000    complex shift for real part using Kramers Kronig
   OMEGAMAX=  -1.0    maximum frequency
   DEG_THRESHOLD= 0.2000000E-02 threshold for treating states as degnerate
   RTIME   =   -0.100 relaxation time in fs
  (WPLASMAI=    0.000 imaginary part of plasma frequency in eV, 0.658/RTIME)
   DFIELD  = 0.0000000 0.0000000 0.0000000 field for delta impulse in time
 
  Optional k-point grid parameters
   LKPOINTS_OPT  =     F    use optional k-point grid
   KPOINTS_OPT_MODE=     1    mode for optional k-point grid
 
 Orbital magnetization related:
   ORBITALMAG=     F  switch on orbital magnetization
   LCHIMAG   =     F  perturbation theory with respect to B field
   DQ        =  0.001000  dq finite difference perturbation B field
   LLRAUG    =     F  two centre corrections for induced B field



--------------------------------------------------------------------------------------------------------


 quasi-Newton-method for relaxation of ions
 charge density and potential will be updated during run
 spin polarized calculation
 Variant of blocked Davidson
 Davidson routine will perform the subspace rotation
 perform sub-space diagonalisation
    after iterative eigenvector-optimisation
 modified Broyden-mixing scheme, WC =      100.0
 initial mixing is a Kerker type mixing with AMIX =  0.4000 and BMIX =      1.0000
 Hartree-type preconditioning will be used
 using additional bands          135
 real space projection scheme for non local part
 use partial core corrections
 calculate Harris-corrections to forces 
   (improved forces if not selfconsistent)
 use gradient corrections 
 use of overlap-Matrix (Vanderbilt PP)
 Gauss-broadening in eV      SIGMA  =   0.01


--------------------------------------------------------------------------------------------------------


  energy-cutoff  :      700.00
  volume of cell :     1553.57
      direct lattice vectors                 reciprocal lattice vectors
    11.583123078 -0.001492802 -0.006003187     0.086332527  0.000011077  0.000044875
    -0.001483136 11.576742365 -0.004281869     0.000011149  0.086380099  0.000032014
    -0.006021626 -0.004293133 11.585638647     0.000044738  0.000031930  0.086313792

  length of vectors
    11.583124729 11.576743252 11.585641007     0.086332539  0.086380106  0.086313810


 
 old parameters found on file WAVECAR:
  energy-cutoff  :      700.00
  volume of cell :     1553.57
      direct lattice vectors                 reciprocal lattice vectors
    11.583123078 -0.001492802 -0.006003187     0.086332527  0.000011077  0.000044875
    -0.001483136 11.576742365 -0.004281869     0.000011149  0.086380099  0.000032014
    -0.006021626 -0.004293133 11.585638647     0.000044738  0.000031930  0.086313792

  length of vectors

 
 k-points in units of 2pi/SCALE and weight: Title                                   
   0.00000000  0.00000000  0.00000000       0.037
   0.02877751  0.00000369  0.00001496       0.074
   0.00000372  0.02879337  0.00001067       0.074
   0.02878123  0.02879706  0.00002563       0.074
  -0.02877379  0.02878967 -0.00000429       0.074
   0.00001491  0.00001064  0.02877126       0.074
   0.02879242  0.00001434  0.02878622       0.074
  -0.02876260  0.00000695  0.02875631       0.074
   0.00001863  0.02880401  0.02878194       0.074
   0.02879614  0.02880770  0.02879689       0.074
  -0.02875888  0.02880032  0.02876698       0.074
   0.00001120 -0.02878272  0.02876059       0.074
   0.02878871 -0.02877903  0.02877555       0.074
  -0.02876631 -0.02878642  0.02874563       0.074
 
 k-points in reciprocal lattice and weights: Title                                   
   0.00000000  0.00000000  0.00000000       0.037
   0.33333333 -0.00000000  0.00000000       0.074
   0.00000000  0.33333333  0.00000000       0.074
   0.33333333  0.33333333 -0.00000000       0.074
  -0.33333333  0.33333333  0.00000000       0.074
   0.00000000 -0.00000000  0.33333333       0.074
   0.33333333 -0.00000000  0.33333333       0.074
  -0.33333333 -0.00000000  0.33333333       0.074
   0.00000000  0.33333333  0.33333333       0.074
   0.33333333  0.33333333  0.33333333       0.074
  -0.33333333  0.33333333  0.33333333       0.074
  -0.00000000 -0.33333333  0.33333333       0.074
   0.33333333 -0.33333333  0.33333333       0.074
  -0.33333333 -0.33333333  0.33333333       0.074
 
 position of ions in fractional coordinates (direct lattice) 
   0.00021238  0.99193278  0.01162960
   0.01196296  0.00451910  0.32557201
   0.99992926  0.01268498  0.66608422
   0.00952677  0.33447013  0.99068185
   0.99872692  0.32000406  0.33458432
   0.00045536  0.32676489  0.67710736
   0.00017442  0.67711616  0.99314752
   0.01260225  0.66588076  0.33436087
   0.99941496  0.66692014  0.67889937
   0.34012128  0.99142412  0.00839471
   0.32356402  0.00843081  0.32321410
   0.34526817  0.98903249  0.66764904
   0.32422671  0.33366513  0.01151853
   0.33816782  0.32193728  0.32536347
   0.34521771  0.33319350  0.66602137
   0.34224190  0.67838074  0.00004831
   0.32753866  0.66650415  0.34603349
   0.34456425  0.67544000  0.66160097
   0.65497086  0.00810807  0.00060878
   0.66761850  0.99409046  0.34596445
   0.65679572  0.98930349  0.66001422
   0.66732150  0.32340904  0.99110074
   0.65301791  0.33456168  0.33411328
   0.66058770  0.33324921  0.67736591
   0.65764191  0.66604705  0.98764785
   0.66837014  0.67876446  0.33276629
   0.65680464  0.67479608  0.67573275
   0.00378230  0.16871451  0.34051575
   0.00053526  0.16696189  0.66175455
   0.00640419  0.83217339  0.99759115
   0.32607257  0.16790642  0.34119090
   0.32112694  0.83225599  0.99492485
   0.33360721  0.83337308  0.67434012
   0.66616697  0.16830318  0.00133918
   0.66625124  0.83131116  0.33550144
   0.66630623  0.83229506  0.66308420
   0.16528837  0.98696190  0.34126800
   0.16472769  0.33176665  0.99795837
   0.16461254  0.67229253  0.33193648
   0.50129064  0.99375364  0.99525653
   0.49985933  0.00976188  0.67402118
   0.50179760  0.33402617  0.34026727
   0.49951190  0.33117939  0.66194712
   0.50026998  0.67166751  0.99575219
   0.49968483  0.65708424  0.67281117
   0.00237697  0.00097918  0.16599944
   0.99357471  0.33849531  0.83171662
   0.99680834  0.66059246  0.83210634
   0.32947960  0.00294444  0.16518682
   0.33398802  0.33127966  0.16599766
   0.33425958  0.66582233  0.49921175
   0.66778693  0.00736633  0.49881470
   0.67109458  0.33950761  0.83236863
   0.67814998  0.66106886  0.83411310
   0.99104424  0.16737258  0.99667929
   0.99590611  0.50062416  0.00830113
   0.99703899  0.50033899  0.33288238
   0.00076911  0.50042653  0.65796518
   0.98577726  0.83048943  0.33403329
   0.00020169  0.83359374  0.66881275
   0.33974667  0.16842891  0.99250276
   0.32237790  0.16889016  0.65949408
   0.33425903  0.50010830  0.99765393
   0.33190955  0.50001305  0.33156976
   0.32536820  0.49765836  0.67047231
   0.34794645  0.83199210  0.33090673
   0.67196732  0.16830202  0.32398314
   0.67808423  0.16784138  0.67077310
   0.66807365  0.49893185  0.00873990
   0.67140688  0.50015453  0.33447790
   0.67405769  0.49797526  0.65561003
   0.67766232  0.83344182  0.00336228
   0.16471224  0.01501915  0.99272222
   0.16453248  0.99877310  0.65930563
   0.16385028  0.34530836  0.33338910
   0.16679682  0.33625685  0.66815585
   0.16473706  0.65383314  0.00722868
   0.16348959  0.66473058  0.66318742
   0.50139776  0.00553766  0.33039928
   0.49956285  0.33886921  0.99676441
   0.50222877  0.65802076  0.32844061
   0.83408249  0.99879446  0.99750189
   0.83421967  0.00203936  0.33182511
   0.83552538  0.99858439  0.67072185
   0.83416086  0.33703998  0.00880032
   0.83294372  0.33557841  0.33249617
   0.83432572  0.33678682  0.65727962
   0.83465916  0.66480537  0.00911098
   0.83426061  0.66179827  0.33524865
   0.83581858  0.66420393  0.65600221
   0.99044751  0.99067660  0.50146940
   0.00185138  0.00142293  0.83139843
   0.99863487  0.33176147  0.16773676
   0.00146534  0.34176162  0.50010073
   0.99591704  0.66580652  0.16819730
   0.99963247  0.66853941  0.50047428
   0.33945551  0.99427217  0.50000259
   0.32243237  0.01075240  0.83217764
   0.32437861  0.34289789  0.50109769
   0.33469507  0.33180971  0.83151011
   0.33438050  0.66426506  0.16789621
   0.31918388  0.65711666  0.83358308
   0.66981918  0.99835339  0.16790707
   0.67627219  0.99925313  0.83357878
   0.66475102  0.33791681  0.16750157
   0.67432047  0.32674504  0.49918498
   0.66994057  0.66419249  0.16758386
   0.66566156  0.65941819  0.49759877
 
 position of ions in cartesian coordinates  (Angst):
   0.00091883 11.48330000  0.13048773
   0.13660127  0.05090086  3.77186849
  11.57827391  0.14249846  7.71095401
   0.10388816  3.86780722 11.47619255
  11.56588754  3.70167720  3.86900732
   0.00071258  3.77996534  7.84331931
  -0.00496427  7.83453536 11.50334787
   0.14297242  7.70727572  3.87085730
  11.57126931  7.71635607  7.85662739
   3.93814574 11.47691780  0.09097111
   3.74592312  0.09573065  3.74266328
   3.99379656 11.44639266  7.72883287
   3.75499360  3.86222179  0.13007440
   3.91460274  3.72508335  3.76613505
   3.99419454  3.85392067  7.71278379
   3.96322365  7.85292799 -0.00439956
   3.79084836  7.71397226  4.00419881
   3.98614443  7.81604020  7.66010916
   7.58659235  0.09288471  0.00308643
   7.72954961 11.50584729  3.99995468
   7.60230409 11.44909763  7.63850733
   7.72321940  3.73877198 11.47714420
   7.56147869  3.87072518  3.86556294
   7.64709555  3.85404605  7.84232407
   7.61061205  7.70543331 11.43573118
   7.73880308  7.85545494  3.84839121
   7.60277921  7.80805890  7.82196313
   0.04151013  1.95169685  3.94434727
   0.00196749  1.93003301  7.66613091
   0.06693919  9.62956458 11.55412887
   3.77463515  1.94185787  3.95023802
   3.71242746  9.63006241 11.52134845
   3.85891677  9.64435245  7.80708988
   7.71603638  1.94740234  0.01079548
   7.71401691  9.62144016  3.87943928
   7.71267987  9.63142416  7.67469021
   1.91103677 11.42409184  3.94858940
   1.90155973  3.83624677 11.55957559
   1.90373139  7.78128667  3.84182921
   5.79904420 11.49940876 11.52341803
   5.78585891  0.10937095  7.80592329
   5.80983898  3.86472498  3.93777097
   5.78143059  3.83039101  7.66466336
   5.78769651  7.77069997 11.53054588
   5.78288493  7.60326061  7.78913389
   0.02653165  0.01061948  1.92319101
  11.50318782  3.91361909  9.62855419
  11.54016325  7.64244833  9.63167080
   3.81540368  0.03288603  1.91180425
   3.86713342  3.83392809  1.91976541
   3.86777634  7.70541147  5.77882936
   7.73204358  0.08213973  5.77504647
   7.76785538  3.92581680  9.63803976
   7.84909149  7.64843062  9.65683134
  11.47313751  1.93187088 11.54049997
  11.53491051  5.79407465  0.08805170
  11.54607883  5.78937804  3.84852719
   0.00420445  5.79048312  7.62079939
  11.41513615  9.61145655  3.86051514
  -0.00292746  9.64742842  7.74505224
   3.92910124  1.94508998 11.49601760
   3.72992113  1.95188529  7.63800161
   3.86501427  5.78484293 11.55430996
   3.84181103  5.78660336  3.83731388
   3.76400442  5.75789852  7.76376579
   4.02708000  9.62981812  3.82811449
   7.78127961  1.94599507  3.74879697
   7.85004501  1.93916449  7.76654537
   7.73758664  5.77497063  0.09511039
   7.77423266  5.78772195  3.86896787
   7.80300679  5.76111043  7.58948216
   7.84818971  9.64751518  0.03131731
   1.90188210  0.16936501 11.50026780
   1.90034853 11.55946274  7.63321245
   1.89537829  3.99587003  3.86006346
   1.92750597  3.88964146  7.73857111
   1.90715640  7.56898086  0.07996027
   1.88874067  7.69232342  7.67962201
   5.80575420  0.06194107  3.82485296
   5.77999320  3.91797652 11.54370234
   5.81442397  7.61557701  3.79936164
   9.65379221 11.55725860 11.54741257
   9.66086791  0.02093930  3.83938910
   9.67247341 11.55622748  7.76144941
   9.66163506  3.90054199  0.09550650
   9.64558974  3.88223390  3.84574326
   9.65964007  3.89482701  7.60855349
   9.66691895  7.69499538  0.09769933
   9.66034308  7.65878342  3.87622778
   9.67645419  7.68525370  7.59234293
  11.46798644 11.46517633  5.79965543
   0.01643625  0.01290083  9.63226458
  11.56580846  3.83850622  1.93592191
   0.01345486  3.95433705  5.79251415
  11.53382933  7.70566173  1.93984358
  11.57486074  7.73586760  5.78945053
   3.92746946 11.50777939  5.78655417
   3.72974677  0.12042376  9.63932775
   3.75379134  3.96700505  5.80212118
   3.87131499  3.83720607  9.63014565
   3.87117432  7.68880552  1.94033318
   3.69115202  7.60321511  9.65286256
   7.75610627 11.55595923  1.93701480
   7.82684245 11.56350780  9.64920411
   7.69838311  3.91026444  1.93517512
   7.80724643  3.77949351  5.77792967
   7.75800988  7.68746582  1.93470025
   7.70646546  7.63078455  5.75817985
 


--------------------------------------------------------------------------------------------------------


 k-point   1 :   0.0000 0.0000 0.0000  plane waves:   65129
 k-point   2 :   0.3333-0.0000 0.0000  plane waves:   65259
 k-point   3 :   0.0000 0.3333 0.0000  plane waves:   65259
 k-point   4 :   0.3333 0.3333-0.0000  plane waves:   65320
 k-point   5 :  -0.3333 0.3333 0.0000  plane waves:   65323
 k-point   6 :   0.0000-0.0000 0.3333  plane waves:   65267
 k-point   7 :   0.3333-0.0000 0.3333  plane waves:   65347
 k-point   8 :  -0.3333-0.0000 0.3333  plane waves:   65323
 k-point   9 :   0.0000 0.3333 0.3333  plane waves:   65330
 k-point  10 :   0.3333 0.3333 0.3333  plane waves:   65388
 k-point  11 :  -0.3333 0.3333 0.3333  plane waves:   65385
 k-point  12 :  -0.0000-0.3333 0.3333  plane waves:   65322
 k-point  13 :   0.3333-0.3333 0.3333  plane waves:   65381
 k-point  14 :  -0.3333-0.3333 0.3333  plane waves:   65384

 maximum and minimum number of plane-waves per node :      8208     8104

 maximum number of plane-waves:     65388
 maximum index in each direction: 
   IXMAX=   25   IYMAX=   25   IZMAX=   24
   IXMIN=  -25   IYMIN=  -25   IZMIN=  -25


 real space projection operators:
  total allocation   :      54173.89 KBytes
  max/ min on nodes  :       7389.81       6123.48


 parallel 3D FFT for wavefunctions:
    minimum data exchange during FFTs selected (reduces bandwidth)
 parallel 3D FFT for charge:
    minimum data exchange during FFTs selected (reduces bandwidth)


 total amount of memory used by VASP MPI-rank0   297755. kBytes
=======================================================================

   base      :      30000. kBytes
   nonlr-proj:      25356. kBytes
   fftplans  :      18873. kBytes
   grid      :      21088. kBytes
   one-center:        435. kBytes
   wavefun   :     202003. kBytes
 
     INWAV:  cpu time     34.4958: real time     34.6049
 Broyden mixing: mesh for mixing (old mesh)
   NGX = 49   NGY = 49   NGZ = 49
  (NGX  =200   NGY  =200   NGZ  =200)
  gives a total of 117649 points

 charge density for first step will be calculated from the start-wavefunctions


--------------------------------------------------------------------------------------------------------


 Maximum index for non-local projection operator         1338
 Maximum index for augmentation-charges         4056 (set IRDMAX)


--------------------------------------------------------------------------------------------------------


 initial charge from wavefunction
 First call to EWALD:  gamma=   0.153
 Maximum number of real-space cells 3x 3x 3
 Maximum number of reciprocal cells 3x 3x 3

    FEWALD:  cpu time      0.0037: real time      0.0037


--------------------------------------- Iteration      1(   1)  ---------------------------------------


    POTLOK:  cpu time      0.1545: real time      0.1567
    SETDIJ:  cpu time      0.8786: real time      0.8809
     EDDAV:  cpu time     75.8813: real time     76.1011
       DOS:  cpu time      0.0075: real time      0.0076
    CHARGE:  cpu time      3.9212: real time      3.9310
    MIXING:  cpu time      0.0047: real time      0.0051
    --------------------------------------------
      LOOP:  cpu time     80.8478: real time     81.0823

 eigenvalue-minimisations  : 24600
 total energy-change (2. order) :-0.7214538E+03  (-0.3153697E-06)
 number of electron     810.0000011 magnetization       0.0000000
 augmentation part      209.1347381 magnetization       0.0000000

 Broyden mixing:
  rms(total) = 0.41829E-03    rms(broyden)= 0.41118E-03
  rms(prec ) = 0.56238E-03
  weight for this iteration     100.00

 Free energy of the ion-electron system (eV)
  ---------------------------------------------------
  alpha Z        PSCENC =      2567.37804836
  Ewald energy   TEWEN  =    -43331.85737322
  -Hartree energ DENC   =    -27707.09665197
  -exchange      EXHF   =         0.00000000
  -V(xc)+E(xc)   XCENC  =      3779.61742682
  PAW double counting   =     60878.68436044   -61294.30417943
  entropy T*S    EENTRO =        -0.00000000
  eigenvalues    EBANDS =    -10884.31748987
  atomic energy  EATOM  =     75270.44210491
  Solvation  Ediel_sol  =         0.00000000
  ---------------------------------------------------
  free energy    TOTEN  =      -721.45375396 eV

  energy without entropy =     -721.45375396  energy(sigma->0) =     -721.45375396


--------------------------------------------------------------------------------------------------------




--------------------------------------- Iteration      1(   2)  ---------------------------------------


    POTLOK:  cpu time      0.1525: real time      0.1606
    SETDIJ:  cpu time      0.8830: real time      0.8851
     EDDAV:  cpu time     64.6483: real time     64.8129
       DOS:  cpu time      0.0042: real time      0.0042
    --------------------------------------------
      LOOP:  cpu time     65.6880: real time     65.8628

 eigenvalue-minimisations  : 19240
 total energy-change (2. order) : 0.4013273E-06  (-0.1450646E-06)
 number of electron     810.0000011 magnetization       0.0000000
 augmentation part      209.1347381 magnetization       0.0000000

 Free energy of the ion-electron system (eV)
  ---------------------------------------------------
  alpha Z        PSCENC =      2567.37804836
  Ewald energy   TEWEN  =    -43331.85737322
  -Hartree energ DENC   =    -27707.07262860
  -exchange      EXHF   =         0.00000000
  -V(xc)+E(xc)   XCENC  =      3779.61585849
  PAW double counting   =     60878.63841782   -61294.25633924
  entropy T*S    EENTRO =        -0.00000000
  eigenvalues    EBANDS =    -10884.34184208
  atomic energy  EATOM  =     75270.44210491
  Solvation  Ediel_sol  =         0.00000000
  ---------------------------------------------------
  free energy    TOTEN  =      -721.45375355 eV

  energy without entropy =     -721.45375355  energy(sigma->0) =     -721.45375355


--------------------------------------------------------------------------------------------------------




 average (electrostatic) potential at core
  the test charge radii are     1.0397  0.7215  0.7167
  (the norm of the test charge is              1.0000)
       1 -58.8113       2 -58.5013       3 -59.4165       4 -58.9375       5 -59.2381
       6 -59.0798       7 -59.0148       8 -59.3266       9 -59.3904      10 -58.3139
      11 -58.3113      12 -58.5328      13 -58.7646      14 -58.4655      15 -59.3588
      16 -58.5965      17 -58.8367      18 -58.3372      19 -58.6639      20 -58.8108
      21 -58.3413      22 -58.8407      23 -59.1931      24 -59.0022      25 -58.5971
      26 -59.2674      27 -58.2673      28 -74.4004      29 -74.5356      30 -74.2586
      31 -73.8928      32 -73.8919      33 -73.9291      34 -74.0813      35 -74.4040
      36 -73.8336      37 -73.9066      38 -74.1901      39 -74.4640      40 -73.9370
      41 -73.9298      42 -74.3593      43 -74.4522      44 -73.9884      45 -73.8741
      46 -74.1377      47 -74.3576      48 -74.5185      49 -73.7651      50 -74.0898
      51 -74.0523      52 -74.0332      53 -74.2652      54 -73.9438      55 -79.0175
      56 -78.9942      57 -79.1671      58 -79.2865      59 -79.2080      60 -79.2243
      61 -78.7726      62 -79.0220      63 -78.7947      64 -78.8389      65 -79.0144
      66 -78.8321      67 -79.1649      68 -78.8639      69 -78.8095      70 -79.1224
      71 -78.8816      72 -78.8044      73 -78.8015      74 -79.0646      75 -79.1442
      76 -79.0910      77 -78.9211      78 -79.0485      79 -78.8227      80 -78.9308
      81 -79.1858      82 -78.7979      83 -78.8380      84 -79.0597      85 -78.9371
      86 -79.1219      87 -79.1474      88 -78.9224      89 -79.1481      90 -79.0598
      91 -79.1363      92 -79.0976      93 -79.1658      94 -79.1639      95 -79.2475
      96 -79.2012      97 -78.6606      98 -78.6629      99 -79.0833     100 -79.0439
     101 -78.7409     102 -78.7808     103 -78.7678     104 -78.8041     105 -79.1052
     106 -79.0868     107 -79.0057     108 -78.9938
 
 
 
 E-fermi :  -0.7605     XC(G=0):  -9.0040     alpha+bet : -7.6763

 Fermi energy:        -0.7604649595

 spin component 1

 k-point     1 :       0.0000    0.0000    0.0000
  band No.  band energies     occupation 
      1     -35.3534      1.00000
      2     -35.3489      1.00000
      3     -35.3395      1.00000
      4     -35.3348      1.00000
      5     -35.2933      1.00000
      6     -35.2929      1.00000
      7     -35.2914      1.00000
      8     -35.2874      1.00000
      9     -35.2421      1.00000
     10     -35.2337      1.00000
     11     -35.2132      1.00000
     12     -35.2086      1.00000
     13     -35.2084      1.00000
     14     -35.1989      1.00000
     15     -35.1768      1.00000
     16     -35.1653      1.00000
     17     -35.1591      1.00000
     18     -35.1503      1.00000
     19     -35.0938      1.00000
     20     -35.0725      1.00000
     21     -35.0548      1.00000
     22     -35.0288      1.00000
     23     -34.9814      1.00000
     24     -34.9769      1.00000
     25     -34.9601      1.00000
     26     -34.9394      1.00000
     27     -34.9252      1.00000
     28     -34.9004      1.00000
     29     -34.8871      1.00000
     30     -34.8615      1.00000
     31     -34.8560      1.00000
     32     -34.8312      1.00000
     33     -34.8158      1.00000
     34     -34.8108      1.00000
     35     -34.7923      1.00000
     36     -34.7837      1.00000
     37     -34.7818      1.00000
     38     -34.7404      1.00000
     39     -34.7403      1.00000
     40     -34.7317      1.00000
     41     -34.7141      1.00000
     42     -34.7080      1.00000
     43     -34.6911      1.00000
     44     -34.6809      1.00000
     45     -34.6770      1.00000
     46     -34.6685      1.00000
     47     -34.6587      1.00000
     48     -34.6332      1.00000
     49     -34.6275      1.00000
     50     -34.5909      1.00000
     51     -34.5730      1.00000
     52     -34.5418      1.00000
     53     -34.5261      1.00000
     54     -34.5208      1.00000
     55     -34.5132      1.00000
     56     -34.4935      1.00000
     57     -34.4722      1.00000
     58     -34.4592      1.00000
     59     -34.4530      1.00000
     60     -34.4432      1.00000
     61     -34.4196      1.00000
     62     -34.4192      1.00000
     63     -34.4187      1.00000
     64     -34.3956      1.00000
     65     -34.3856      1.00000
     66     -34.3645      1.00000
     67     -34.2898      1.00000
     68     -34.2878      1.00000
     69     -34.2573      1.00000
     70     -34.2529      1.00000
     71     -34.2521      1.00000
     72     -34.2477      1.00000
     73     -34.2460      1.00000
     74     -34.2420      1.00000
     75     -34.2169      1.00000
     76     -34.2126      1.00000
     77     -34.2081      1.00000
     78     -34.2040      1.00000
     79     -34.1777      1.00000
     80     -34.1683      1.00000
     81     -34.1660      1.00000
     82     -23.2391      1.00000
     83     -23.1341      1.00000
     84     -23.1080      1.00000
     85     -23.0604      1.00000
     86     -23.0308      1.00000
     87     -23.0034      1.00000
     88     -22.9726      1.00000
     89     -22.9482      1.00000
     90     -22.9292      1.00000
     91     -22.8652      1.00000
     92     -22.8542      1.00000
     93     -22.8342      1.00000
     94     -22.8121      1.00000
     95     -22.8023      1.00000
     96     -22.7765      1.00000
     97     -22.7623      1.00000
     98     -22.7579      1.00000
     99     -22.7439      1.00000
    100     -22.7165      1.00000
    101     -22.7153      1.00000
    102     -22.7047      1.00000
    103     -22.6805      1.00000
    104     -22.6761      1.00000
    105     -22.6719      1.00000
    106     -22.6539      1.00000
    107     -22.6453      1.00000
    108     -22.6357      1.00000
    109     -22.6241      1.00000
    110     -22.6045      1.00000
    111     -22.6002      1.00000
    112     -22.5913      1.00000
    113     -22.5850      1.00000
    114     -22.5579      1.00000
    115     -22.5496      1.00000
    116     -22.5377      1.00000
    117     -22.5216      1.00000
    118     -22.5091      1.00000
    119     -22.5024      1.00000
    120     -22.4876      1.00000
    121     -22.4829      1.00000
    122     -22.4511      1.00000
    123     -22.4457      1.00000
    124     -22.4245      1.00000
    125     -22.4033      1.00000
    126     -22.3858      1.00000
    127     -22.3604      1.00000
    128     -22.3517      1.00000
    129     -22.3229      1.00000
    130     -22.3032      1.00000
    131     -22.2969      1.00000
    132     -22.2798      1.00000
    133     -22.2703      1.00000
    134     -22.2535      1.00000
    135     -22.1492      1.00000
    136     -17.0324      1.00000
    137     -16.9944      1.00000
    138     -16.9373      1.00000
    139     -16.9161      1.00000
    140     -16.8714      1.00000
    141     -16.8644      1.00000
    142     -16.8427      1.00000
    143     -16.8226      1.00000
    144     -16.7416      1.00000
    145     -16.7371      1.00000
    146     -16.6691      1.00000
    147     -16.6359      1.00000
    148     -16.5845      1.00000
    149     -16.5691      1.00000
    150     -16.5549      1.00000
    151     -16.5470      1.00000
    152     -16.5260      1.00000
    153     -16.4804      1.00000
    154     -16.4401      1.00000
    155     -16.4212      1.00000
    156     -16.3951      1.00000
    157     -16.3302      1.00000
    158     -16.2950      1.00000
    159     -16.2842      1.00000
    160     -16.2769      1.00000
    161     -16.2208      1.00000
    162     -16.1707      1.00000
    163      -6.6432      1.00000
    164      -6.5402      1.00000
    165      -6.5224      1.00000
    166      -6.4767      1.00000
    167      -6.4409      1.00000
    168      -6.4109      1.00000
    169      -6.3891      1.00000
    170      -6.3730      1.00000
    171      -6.3575      1.00000
    172      -6.3339      1.00000
    173      -6.3073      1.00000
    174      -6.2874      1.00000
    175      -6.2760      1.00000
    176      -6.2203      1.00000
    177      -6.2032      1.00000
    178      -6.1626      1.00000
    179      -6.1202      1.00000
    180      -6.0969      1.00000
    181      -6.0741      1.00000
    182      -6.0541      1.00000
    183      -6.0404      1.00000
    184      -6.0184      1.00000
    185      -6.0079      1.00000
    186      -5.9643      1.00000
    187      -5.9557      1.00000
    188      -5.9347      1.00000
    189      -5.9201      1.00000
    190      -5.8967      1.00000
    191      -5.8830      1.00000
    192      -5.8647      1.00000
    193      -5.8308      1.00000
    194      -5.8174      1.00000
    195      -5.8128      1.00000
    196      -5.7686      1.00000
    197      -5.7449      1.00000
    198      -5.7285      1.00000
    199      -5.7148      1.00000
    200      -5.6899      1.00000
    201      -5.6697      1.00000
    202      -5.6506      1.00000
    203      -5.6283      1.00000
    204      -5.6168      1.00000
    205      -5.6053      1.00000
    206      -5.5793      1.00000
    207      -5.5547      1.00000
    208      -5.5155      1.00000
    209      -5.4787      1.00000
    210      -5.4575      1.00000
    211      -5.4454      1.00000
    212      -5.4191      1.00000
    213      -5.4166      1.00000
    214      -5.3704      1.00000
    215      -5.3545      1.00000
    216      -5.2960      1.00000
    217      -5.2544      1.00000
    218      -5.2342      1.00000
    219      -5.1833      1.00000
    220      -5.1751      1.00000
    221      -5.1193      1.00000
    222      -5.0972      1.00000
    223      -5.0722      1.00000
    224      -5.0324      1.00000
    225      -5.0157      1.00000
    226      -5.0080      1.00000
    227      -4.9647      1.00000
    228      -4.9370      1.00000
    229      -4.9215      1.00000
    230      -4.8981      1.00000
    231      -4.8763      1.00000
    232      -4.8640      1.00000
    233      -4.8589      1.00000
    234      -4.8367      1.00000
    235      -4.8267      1.00000
    236      -4.8050      1.00000
    237      -4.7914      1.00000
    238      -4.7752      1.00000
    239      -4.7558      1.00000
    240      -4.7401      1.00000
    241      -4.7124      1.00000
    242      -4.7067      1.00000
    243      -4.6863      1.00000
    244      -4.6653      1.00000
    245      -4.6070      1.00000
    246      -4.5754      1.00000
    247      -4.5563      1.00000
    248      -4.5536      1.00000
    249      -4.5108      1.00000
    250      -4.4986      1.00000
    251      -4.4742      1.00000
    252      -4.4702      1.00000
    253      -4.4474      1.00000
    254      -4.4140      1.00000
    255      -4.4076      1.00000
    256      -4.3177      1.00000
    257      -4.2981      1.00000
    258      -4.2856      1.00000
    259      -4.2311      1.00000
    260      -4.2146      1.00000
    261      -4.1927      1.00000
    262      -4.1753      1.00000
    263      -4.1618      1.00000
    264      -4.1484      1.00000
    265      -4.1267      1.00000
    266      -4.0990      1.00000
    267      -4.0930      1.00000
    268      -4.0651      1.00000
    269      -4.0571      1.00000
    270      -4.0447      1.00000
    271      -4.0236      1.00000
    272      -4.0166      1.00000
    273      -3.9930      1.00000
    274      -3.9869      1.00000
    275      -3.9627      1.00000
    276      -3.9449      1.00000
    277      -3.9353      1.00000
    278      -3.9273      1.00000
    279      -3.9041      1.00000
    280      -3.8873      1.00000
    281      -3.8787      1.00000
    282      -3.8676      1.00000
    283      -3.8598      1.00000
    284      -3.8521      1.00000
    285      -3.8431      1.00000
    286      -3.8321      1.00000
    287      -3.8161      1.00000
    288      -3.7838      1.00000
    289      -3.7698      1.00000
    290      -3.7590      1.00000
    291      -3.7402      1.00000
    292      -3.7388      1.00000
    293      -3.7219      1.00000
    294      -3.6995      1.00000
    295      -3.6911      1.00000
    296      -3.6795      1.00000
    297      -3.6653      1.00000
    298      -3.6462      1.00000
    299      -3.6386      1.00000
    300      -3.6312      1.00000
    301      -3.6186      1.00000
    302      -3.6080      1.00000
    303      -3.5953      1.00000
    304      -3.5884      1.00000
    305      -3.5603      1.00000
    306      -3.5429      1.00000
    307      -3.5376      1.00000
    308      -3.5224      1.00000
    309      -3.5189      1.00000
    310      -3.5151      1.00000
    311      -3.4853      1.00000
    312      -3.4744      1.00000
    313      -3.4686      1.00000
    314      -3.4617      1.00000
    315      -3.4516      1.00000
    316      -3.4440      1.00000
    317      -3.4272      1.00000
    318      -3.4070      1.00000
    319      -3.3914      1.00000
    320      -3.3893      1.00000
    321      -3.3733      1.00000
    322      -3.3548      1.00000
    323      -3.3369      1.00000
    324      -3.3262      1.00000
    325      -3.3151      1.00000
    326      -3.3059      1.00000
    327      -3.2996      1.00000
    328      -3.2896      1.00000
    329      -3.2805      1.00000
    330      -3.2784      1.00000
    331      -3.2642      1.00000
    332      -3.2544      1.00000
    333      -3.2411      1.00000
    334      -3.2251      1.00000
    335      -3.2138      1.00000
    336      -3.2069      1.00000
    337      -3.1818      1.00000
    338      -3.1667      1.00000
    339      -3.1624      1.00000
    340      -3.1391      1.00000
    341      -3.1248      1.00000
    342      -3.1037      1.00000
    343      -3.1000      1.00000
    344      -3.0586      1.00000
    345      -3.0413      1.00000
    346      -3.0268      1.00000
    347      -3.0004      1.00000
    348      -2.9836      1.00000
    349      -2.9499      1.00000
    350      -2.9425      1.00000
    351      -2.9161      1.00000
    352      -2.8150      1.00000
    353      -2.7837      1.00000
    354      -2.7372      1.00000
    355      -2.6795      1.00000
    356      -2.6285      1.00000
    357      -2.5882      1.00000
    358      -2.5651      1.00000
    359      -2.5404      1.00000
    360      -2.5057      1.00000
    361      -2.4851      1.00000
    362      -2.4632      1.00000
    363      -2.4606      1.00000
    364      -2.4467      1.00000
    365      -2.4343      1.00000
    366      -2.4146      1.00000
    367      -2.4020      1.00000
    368      -2.3189      1.00000
    369      -2.2862      1.00000
    370      -2.2614      1.00000
    371      -2.2375      1.00000
    372      -2.1989      1.00000
    373      -2.1878      1.00000
    374      -2.1727      1.00000
    375      -2.1462      1.00000
    376      -2.1378      1.00000
    377      -2.1275      1.00000
    378      -2.0454      1.00000
    379      -2.0325      1.00000
    380      -1.9558      1.00000
    381      -1.9178      1.00000
    382      -1.8623      1.00000
    383      -1.8353      1.00000
    384      -1.8206      1.00000
    385      -1.7753      1.00000
    386      -1.7657      1.00000
    387      -1.7283      1.00000
    388      -1.6548      1.00000
    389      -1.6486      1.00000
    390      -1.5520      1.00000
    391      -1.5024      1.00000
    392      -1.4655      1.00000
    393      -1.4393      1.00000
    394      -1.4266      1.00000
    395      -1.3658      1.00000
    396      -1.3217      1.00000
    397      -1.3006      1.00000
    398      -1.2421      1.00000
    399      -1.1650      1.00000
    400      -1.0782      1.00000
    401      -1.0321      1.00000
    402      -0.9837      1.00000
    403      -0.9665      1.00000
    404      -0.8646      1.00000
    405      -0.8218      1.00000
    406       1.7896      0.00000
    407       1.8722      0.00000
    408       1.9565      0.00000
    409       1.9886      0.00000
    410       2.0016      0.00000
    411       2.0675      0.00000
    412       2.1305      0.00000
    413       2.1774      0.00000
    414       2.2052      0.00000
    415       2.3229      0.00000
    416       2.3703      0.00000
    417       2.4090      0.00000
    418       2.4191      0.00000
    419       2.4809      0.00000
    420       2.5051      0.00000
    421       2.5352      0.00000
    422       2.5412      0.00000
    423       2.5660      0.00000
    424       2.6033      0.00000
    425       2.6162      0.00000
    426       2.6348      0.00000
    427       2.6421      0.00000
    428       2.6576      0.00000
    429       2.6654      0.00000
    430       2.6768      0.00000
    431       2.7134      0.00000
    432       2.7255      0.00000
    433       2.7421      0.00000
    434       2.7509      0.00000
    435       2.7738      0.00000
    436       2.7851      0.00000
    437       2.8111      0.00000
    438       2.8213      0.00000
    439       2.8501      0.00000
    440       2.9116      0.00000
    441       2.9405      0.00000
    442       2.9576      0.00000
    443       2.9998      0.00000
    444       3.0097      0.00000
    445       3.0420      0.00000
    446       3.0473      0.00000
    447       3.0614      0.00000
    448       3.0829      0.00000
    449       3.0960      0.00000
    450       3.1383      0.00000
    451       3.1519      0.00000
    452       3.1619      0.00000
    453       3.2034      0.00000
    454       3.2055      0.00000
    455       3.2406      0.00000
    456       3.2756      0.00000
    457       3.2869      0.00000
    458       3.3082      0.00000
    459       3.3142      0.00000
    460       3.3220      0.00000
    461       3.3539      0.00000
    462       3.3706      0.00000
    463       3.4022      0.00000
    464       3.4090      0.00000
    465       3.4162      0.00000
    466       3.4419      0.00000
    467       3.4727      0.00000
    468       3.4889      0.00000
    469       3.5095      0.00000
    470       3.5266      0.00000
    471       3.5390      0.00000
    472       3.5505      0.00000
    473       3.5843      0.00000
    474       3.5997      0.00000
    475       3.6062      0.00000
    476       3.6310      0.00000
    477       3.6747      0.00000
    478       3.6831      0.00000
    479       3.6983      0.00000
    480       3.7172      0.00000
    481       3.7410      0.00000
    482       3.7715      0.00000
    483       3.7825      0.00000
    484       3.8319      0.00000
    485       3.8482      0.00000
    486       3.8665      0.00000
    487       3.8926      0.00000
    488       3.9199      0.00000
    489       3.9447      0.00000
    490       3.9747      0.00000
    491       3.9980      0.00000
    492       4.0085      0.00000
    493       4.0270      0.00000
    494       4.0372      0.00000
    495       4.0571      0.00000
    496       4.0979      0.00000
    497       4.1435      0.00000
    498       4.1674      0.00000
    499       4.1907      0.00000
    500       4.2495      0.00000
    501       4.2830      0.00000
    502       4.3120      0.00000
    503       4.3394      0.00000
    504       4.3753      0.00000
    505       4.3943      0.00000
    506       4.4137      0.00000
    507       4.5090      0.00000
    508       4.5241      0.00000
    509       4.6532      0.00000
    510       4.6877      0.00000
    511       4.7831      0.00000
    512       4.8641      0.00000
    513       4.9818      0.00000
    514       5.0598      0.00000
    515       5.1941      0.00000
    516       5.2303      0.00000
    517       5.2793      0.00000
    518       5.3486      0.00000
    519       5.3679      0.00000
    520       5.4112      0.00000
    521       5.5253      0.00000
    522       5.5774      0.00000
    523       5.6453      0.00000
    524       5.6603      0.00000
    525       5.7466      0.00000
    526       5.7964      0.00000
[...]
      3.99419      3.85392      7.71278        -0.001251     -0.000342     -0.000650
      3.96322      7.85293     -0.00440        -0.001009      0.001283     -0.000841
      3.79085      7.71397      4.00420        -0.000314     -0.000204     -0.000053
      3.98614      7.81604      7.66011         0.000302     -0.000270     -0.000063
      7.58659      0.09288      0.00309        -0.000345      0.000408     -0.001334
      7.72955     11.50585      3.99995         0.000771     -0.000668     -0.000625
      7.60230     11.44910      7.63851         0.000325      0.000866     -0.001351
      7.72322      3.73877     11.47714        -0.000598      0.000908     -0.000951
      7.56148      3.87073      3.86556         0.000571     -0.001712     -0.000186
      7.64710      3.85405      7.84232        -0.000474      0.000188     -0.000359
      7.61061      7.70543     11.43573        -0.000039      0.000076     -0.001062
      7.73880      7.85545      3.84839        -0.000008     -0.002061      0.000886
      7.60278      7.80806      7.82196        -0.000565     -0.000360      0.000141
      0.04151      1.95170      3.94435         0.004739     -0.001276      0.001382
      0.00197      1.93003      7.66613        -0.000887     -0.001744      0.000299
      0.06694      9.62956     11.55413         0.000434      0.002159     -0.000549
      3.77464      1.94186      3.95024        -0.004125     -0.000738      0.001101
      3.71243      9.63006     11.52135        -0.002734      0.001678      0.000078
      3.85892      9.64435      7.80709         0.006194      0.000589      0.000999
      7.71604      1.94740      0.01080        -0.002237     -0.000796     -0.002747
      7.71402      9.62144      3.87944         0.000268     -0.000144      0.000448
      7.71268      9.63142      7.67469        -0.006196      0.000319     -0.001784
      1.91104     11.42409      3.94859         0.001100     -0.004629      0.003136
      1.90156      3.83625     11.55958         0.000339      0.000290     -0.000791
      1.90373      7.78129      3.84183         0.000896      0.001223      0.001841
      5.79904     11.49941     11.52342        -0.000715     -0.001699     -0.000556
      5.78586      0.10937      7.80592         0.000767      0.006354      0.001409
      5.80984      3.86472      3.93777        -0.000653     -0.003195      0.001216
      5.78143      3.83039      7.66466        -0.000934     -0.001136     -0.000043
      5.78770      7.77070     11.53055        -0.000741      0.002178     -0.005118
      5.78288      7.60326      7.78913        -0.000725     -0.004037      0.005547
      0.02653      0.01062      1.92319         0.002431      0.000077      0.000734
     11.50319      3.91362      9.62855        -0.001914      0.000329      0.000230
     11.54016      7.64245      9.63167         0.000706     -0.000338      0.000306
      3.81540      0.03289      1.91180        -0.000947      0.000882      0.000094
      3.86713      3.83393      1.91977        -0.000270     -0.001108     -0.000350
      3.86778      7.70541      5.77883         0.003835      0.001745     -0.000442
      7.73204      0.08214      5.77505        -0.000603      0.000942     -0.001698
      7.76786      3.92582      9.63804        -0.000179      0.002186     -0.000552
      7.84909      7.64843      9.65683         0.003600      0.000051      0.000833
     11.47314      1.93187     11.54050        -0.001755      0.000138      0.000209
     11.53491      5.79407      0.08805        -0.000336      0.000281      0.001571
     11.54608      5.78938      3.84853        -0.000057      0.000640     -0.000795
      0.00420      5.79048      7.62080         0.000673     -0.000024      0.000856
     11.41514      9.61146      3.86052        -0.002804      0.000430      0.000269
     -0.00293      9.64743      7.74505         0.001248     -0.000192      0.002967
      3.92910      1.94509     11.49602         0.002868      0.000859      0.000799
      3.72992      1.95189      7.63800        -0.002264     -0.000309     -0.004254
      3.86501      5.78484     11.55431        -0.000917      0.001078      0.001354
      3.84181      5.78660      3.83731         0.000112      0.000690     -0.000665
      3.76400      5.75790      7.76377        -0.002512     -0.000364     -0.001881
      4.02708      9.62982      3.82811         0.003194      0.000284     -0.001308
      7.78128      1.94600      3.74880         0.002309     -0.001419     -0.003432
      7.85005      1.93916      7.76655         0.003864      0.000046      0.003265
      7.73759      5.77497      0.09511        -0.001256      0.001029      0.000402
      7.77423      5.78772      3.86897         0.000338     -0.002449      0.001364
      7.80301      5.76111      7.58948         0.000885     -0.000073     -0.001594
      7.84819      9.64752      0.03132         0.000507      0.000125      0.000299
      1.90188      0.16937     11.50027         0.000170      0.005282      0.001511
      1.90035     11.55946      7.63321         0.001285     -0.002111     -0.004115
      1.89538      3.99587      3.86006         0.000264      0.003649     -0.000729
      1.92751      3.88964      7.73857        -0.001144     -0.001819      0.001871
      1.90716      7.56898      0.07996        -0.000302      0.000757      0.002807
      1.88874      7.69232      7.67962         0.000462      0.002228     -0.002532
      5.80575      0.06194      3.82485         0.000503      0.003563     -0.001983
      5.77999      3.91798     11.54370        -0.000979      0.002784     -0.001134
      5.81442      7.61558      3.79936         0.000067     -0.002981     -0.000013
      9.65379     11.55726     11.54741         0.000441      0.001341      0.001543
      9.66087      0.02094      3.83939         0.000483      0.001398     -0.001019
      9.67247     11.55623      7.76145         0.000852     -0.003623     -0.001023
      9.66164      3.90054      0.09551        -0.001305      0.000068      0.001171
      9.64559      3.88223      3.84574         0.001122     -0.002655     -0.001017
      9.65964      3.89483      7.60855        -0.000342      0.000103     -0.001032
      9.66692      7.69500      0.09770        -0.000081      0.001115      0.001960
      9.66034      7.65878      3.87623        -0.001115     -0.001802      0.001941
      9.67645      7.68525      7.59234         0.000357      0.002382     -0.000265
     11.46799     11.46518      5.79966        -0.000486     -0.001505     -0.000101
      0.01644      0.01290      9.63226         0.002093      0.000276      0.000134
     11.56581      3.83851      1.93592         0.001299     -0.002229      0.000100
      0.01345      3.95434      5.79251         0.000532     -0.000375      0.000246
     11.53383      7.70566      1.93984         0.000740      0.002341      0.000618
     11.57486      7.73587      5.78945         0.000234      0.000731      0.000645
      3.92747     11.50778      5.78655         0.005972     -0.002605     -0.000764
      3.72975      0.12042      9.63933        -0.000999      0.000739     -0.000368
      3.75379      3.96701      5.80212        -0.001997      0.000284     -0.000340
      3.87131      3.83721      9.63015        -0.000246     -0.000785     -0.000259
      3.87117      7.68881      1.94033         0.002417      0.002422     -0.000508
      3.69115      7.60322      9.65286        -0.004749      0.000382     -0.000249
      7.75611     11.55596      1.93701        -0.000521     -0.001146     -0.001148
      7.82684     11.56351      9.64920         0.000885     -0.003595     -0.000328
      7.69838      3.91026      1.93518        -0.002682     -0.001083     -0.000699
      7.80725      3.77949      5.77793        -0.000031     -0.004191     -0.000259
      7.75801      7.68747      1.93470        -0.002706     -0.000057      0.000042
      7.70647      7.63078      5.75818        -0.003651     -0.000614      0.000666
 -----------------------------------------------------------------------------------
    total drift:                                0.006299      0.000080      0.006481


--------------------------------------------------------------------------------------------------------



  FREE ENERGIE OF THE ION-ELECTRON SYSTEM (eV)
  ---------------------------------------------------
  free  energy   TOTEN  =      -721.45375355 eV

  energy  without entropy=     -721.45375355  energy(sigma->0) =     -721.45375355
 


--------------------------------------------------------------------------------------------------------


    POTLOK:  cpu time      1.0412: real time      1.0440


--------------------------------------------------------------------------------------------------------


 Quasi-Newton relaxation of ions (Broydens 2nd method)
  g(Force)  = 0.457E-04   g(Stress)= 0.769E-04

 Reset! Starting new Quasi-Newton update for ions 


--------------------------------------------------------------------------------------------------------


  
 reached required accuracy - stopping structural energy minimisation
 writing wavefunctions
     LOOP+:  cpu time    290.3439: real time    333.8459
    4ORBIT:  cpu time      0.0000: real time      0.0000



 total charge

# of ion       s       p       d       tot
------------------------------------------
    1        0.322   6.459   1.781   8.563
    2        0.327   6.460   1.806   8.593
    3        0.318   6.468   1.747   8.533
    4        0.321   6.460   1.773   8.554
    5        0.316   6.461   1.779   8.556
    6        0.322   6.465   1.775   8.562
    7        0.321   6.463   1.765   8.549
    8        0.317   6.465   1.770   8.552
    9        0.317   6.466   1.756   8.539
   10        0.325   6.455   1.788   8.568
   11        0.326   6.455   1.791   8.571
   12        0.323   6.454   1.805   8.582
   13        0.322   6.460   1.782   8.564
   14        0.327   6.461   1.807   8.595
   15        0.317   6.464   1.743   8.524
   16        0.319   6.452   1.785   8.557
   17        0.320   6.459   1.776   8.554
   18        0.328   6.458   1.811   8.597
   19        0.319   6.455   1.778   8.552
   20        0.320   6.460   1.778   8.558
   21        0.328   6.458   1.804   8.589
   22        0.320   6.459   1.773   8.551
   23        0.316   6.462   1.781   8.559
   24        0.321   6.461   1.763   8.545
   25        0.321   6.453   1.796   8.570
   26        0.317   6.465   1.765   8.547
   27        0.329   6.456   1.819   8.604
   28        1.571   3.467   0.000   5.038
   29        1.570   3.473   0.000   5.044
   30        1.570   3.471   0.000   5.041
   31        1.569   3.472   0.000   5.042
   32        1.569   3.470   0.000   5.039
   33        1.569   3.476   0.000   5.045
   34        1.569   3.471   0.000   5.041
   35        1.571   3.470   0.000   5.041
   36        1.569   3.475   0.000   5.044
   37        1.570   3.471   0.000   5.041
   38        1.569   3.473   0.000   5.042
   39        1.571   3.468   0.000   5.039
   40        1.569   3.469   0.000   5.039
   41        1.569   3.475   0.000   5.045
   42        1.571   3.468   0.000   5.039
   43        1.570   3.468   0.000   5.037
   44        1.568   3.473   0.000   5.041
   45        1.569   3.477   0.000   5.046
   46        1.570   3.475   0.000   5.045
   47        1.570   3.473   0.000   5.043
   48        1.570   3.470   0.000   5.041
   49        1.568   3.472   0.000   5.041
   50        1.570   3.475   0.000   5.045
   51        1.570   3.469   0.000   5.039
   52        1.570   3.470   0.000   5.040
   53        1.570   3.472   0.000   5.042
   54        1.569   3.473   0.000   5.043
   55        1.729   4.380   0.000   6.110
   56        1.730   4.380   0.000   6.110
   57        1.730   4.378   0.000   6.108
   58        1.730   4.383   0.000   6.113
   59        1.730   4.381   0.000   6.111
   60        1.730   4.377   0.000   6.107
   61        1.730   4.379   0.000   6.109
   62        1.730   4.374   0.000   6.104
   63        1.730   4.379   0.000   6.109
   64        1.730   4.379   0.000   6.109
   65        1.731   4.378   0.000   6.109
   66        1.730   4.377   0.000   6.107
   67        1.730   4.382   0.000   6.111
   68        1.730   4.376   0.000   6.106
   69        1.729   4.380   0.000   6.110
   70        1.730   4.380   0.000   6.110
   71        1.730   4.378   0.000   6.108
   72        1.729   4.379   0.000   6.108
   73        1.730   4.378   0.000   6.108
   74        1.730   4.375   0.000   6.105
   75        1.730   4.381   0.000   6.111
   76        1.730   4.379   0.000   6.109
   77        1.730   4.376   0.000   6.106
   78        1.731   4.375   0.000   6.106
   79        1.729   4.378   0.000   6.107
   80        1.729   4.380   0.000   6.109
   81        1.730   4.381   0.000   6.110
   82        1.730   4.378   0.000   6.108
   83        1.730   4.379   0.000   6.109
   84        1.731   4.378   0.000   6.109
   85        1.730   4.380   0.000   6.110
   86        1.730   4.378   0.000   6.108
   87        1.730   4.383   0.000   6.113
   88        1.730   4.379   0.000   6.109
   89        1.730   4.380   0.000   6.110
   90        1.731   4.376   0.000   6.107
   91        1.730   4.379   0.000   6.109
   92        1.730   4.376   0.000   6.107
   93        1.729   4.380   0.000   6.109
   94        1.730   4.380   0.000   6.110
   95        1.730   4.383   0.000   6.113
   96        1.730   4.380   0.000   6.110
   97        1.729   4.378   0.000   6.108
   98        1.730   4.378   0.000   6.108
   99        1.730   4.379   0.000   6.109
  100        1.730   4.377   0.000   6.107
  101        1.729   4.377   0.000   6.106
  102        1.729   4.380   0.000   6.110
  103        1.729   4.378   0.000   6.107
  104        1.729   4.381   0.000   6.111
  105        1.730   4.381   0.000   6.110
  106        1.730   4.378   0.000   6.108
  107        1.730   4.377   0.000   6.107
  108        1.730   4.379   0.000   6.109
--------------------------------------------------
tot        144.476 504.607  48.094 697.177



 magnetization (x)

# of ion       s       p       d       tot
------------------------------------------
    1       -0.000   0.000   0.000   0.000
    2        0.000   0.000   0.000   0.000
    3        0.000  -0.000  -0.000  -0.000
    4        0.000   0.000   0.000   0.000
    5       -0.000  -0.000  -0.000  -0.000
    6        0.000  -0.000   0.000   0.000
    7        0.000   0.000   0.000   0.000
    8        0.000  -0.000   0.000   0.000
    9       -0.000  -0.000   0.000   0.000
   10        0.000  -0.000  -0.000  -0.000
   11        0.000  -0.000   0.000   0.000
   12       -0.000  -0.000  -0.000  -0.000
   13       -0.000  -0.000  -0.000  -0.000
   14       -0.000   0.000   0.000  -0.000
   15        0.000   0.000  -0.000   0.000
   16        0.000   0.000   0.000   0.000
   17        0.000   0.000   0.000   0.000
   18        0.000   0.000   0.000   0.000
   19       -0.000   0.000  -0.000  -0.000
   20        0.000   0.000   0.000   0.000
   21        0.000  -0.000   0.000   0.000
   22        0.000  -0.000  -0.000  -0.000
   23        0.000  -0.000  -0.000  -0.000
   24        0.000   0.000   0.000   0.000
   25        0.000   0.000  -0.000   0.000
   26        0.000   0.000   0.000   0.000
   27        0.000  -0.000  -0.000  -0.000
   28       -0.000   0.000   0.000  -0.000
   29       -0.000   0.000   0.000   0.000
   30       -0.000  -0.000   0.000  -0.000
   31        0.000  -0.000   0.000  -0.000
   32       -0.000  -0.000   0.000  -0.000
   33       -0.000   0.000   0.000   0.000
   34        0.000  -0.000   0.000  -0.000
   35        0.000   0.000   0.000   0.000
   36        0.000  -0.000   0.000   0.000
   37        0.000  -0.000   0.000  -0.000
   38        0.000   0.000   0.000   0.000
   39       -0.000  -0.000   0.000  -0.000
   40       -0.000   0.000   0.000   0.000
   41       -0.000  -0.000   0.000  -0.000
   42        0.000   0.000   0.000   0.000
   43       -0.000   0.000   0.000   0.000
   44       -0.000  -0.000   0.000  -0.000
   45        0.000  -0.000   0.000  -0.000
   46       -0.000   0.000   0.000   0.000
   47       -0.000  -0.000   0.000  -0.000
   48       -0.000  -0.000   0.000  -0.000
   49       -0.000  -0.000   0.000  -0.000
   50        0.000   0.000   0.000   0.000
   51        0.000  -0.000   0.000  -0.000
   52        0.000  -0.000   0.000  -0.000
   53        0.000   0.000   0.000   0.000
   54       -0.000  -0.000   0.000  -0.000
   55       -0.000  -0.000   0.000  -0.000
   56        0.000  -0.000   0.000  -0.000
   57       -0.000  -0.000   0.000  -0.000
   58        0.000   0.000   0.000   0.000
   59       -0.000  -0.000   0.000  -0.000
   60        0.000  -0.000   0.000  -0.000
   61       -0.000  -0.000   0.000  -0.000
   62       -0.000   0.000   0.000   0.000
   63       -0.000  -0.000   0.000  -0.000
   64        0.000  -0.000   0.000   0.000
   65        0.000  -0.000   0.000  -0.000
   66       -0.000  -0.000   0.000  -0.000
   67        0.000   0.000   0.000   0.000
   68       -0.000  -0.000   0.000  -0.000
   69        0.000  -0.000   0.000   0.000
   70       -0.000   0.000   0.000   0.000
   71        0.000  -0.000   0.000  -0.000
   72       -0.000  -0.000   0.000  -0.000
   73        0.000   0.000   0.000   0.000
   74        0.000  -0.000   0.000  -0.000
   75       -0.000   0.000   0.000   0.000
   76       -0.000   0.000   0.000   0.000
   77        0.000   0.000   0.000   0.000
   78       -0.000   0.000   0.000   0.000
   79       -0.000   0.000   0.000   0.000
   80        0.000   0.000   0.000   0.000
   81        0.000   0.000   0.000   0.000
   82       -0.000   0.000   0.000  -0.000
   83        0.000   0.000   0.000   0.000
   84        0.000   0.000   0.000   0.000
   85        0.000  -0.000   0.000  -0.000
   86        0.000   0.000   0.000   0.000
   87       -0.000  -0.000   0.000  -0.000
   88        0.000  -0.000   0.000  -0.000
   89        0.000   0.000   0.000   0.000
   90       -0.000   0.000   0.000   0.000
   91       -0.000  -0.000   0.000  -0.000
   92       -0.000  -0.000   0.000  -0.000
   93       -0.000   0.000   0.000  -0.000
   94        0.000   0.000   0.000   0.000
   95       -0.000  -0.000   0.000  -0.000
   96       -0.000  -0.000   0.000  -0.000
   97        0.000  -0.000   0.000  -0.000
   98        0.000   0.000   0.000   0.000
   99        0.000  -0.000   0.000  -0.000
  100        0.000   0.000   0.000   0.000
  101       -0.000   0.000   0.000  -0.000
  102       -0.000   0.000   0.000   0.000
  103       -0.000   0.000   0.000   0.000
  104       -0.000  -0.000   0.000  -0.000
  105        0.000  -0.000   0.000  -0.000
  106       -0.000  -0.000   0.000  -0.000
  107       -0.000  -0.000   0.000  -0.000
  108        0.000  -0.000   0.000  -0.000
--------------------------------------------------
tot         -0.000  -0.000   0.000  -0.000
 

 total amount of memory used by VASP MPI-rank0   297755. kBytes
=======================================================================

   base      :      30000. kBytes
   nonlr-proj:      25356. kBytes
   fftplans  :      18873. kBytes
   grid      :      21088. kBytes
   one-center:        435. kBytes
   wavefun   :     202003. kBytes
 
  
  
 General timing and accounting informations for this job:
 ========================================================
  
                  Total CPU time used (sec):      378.353
                            User time (sec):      357.811
                          System time (sec):       20.542
                         Elapsed time (sec):      423.388
  
                   Maximum memory used (kb):      816028.
                   Average memory used (kb):          N/A
  
                          Minor page faults:       139237
                          Major page faults:           11
                 Voluntary context switches:         7039
