 vasp.5.4.4.18Apr17-6-g9f103f2a35 (build Jul 16 2019 12:12:28) complex          
  
 executed on             LinuxIFC date 2020.01.06  10:19:16
 running on   96 total cores
 distrk:  each k-point on   96 cores,    1 groups
 distr:  one band on NCORES_PER_BAND=   8 cores,   12 groups


--------------------------------------------------------------------------------------------------------


 INCAR:
 POTCAR:    PAW_PBE Li_sv 10Sep2004               
 POTCAR:    PAW_PBE Ti_pv 07Sep2000               
 POTCAR:    PAW_PBE O 08Apr2002                   
 POTCAR:    PAW_PBE F 08Apr2002                   
 POTCAR:    PAW_PBE Li_sv 10Sep2004               
   VRHFIN =Li: 1s2s2p                                                           
   LEXCH  = PE                                                                  
   EATOM  =   202.7858 eV,   14.9043 Ry                                         
                                                                                
   TITEL  = PAW_PBE Li_sv 10Sep2004                                             
   LULTRA =        F    use ultrasoft PP ?                                      
   IUNSCR =        0    unscreen: 0-lin 1-nonlin 2-no                           
   RPACOR =    0.000    partial core radius                                     
   POMASS =    7.010; ZVAL   =    3.000    mass and valenz                      
   RCORE  =    1.700    outmost cutoff radius                                   
   RWIGS  =    2.050; RWIGS  =    1.085    wigner-seitz radius (au A)           
   ENMAX  =  499.034; ENMIN  =  374.276 eV                                      
   ICORE  =        2    local potential                                         
   LCOR   =        T    correct aug charges                                     
   LPAW   =        T    paw PP                                                  
   EAUG   =  628.945                                                            
   RMAX   =    1.732    core radius for proj-oper                               
   RAUG   =    1.300    factor for augmentation sphere                          
   RDEP   =    1.728    radius for radial grids                                 
   RDEPT  =    1.329    core radius for aug-charge                              
                                                                                
   Atomic configuration                                                         
    4 entries                                                                   
     n  l   j            E        occ.                                          
     1  0  0.50       -51.8549   2.0000                                         
     2  0  0.50        -2.8742   1.0000                                         
     2  1  0.50        -1.3606   0.0000                                         
     3  2  1.50        -1.3606   0.0000                                         
   Description                                                                  
     l       E           TYP  RCUT    TYP  RCUT                                 
     0    -51.8548813     23  1.400                                             
     0     -2.8742052     23  1.700                                             
     1     -1.3605826     23  1.400                                             
     2     -1.3605826     23  1.400                                             
  local pseudopotential read in
  atomic valenz-charges read in
  non local Contribution for L=           0  read in
    real space projection operators read in
  non local Contribution for L=           0  read in
    real space projection operators read in
  non local Contribution for L=           1  read in
    real space projection operators read in
    PAW grid and wavefunctions read in
 
   number of l-projection  operators is LMAX  =           3
   number of lm-projection operators is LMMAX =           5
 
 POTCAR:    PAW_PBE Ti_pv 07Sep2000               
   VRHFIN =Ti: d3 s1                                                            
   LEXCH  = PE                                                                  
   EATOM  =  1042.5995 eV,   76.6289 Ry                                         
                                                                                
   TITEL  = PAW_PBE Ti_pv 07Sep2000                                             
   LULTRA =        F    use ultrasoft PP ?                                      
   IUNSCR =        1    unscreen: 0-lin 1-nonlin 2-no                           
   RPACOR =    2.200    partial core radius                                     
   POMASS =   47.880; ZVAL   =   10.000    mass and valenz                      
   RCORE  =    2.500    outmost cutoff radius                                   
   RWIGS  =    2.500; RWIGS  =    1.323    wigner-seitz radius (au A)           
   ENMAX  =  222.335; ENMIN  =  166.751 eV                                      
   RCLOC  =    1.701    cutoff for local pot                                    
   LCOR   =        T    correct aug charges                                     
   LPAW   =        T    paw PP                                                  
   EAUG   =  482.848                                                            
   DEXC   =    0.000                                                            
   RMAX   =    2.564    core radius for proj-oper                               
   RAUG   =    1.300    factor for augmentation sphere                          
   RDEP   =    2.538    radius for radial grids                                 
   RDEPT  =    1.952    core radius for aug-charge                              
                                                                                
   Atomic configuration                                                         
    8 entries                                                                   
     n  l   j            E        occ.                                          
     1  0  0.50     -4865.3608   2.0000                                         
     2  0  0.50      -533.1368   2.0000                                         
     2  1  1.50      -440.5031   6.0000                                         
     3  0  0.50       -59.3186   2.0000                                         
     3  1  1.50       -35.7012   6.0000                                         
     3  2  2.50        -1.9157   3.0000                                         
     4  0  0.50        -3.7291   1.0000                                         
     4  3  2.50        -1.3606   0.0000                                         
   Description                                                                  
     l       E           TYP  RCUT    TYP  RCUT                                 
     1    -35.7012140     23  2.300                                             
     1     -1.3605826     23  2.300                                             
     2     -1.9156996     23  2.500                                             
     2     -0.4063033     23  2.500                                             
     0     -3.7290856     23  2.500                                             
     0     20.4087390     23  2.500                                             
  local pseudopotential read in
  partial core-charges read in
  partial kinetic energy density read in
  atomic valenz-charges read in
  non local Contribution for L=           1  read in
    real space projection operators read in
  non local Contribution for L=           1  read in
    real space projection operators read in
  non local Contribution for L=           2  read in
    real space projection operators read in
  non local Contribution for L=           2  read in
    real space projection operators read in
  non local Contribution for L=           0  read in
    real space projection operators read in
  non local Contribution for L=           0  read in
    real space projection operators read in
    PAW grid and wavefunctions read in
 
   number of l-projection  operators is LMAX  =           6
   number of lm-projection operators is LMMAX =          18
 
 POTCAR:    PAW_PBE O 08Apr2002                   
   VRHFIN =O: s2p4                                                              
   LEXCH  = PE                                                                  
   EATOM  =   432.3788 eV,   31.7789 Ry                                         
                                                                                
   TITEL  = PAW_PBE O 08Apr2002                                                 
   LULTRA =        F    use ultrasoft PP ?                                      
   IUNSCR =        1    unscreen: 0-lin 1-nonlin 2-no                           
   RPACOR =    1.200    partial core radius                                     
   POMASS =   16.000; ZVAL   =    6.000    mass and valenz                      
   RCORE  =    1.520    outmost cutoff radius                                   
   RWIGS  =    1.550; RWIGS  =    0.820    wigner-seitz radius (au A)           
   ENMAX  =  400.000; ENMIN  =  300.000 eV                                      
   ICORE  =        2    local potential                                         
   LCOR   =        T    correct aug charges                                     
   LPAW   =        T    paw PP                                                  
   EAUG   =  605.392                                                            
   DEXC   =    0.000                                                            
   RMAX   =    1.553    core radius for proj-oper                               
   RAUG   =    1.300    factor for augmentation sphere                          
   RDEP   =    1.550    radius for radial grids                                 
   RDEPT  =    1.329    core radius for aug-charge                              
                                                                                
   Atomic configuration                                                         
    4 entries                                                                   
     n  l   j            E        occ.                                          
     1  0  0.50      -514.6923   2.0000                                         
     2  0  0.50       -23.9615   2.0000                                         
     2  1  0.50        -9.0305   4.0000                                         
     3  2  1.50        -9.5241   0.0000                                         
   Description                                                                  
     l       E           TYP  RCUT    TYP  RCUT                                 
     0    -23.9615318     23  1.200                                             
     0     -9.5240782     23  1.200                                             
     1     -9.0304911     23  1.520                                             
     1      8.1634956     23  1.520                                             
     2     -9.5240782      7  1.500                                             
  local pseudopotential read in
  partial core-charges read in
  partial kinetic energy density read in
  kinetic energy density of atom read in
  atomic valenz-charges read in
  non local Contribution for L=           0  read in
    real space projection operators read in
  non local Contribution for L=           0  read in
    real space projection operators read in
  non local Contribution for L=           1  read in
    real space projection operators read in
  non local Contribution for L=           1  read in
    real space projection operators read in
    PAW grid and wavefunctions read in
 
   number of l-projection  operators is LMAX  =           4
   number of lm-projection operators is LMMAX =           8
 
 POTCAR:    PAW_PBE F 08Apr2002                   
   VRHFIN =F: s2p5                                                              
   LEXCH  = PE                                                                  
   EATOM  =   659.6475 eV,   48.4827 Ry                                         
                                                                                
   TITEL  = PAW_PBE F 08Apr2002                                                 
   LULTRA =        F    use ultrasoft PP ?                                      
   IUNSCR =        1    unscreen: 0-lin 1-nonlin 2-no                           
   RPACOR =    1.200    partial core radius                                     
   POMASS =   18.998; ZVAL   =    7.000    mass and valenz                      
   RCORE  =    1.520    outmost cutoff radius                                   
   RWIGS  =    1.500; RWIGS  =    0.794    wigner-seitz radius (au A)           
   ENMAX  =  400.000; ENMIN  =  300.000 eV                                      
   ICORE  =        2    local potential                                         
   LCOR   =        T    correct aug charges                                     
   LPAW   =        T    paw PP                                                  
   EAUG   =  613.614                                                            
   RMAX   =    1.555    core radius for proj-oper                               
   RAUG   =    1.300    factor for augmentation sphere                          
   RDEP   =    1.539    radius for radial grids                                 
   RDEPT  =    1.299    core radius for aug-charge                              
                                                                                
   Atomic configuration                                                         
    4 entries                                                                   
     n  l   j            E        occ.                                          
     1  0  0.50      -663.3661   2.0000                                         
     2  0  0.50       -29.8995   2.0000                                         
     2  1  0.50       -11.1114   5.0000                                         
     3  2  1.50       -10.8847   0.0000                                         
   Description                                                                  
     l       E           TYP  RCUT    TYP  RCUT                                 
     0    -29.8995018     23  1.200                                             
     0     -9.5240782     23  1.200                                             
     1    -11.1113914     23  1.520                                             
     1      1.3605826     23  1.520                                             
     2    -10.8846608      7  1.500                                             
  local pseudopotential read in
  partial core-charges read in
  partial kinetic energy density read in
  atomic valenz-charges read in
  non local Contribution for L=           0  read in
    real space projection operators read in
  non local Contribution for L=           0  read in
    real space projection operators read in
  non local Contribution for L=           1  read in
    real space projection operators read in
  non local Contribution for L=           1  read in
    real space projection operators read in
    PAW grid and wavefunctions read in
 
   number of l-projection  operators is LMAX  =           4
   number of lm-projection operators is LMMAX =           8
 
 Optimization of the real space projectors (new method)

 maximal supplied QI-value         = 22.11
 optimisation between [QCUT,QGAM] = [ 11.28, 22.77] = [ 35.61,145.23] Ry 
 Optimized for a Real-space Cutoff    1.31 Angstroem

   l    n(q)    QCUT    max X(q) W(low)/X(q) W(high)/X(q)  e(spline) 
   0      9    11.276    10.506    0.19E-04    0.17E-04    0.32E-07
   0      9    11.276     8.367    0.38E-04    0.40E-04    0.65E-07
   1      8    11.276     8.983    0.55E-04    0.98E-04    0.20E-06
 Optimization of the real space projectors (new method)

 maximal supplied QI-value         = 15.12
 optimisation between [QCUT,QGAM] = [ 11.34, 22.83] = [ 36.00,145.93] Ry 
 Optimized for a Real-space Cutoff    1.56 Angstroem

   l    n(q)    QCUT    max X(q) W(low)/X(q) W(high)/X(q)  e(spline) 
   1     10    11.338     4.216    0.27E-04    0.12E-04    0.66E-07
   1     10    11.338     5.422    0.81E-04    0.24E-04    0.19E-06
   2     10    11.338    72.084    0.64E-04    0.21E-03    0.51E-06
   2     10    11.338    65.965    0.63E-04    0.21E-03    0.50E-06
   0     11    11.338    41.531    0.33E-04    0.54E-04    0.13E-06
   0     11    11.338    16.290    0.26E-04    0.41E-04    0.11E-06
 Optimization of the real space projectors (new method)

 maximal supplied QI-value         = 24.76
 optimisation between [QCUT,QGAM] = [ 11.39, 22.77] = [ 36.31,145.25] Ry 
 Optimized for a Real-space Cutoff    1.20 Angstroem

   l    n(q)    QCUT    max X(q) W(low)/X(q) W(high)/X(q)  e(spline) 
   0      8    11.387    20.381    0.89E-04    0.31E-03    0.27E-06
   0      8    11.387    15.268    0.93E-04    0.32E-03    0.29E-06
   1      8    11.387     5.964    0.53E-04    0.28E-03    0.29E-06
   1      8    11.387     5.382    0.37E-04    0.22E-03    0.26E-06
 Optimization of the real space projectors (new method)

 maximal supplied QI-value         = 24.76
 optimisation between [QCUT,QGAM] = [ 11.39, 22.77] = [ 36.31,145.25] Ry 
 Optimized for a Real-space Cutoff    1.20 Angstroem

   l    n(q)    QCUT    max X(q) W(low)/X(q) W(high)/X(q)  e(spline) 
   0      8    11.387    14.049    0.69E-04    0.23E-03    0.18E-06
   0      8    11.387     8.945    0.88E-04    0.30E-03    0.26E-06
   1      8    11.387     7.086    0.62E-04    0.27E-03    0.27E-06
   1      8    11.387     6.747    0.46E-04    0.23E-03    0.25E-06

 ----------------------------------------------------------------------------- 
|                                                                             |
|  ADVICE TO THIS USER RUNNING 'VASP/VAMP'   (HEAR YOUR MASTER'S VOICE ...):  |
|                                                                             |
|      You enforced a specific xc-type in the INCAR file,                     |
|      a different type was found on the POTCAR file                          |
|          I HOPE YOU KNOW, WHAT YOU ARE  DOING                               |
|                                                                             |
 ----------------------------------------------------------------------------- 

  PAW_PBE Li_sv 10Sep2004               :
 energy of atom  1       EATOM= -202.7858
 kinetic energy error for atom=    0.0143 (will be added to EATOM!!)
  PAW_PBE Ti_pv 07Sep2000               :
 energy of atom  2       EATOM=-1042.5995
 kinetic energy error for atom=    0.0024 (will be added to EATOM!!)
  PAW_PBE O 08Apr2002                   :
 energy of atom  3       EATOM= -432.3788
 kinetic energy error for atom=    0.0224 (will be added to EATOM!!)
  PAW_PBE F 08Apr2002                   :
 energy of atom  4       EATOM= -659.6475
 kinetic energy error for atom=    0.0354 (will be added to EATOM!!)
 
 
 POSCAR: config 06                               
  positions in direct lattice
  velocities in cartesian coordinates
 exchange correlation table for  LEXCH =       14
   RHO(1)=    0.500       N(1)  =     2000
   RHO(2)=  100.500       N(2)  =     4000

 VTST: version 3.2, (02/03/18)

 CHAIN: initializing optimizer
 
 OPT: Using VASP QUASI-newton optimizer
 CHAIN: Read ICHAIN            0
 
 POSCAR: config 06                               
  positions in direct lattice
  velocities in cartesian coordinates
 


--------------------------------------------------------------------------------------------------------


 ion  position               nearest neighbor table
   1  0.164  0.389  0.382- 127 1.97 129 2.01
   2  0.995  0.995  0.994- 118 1.87  68 1.88 103 1.89 171 2.03 212 2.04 130 2.04
   3  0.000  0.993  0.494-  67 1.83 119 1.83 172 1.95 193 1.96 213 1.97 131 2.03
   4  0.005  0.496  0.997-  89 1.85 117 1.85 138 1.93 132 1.98 214 2.02 194 2.03
   5  0.994  0.502  0.507-  66 1.83 104 1.84 215 1.93 223 1.94 137 2.05 173 2.05
   6  0.494  0.994  0.000- 101 1.83 121 1.85 140 1.96 133 1.97 216 2.02 174 2.02
   7  0.500  0.008  0.499- 112 1.77 191 1.90 134 1.92 139 1.92 175 1.93 225 2.02
   8  0.504  0.496  0.996-  70 1.88  90 1.88 120 1.88 192 2.03 135 2.04 217 2.05
   9  0.493  0.498  0.495- 102 1.82  69 1.86 224 1.96 218 1.98 136 2.01 176 2.03
  10  0.007  0.004  0.256-  91 1.84  67 1.85 219 1.95 227 1.97 130 2.00 197 2.07
  11  0.002  0.007  0.757-  68 1.80 113 1.84 177 1.95 198 1.98 131 2.04 228 2.04
  12  0.994  0.492  0.250- 122 1.83 107 1.83 137 1.94 132 1.96 220 2.03 178 2.05
  13  0.993  0.500  0.741- 108 1.82  66 1.82 226 1.93 221 1.96 138 2.02 179 2.05
  14  0.505  0.010  0.251- 114 1.82  92 1.83 133 1.93 139 1.98 195 2.01 231 2.06
  15  0.493  0.005  0.752- 105 1.81 115 1.83 140 1.93 134 2.00 232 2.01 180 2.03
  16  0.494  0.496  0.257-  69 1.82 106 1.87 229 1.95 222 2.00 135 2.01 181 2.02
  17  0.501  0.504  0.759-  70 1.80 116 1.87 182 1.94 196 1.97 230 2.03 136 2.08
  18  0.996  0.258  0.002- 117 1.83 110 1.88 141 1.93 146 1.97 183 2.01 212 2.02
  19  0.999  0.247  0.495-  74 1.90 213 1.99 142 2.00 202 2.01 184 2.02 223 2.04
  20  0.998  0.758  0.006- 118 1.81  71 1.86 203 1.95 185 1.98 148 2.04 214 2.06
  21  0.998  0.757  0.506- 119 1.81  72 1.84 204 1.95 186 1.97 147 2.03 215 2.03
  22  0.495  0.259  0.001- 120 1.80 109 1.85 150 1.96 143 1.98 187 2.02 216 2.07
  23  0.509  0.245  0.499-  93 1.78 112 1.90 144 1.93 149 1.94 224 1.98 199 2.01
  24  0.507  0.756  0.999-  94 1.82 121 1.84 152 1.94 145 1.99 217 2.02 200 2.02
  25  0.507  0.752  0.509-  73 1.79  95 1.83 225 1.95 218 1.96 201 2.01 151 2.07
  26  0.000  0.258  0.258-  74 1.78 122 1.85 209 1.96 188 1.99 141 2.03 219 2.03
  27  0.007  0.243  0.748- 113 1.80  96 1.84 142 1.94 146 1.96 210 2.05 226 2.05
  28  0.006  0.748  0.243-  71 1.81  97 1.84 220 1.95 227 1.98 147 2.04 211 2.06
  29  0.993  0.750  0.743- 111 1.83  72 1.83 228 1.93 221 1.97 189 2.02 148 2.03
  30  0.508  0.241  0.252-  98 1.81 114 1.83 143 1.93 149 1.96 229 2.03 205 2.05
  31  0.507  0.243  0.750-  99 1.83 115 1.84 150 1.93 144 1.98 206 2.02 230 2.02
  32  0.506  0.751  0.252- 100 1.79 151 1.92 231 1.94 145 1.94 222 1.95 207 2.01
  33  0.502  0.742  0.744- 116 1.81  73 1.84 190 1.93 208 1.97 152 2.02 232 2.06
  34  0.256  0.998  0.006-  75 1.84 101 1.86 246 1.94 233 1.97 171 2.01 157 2.04
  35  0.250  0.993  0.506- 128 1.83  76 1.84 172 1.93 191 1.98 156 2.03 234 2.03
  36  0.243  0.508  0.998- 123 1.82  89 1.83 159 1.93 153 1.99 192 2.02 245 2.04
  37  0.256  0.495  0.509-  77 1.83 102 1.85 127 1.92 235 2.01 173 2.04 158 2.10
  38  0.757  0.000  0.994- 103 1.79  81 1.87 236 1.96 249 1.96 154 2.05 174 2.05
  39  0.750  0.006  0.495- 124 1.83  80 1.84 193 1.92 175 1.99 155 2.00 250 2.03
  40  0.741  0.501  0.005-  90 1.80  78 1.87 237 1.95 247 1.96 161 2.03 194 2.05
  41  0.756  0.496  0.505-  79 1.84 104 1.85 248 1.94 238 1.98 176 2.02 160 2.03
  42  0.245  0.003  0.244-  75 1.83  91 1.84 239 1.96 252 1.97 156 2.04 195 2.06
  43  0.258  0.998  0.745- 105 1.83  76 1.84 253 1.93 240 1.97 177 2.01 157 2.02
  44  0.256  0.492  0.250- 106 1.81 129 1.88 153 1.95 158 1.95 241 2.02 178 2.06
  45  0.247  0.506  0.742-  77 1.81 125 1.82 179 1.94 196 1.97 251 2.03 159 2.04
  46  0.744  0.002  0.256-  80 1.85  92 1.86 256 1.95 242 1.96 154 2.00 197 2.00
  47  0.748  0.007  0.756-  81 1.82 126 1.84 180 1.95 198 1.96 257 2.04 155 2.06
  48  0.756  0.498  0.243-  78 1.82 107 1.84 243 1.96 254 1.96 160 2.04 181 2.04
  49  0.757  0.498  0.742- 108 1.83  79 1.84 255 1.93 244 1.98 182 2.03 161 2.04
  50  0.258  0.253  0.005- 109 1.82  82 1.87 245 1.94 233 1.97 168 2.01 183 2.04
  51  0.253  0.257  0.507-  83 1.83 127 1.86 184 1.93 199 1.95 234 2.04 167 2.07
  52  0.252  0.742  0.994- 123 1.82  86 1.84 200 1.94 185 1.96 162 2.04 246 2.04
  53  0.251  0.755  0.492-  85 1.83 128 1.85 201 1.95 186 1.96 235 2.03 163 2.04
  54  0.758  0.252  0.006- 110 1.80  84 1.85 236 1.94 247 1.95 170 2.03 187 2.04
  55  0.744  0.242  0.499- 124 1.82  93 1.86 169 1.93 202 1.94 164 1.96 248 2.03
  56  0.741  0.749  0.994-  94 1.82  88 1.83 237 1.95 249 1.95 203 2.02 165 2.04
  57  0.742  0.751  0.494-  95 1.82  87 1.86 250 1.94 238 1.96 166 2.02 204 2.02
  58  0.251  0.259  0.243-  82 1.81 129 1.87 205 1.96 188 1.97 239 2.03 167 2.04
  59  0.244  0.253  0.744-  96 1.83  83 1.85 251 1.94 240 1.98 168 2.02 206 2.04
  60  0.243  0.747  0.256-  97 1.82  85 1.84 241 1.96 252 1.98 162 2.03 207 2.06
  61  0.248  0.741  0.756- 125 1.82  86 1.84 189 1.93 208 1.97 253 2.04 163 2.04
  62  0.743  0.251  0.241-  84 1.79  98 1.84 254 1.94 242 1.95 209 2.03 169 2.05
  63  0.744  0.242  0.750- 126 1.82  99 1.84 170 1.94 164 1.99 210 2.02 255 2.05
  64  0.745  0.749  0.257-  87 1.81 100 1.90 243 1.94 256 1.95 211 1.98 165 2.02
  65  0.757  0.750  0.756- 111 1.81  88 1.84 257 1.93 244 1.97 190 2.03 166 2.05
  66  0.010  0.503  0.625-  13 1.82   5 1.83
  67  0.998  0.004  0.376-   3 1.83  10 1.85
  68  0.002  0.002  0.873-  11 1.80   2 1.88
  69  0.498  0.490  0.375-  16 1.82   9 1.86
  70  0.493  0.494  0.875-  17 1.80   8 1.88
  71  1.000  0.746  0.126-  28 1.81  20 1.86
  72  0.003  0.746  0.624-  29 1.83  21 1.84
  73  0.503  0.748  0.625-  25 1.79  33 1.84
  74  0.005  0.251  0.373-  26 1.78  19 1.90
  75  0.256  0.997  0.126-  42 1.83  34 1.84
  76  0.256  0.997  0.625-  35 1.84  43 1.84
  77  0.239  0.486  0.626-  45 1.81  37 1.83
  78  0.748  0.489  0.125-  48 1.82  40 1.87
  79  0.745  0.491  0.624-  49 1.84  41 1.84
  80  0.748  0.003  0.376-  39 1.84  46 1.85
  81  0.744  0.002  0.873-  47 1.82  38 1.87
  82  0.251  0.261  0.126-  58 1.81  50 1.87
  83  0.259  0.260  0.626-  51 1.83  59 1.85
  84  0.747  0.262  0.126-  62 1.79  54 1.85
  85  0.255  0.741  0.375-  53 1.83  60 1.84
  86  0.253  0.744  0.875-  61 1.84  52 1.84
  87  0.753  0.747  0.374-  64 1.81  57 1.86
  88  0.750  0.748  0.875-  56 1.83  65 1.84
  89  0.125  0.507  0.993-  36 1.83   4 1.85
  90  0.625  0.510  0.997-  40 1.80   8 1.88
  91  0.126  0.010  0.250-  10 1.84  42 1.84
  92  0.624  0.010  0.248-  14 1.83  46 1.86
  93  0.624  0.252  0.501-  23 1.78  55 1.86
  94  0.624  0.739  0.001-  56 1.82  24 1.82
  95  0.624  0.757  0.495-  57 1.82  25 1.83
  96  0.126  0.254  0.746-  59 1.83  27 1.84
  97  0.125  0.743  0.253-  60 1.82  28 1.84
  98  0.625  0.237  0.254-  30 1.81  62 1.84
  99  0.625  0.254  0.744-  31 1.83  63 1.84
 100  0.622  0.745  0.252-  32 1.79  64 1.90
 101  0.376  0.997  0.992-   6 1.83  34 1.86
 102  0.376  0.499  0.505-   9 1.82  37 1.85
 103  0.873  0.998  0.998-  38 1.79   2 1.89
 104  0.875  0.497  0.500-   5 1.84  41 1.85
 105  0.376  0.998  0.759-  15 1.81  43 1.83
 106  0.374  0.487  0.247-  44 1.81  16 1.87
 107  0.875  0.489  0.251-  12 1.83  48 1.84
 108  0.875  0.508  0.745-  13 1.82  49 1.83
 109  0.376  0.252  0.999-  50 1.82  22 1.85
 110  0.874  0.252  0.000-  54 1.80  18 1.88
 111  0.875  0.742  0.748-  65 1.81  29 1.83
 112  0.505  0.122  0.491-   7 1.77  23 1.90
 113  0.999  0.126  0.744-  27 1.80  11 1.84
 114  0.487  0.125  0.266-  14 1.82  30 1.83
 115  0.503  0.124  0.753-  15 1.83  31 1.84
 116  0.503  0.625  0.754-  33 1.81  17 1.87
 117  0.003  0.376  0.004-  18 1.83   4 1.85
 118  0.005  0.875  0.001-  20 1.81   2 1.87
 119  0.001  0.874  0.499-  21 1.81   3 1.83
 120  0.505  0.374  0.010-  22 1.80   8 1.88
 121  0.507  0.875  0.008-  24 1.84   6 1.85
 122  0.016  0.376  0.246-  12 1.83  26 1.85
 123  0.258  0.625  0.011-  52 1.82  36 1.82
 124  0.746  0.124  0.508-  55 1.82  39 1.83
 125  0.246  0.624  0.741-  61 1.82  45 1.82
 126  0.749  0.125  0.741-  63 1.82  47 1.84
 127  0.241  0.374  0.482-  51 1.86  37 1.92   1 1.97
 128  0.250  0.875  0.494-  35 1.83  53 1.85
 129  0.230  0.375  0.270-  58 1.87  44 1.88   1 2.01
 130  0.998  0.003  0.126-  10 2.00   2 2.04
 131  0.002  0.995  0.625-   3 2.03  11 2.04
 132  0.002  0.511  0.124-  12 1.96   4 1.98
 133  0.492  0.011  0.127-  14 1.93   6 1.97
 134  0.494  0.001  0.623-   7 1.92  15 2.00
 135  0.502  0.510  0.128-  16 2.01   8 2.04
 136  0.508  0.505  0.624-   9 2.01  17 2.08
 137  0.004  0.496  0.375-  12 1.94   5 2.05
 138  0.994  0.499  0.872-   4 1.93  13 2.02
 139  0.507  0.985  0.376-   7 1.92  14 1.98
 140  0.516  0.994  0.875-  15 1.93   6 1.96
 141  0.002  0.246  0.126-  18 1.93  26 2.03
 142  0.994  0.260  0.624-  27 1.94  19 2.00
 143  0.500  0.236  0.127-  30 1.93  22 1.98
 144  0.490  0.242  0.623-  23 1.93  31 1.98
 145  0.496  0.742  0.127-  32 1.94  24 1.99
 146  0.000  0.251  0.875-  27 1.96  18 1.97
 147  0.993  0.751  0.375-  21 2.03  28 2.04
 148  1.000  0.751  0.874-  29 2.03  20 2.04
 149  0.499  0.267  0.376-  23 1.94  30 1.96
 150  0.504  0.257  0.875-  31 1.93  22 1.96
 151  0.491  0.759  0.376-  32 1.92  25 2.07
 152  0.496  0.757  0.874-  24 1.94  33 2.02
 153  0.243  0.484  0.124-  44 1.95  36 1.99
 154  0.751  0.999  0.126-  46 2.00  38 2.05
 155  0.749  0.992  0.623-  39 2.00  47 2.06
 156  0.251  0.008  0.376-  35 2.03  42 2.04
 157  0.242  0.003  0.875-  43 2.02  34 2.04
 158  0.246  0.511  0.374-  44 1.95  37 2.10
 159  0.260  0.508  0.873-  36 1.93  45 2.04
 160  0.748  0.508  0.374-  41 2.03  48 2.04
 161  0.753  0.508  0.874-  40 2.03  49 2.04
 162  0.250  0.760  0.125-  60 2.03  52 2.04
 163  0.247  0.757  0.625-  61 2.04  53 2.04
 164  0.754  0.263  0.624-  55 1.96  63 1.99
 165  0.750  0.752  0.126-  64 2.02  56 2.04
 166  0.746  0.751  0.624-  57 2.02  65 2.05
 167  0.245  0.240  0.374-  58 2.04  51 2.07
 168  0.249  0.244  0.875-  50 2.01  59 2.02
 169  0.754  0.240  0.373-  55 1.93  62 2.05
 170  0.748  0.242  0.876-  63 1.94  54 2.03
 171  0.126  0.005  0.004-  34 2.01   2 2.03
 172  0.126  0.008  0.501-  35 1.93   3 1.95
 173  0.125  0.504  0.487-  37 2.04   5 2.05
 174  0.625  0.006  0.009-   6 2.02  38 2.05
 175  0.623  0.987  0.505-   7 1.93  39 1.99
 176  0.625  0.498  0.496-  41 2.02   9 2.03
 177  0.127  0.998  0.746-  11 1.95  43 2.01
 178  0.125  0.514  0.252-  12 2.05  44 2.06
 179  0.124  0.493  0.764-  45 1.94  13 2.05
 180  0.623  0.993  0.739-  47 1.95  15 2.03
 181  0.624  0.508  0.251-  16 2.02  48 2.04
 182  0.626  0.492  0.756-  17 1.94  49 2.03
 183  0.126  0.247  0.999-  18 2.01  50 2.04
 184  0.130  0.237  0.506-  51 1.93  19 2.02
 185  0.125  0.742  0.999-  52 1.96  20 1.98
 186  0.125  0.745  0.495-  53 1.96  21 1.97
 187  0.626  0.245  0.999-  22 2.02  54 2.04
 188  0.126  0.231  0.247-  58 1.97  26 1.99
 189  0.124  0.755  0.753-  61 1.93  29 2.02
 190  0.626  0.756  0.752-  33 1.93  65 2.03
 191  0.377  0.002  0.492-   7 1.90  35 1.98
 192  0.373  0.493  0.008-  36 2.02   8 2.03
 193  0.874  0.998  0.505-  39 1.92   3 1.96
 194  0.874  0.495  0.000-   4 2.03  40 2.05
 195  0.377  0.990  0.258-  14 2.01  42 2.06
 196  0.374  0.500  0.740-  45 1.97  17 1.97
 197  0.873  0.992  0.249-  46 2.00  10 2.07
 198  0.874  0.996  0.745-  47 1.96  11 1.98
 199  0.379  0.251  0.492-  51 1.95  23 2.01
 200  0.376  0.760  0.003-  52 1.94  24 2.02
 201  0.377  0.746  0.504-  53 1.95  25 2.01
 202  0.869  0.254  0.499-  55 1.94  19 2.01
 203  0.872  0.758  0.001-  20 1.95  56 2.02
 204  0.872  0.746  0.504-  21 1.95  57 2.02
 205  0.377  0.266  0.253-  58 1.96  30 2.05
 206  0.376  0.249  0.756-  31 2.02  59 2.04
 207  0.376  0.756  0.246-  32 2.01  60 2.06
 208  0.375  0.753  0.747-  33 1.97  61 1.97
 209  0.873  0.264  0.250-  26 1.96  62 2.03
 210  0.874  0.252  0.752-  63 2.02  27 2.05
 211  0.873  0.757  0.248-  64 1.98  28 2.06
 212  0.000  0.127  0.000-  18 2.02   2 2.04
 213  0.992  0.119  0.511-   3 1.97  19 1.99
 214  0.990  0.626  0.994-   4 2.02  20 2.06
 215  0.999  0.626  0.492-   5 1.93  21 2.03
 216  0.501  0.125  0.993-   6 2.02  22 2.07
 217  0.487  0.627  0.997-  24 2.02   8 2.05
 218  0.503  0.626  0.492-  25 1.96   9 1.98
 219  0.985  0.127  0.246-  10 1.95  26 2.03
 220  0.990  0.623  0.257-  28 1.95  12 2.03
 221  0.012  0.625  0.756-  13 1.96  29 1.97
 222  0.491  0.625  0.259-  32 1.95  16 2.00
 223  0.013  0.379  0.497-   5 1.94  19 2.04
 224  0.499  0.372  0.512-   9 1.96  23 1.98
 225  0.491  0.877  0.504-  25 1.95   7 2.02
 226  0.995  0.375  0.752-  13 1.93  27 2.05
 227  0.004  0.876  0.250-  10 1.97  28 1.98
 228  0.998  0.875  0.749-  29 1.93  11 2.04
 229  0.512  0.372  0.238-  16 1.95  30 2.03
 230  0.495  0.374  0.740-  31 2.02  17 2.03
 231  0.504  0.876  0.242-  32 1.94  14 2.06
 232  0.500  0.875  0.748-  15 2.01  33 2.06
 233  0.250  0.126  0.003-  50 1.97  34 1.97
 234  0.258  0.125  0.503-  35 2.03  51 2.04
 235  0.249  0.625  0.510-  37 2.01  53 2.03
 236  0.748  0.126  0.007-  54 1.94  38 1.96
 237  0.763  0.625  0.007-  56 1.95  40 1.95
 238  0.746  0.624  0.505-  57 1.96  41 1.98
 239  0.266  0.128  0.247-  42 1.96  58 2.03
 240  0.250  0.125  0.748-  43 1.97  59 1.98
 241  0.259  0.623  0.237-  60 1.96  44 2.02
 242  0.767  0.126  0.244-  62 1.95  46 1.96
 243  0.757  0.625  0.243-  64 1.94  48 1.96
 244  0.738  0.624  0.744-  65 1.97  49 1.98
 245  0.246  0.377  0.988-  50 1.94  36 2.04
 246  0.242  0.874  0.996-  34 1.94  52 2.04
 247  0.743  0.375  0.985-  54 1.95  40 1.96
 248  0.748  0.373  0.486-  41 1.94  55 2.03
 249  0.740  0.875  0.003-  56 1.95  38 1.96
 250  0.756  0.875  0.499-  57 1.94  39 2.03
 251  0.255  0.377  0.766-  59 1.94  45 2.03
 252  0.246  0.876  0.258-  42 1.97  60 1.98
 253  0.249  0.873  0.754-  43 1.93  61 2.04
 254  0.736  0.374  0.266-  62 1.94  48 1.96
 255  0.756  0.374  0.760-  49 1.93  63 2.05
 256  0.743  0.875  0.249-  64 1.95  46 1.95
 257  0.752  0.875  0.748-  65 1.93  47 2.04
 

IMPORTANT INFORMATION: All symmetrisations will be switched off!
NOSYMM: (Re-)initialisation of all symmetry stuff for point group C_1.

 
 
 KPOINTS: Title                                   

Automatic generation of k-mesh.
Space group operators:
 irot       det(A)        alpha          n_x          n_y          n_z        tau_x        tau_y        tau_z
    1     1.000000     0.000001     1.000000     0.000000     0.000000     0.000000     0.000000     0.000000
 
 Subroutine IBZKPT returns following result:
 ===========================================
 
 Found      4 irreducible k-points:
 
 Following reciprocal coordinates:
            Coordinates               Weight
  0.250000  0.250000  0.250000      2.000000
 -0.250000  0.250000  0.250000      2.000000
  0.250000 -0.250000  0.250000      2.000000
 -0.250000 -0.250000  0.250000      2.000000
 
 Following cartesian coordinates:
            Coordinates               Weight
  0.016206  0.016206  0.016206      2.000000
 -0.016206  0.016206  0.016206      2.000000
  0.016206 -0.016206  0.016206      2.000000
 -0.016206 -0.016206  0.016206      2.000000
 


--------------------------------------------------------------------------------------------------------




 Dimension of arrays:
   k-points           NKPTS =      4   k-points in BZ     NKDIM =      4   number of bands    NBANDS=   1164
   number of dos      NEDOS =   3001   number of ions     NIONS =    257
   non local maximal  LDIM  =      6   non local SUM 2l+1 LMDIM =     18
   total plane-waves  NPLWV = ******
   max r-space proj   IRMAX =   7595   max aug-charges    IRDMAX= 146383
   dimension x,y,z NGX =   120 NGY =  120 NGZ =  120
   dimension x,y,z NGXF=   240 NGYF=  240 NGZF=  240
   support grid    NGXF=   480 NGYF=  480 NGZF=  480
   ions per type =               1  64  64 128
   NGX,Y,Z   is equivalent  to a cutoff of  12.93, 12.93, 12.93 a.u.
   NGXF,Y,Z  is equivalent  to a cutoff of  25.86, 25.86, 25.86 a.u.

 SYSTEM =  LTO                                     
 POSCAR =  config 06                               

 Startparameter for this run:
   NWRITE =      2    write-flag & timer
   PREC   = accura    normal or accurate (medium, high low for compatibility)
   ISTART =      1    job   : 0-new  1-cont  2-samecut
   ICHARG =      0    charge: 1-file 2-atom 10-const
   ISPIN  =      2    spin polarized calculation?
   LNONCOLLINEAR =      F non collinear calculations
   LSORBIT =      F    spin-orbit coupling
   INIWAV =      1    electr: 0-lowe 1-rand  2-diag
   LASPH  =      T    aspherical Exc in radial PAW
   METAGGA=      F    non-selfconsistent MetaGGA calc.

 Electronic Relaxation 1
   ENCUT  =  500.0 eV  36.75 Ry    6.06 a.u.  28.13 28.13 28.13*2*pi/ulx,y,z
   ENINI  =  500.0     initial cutoff
   ENAUG  =  628.9 eV  augmentation charge cutoff
   NELM   =     60;   NELMIN=  2; NELMDL=  0     # of ELM steps 
   EDIFF  = 0.1E-05   stopping-criterion for ELM
   LREAL  =      T    real-space projection
   NLSPLINE    = F    spline interpolate recip. space projectors
   LCOMPAT=      F    compatible to vasp.4.4
   GGA_COMPAT  = T    GGA compatible to vasp.4.4-vasp.4.6
   LMAXPAW     = -100 max onsite density
   LMAXMIX     =    4 max onsite mixed and CHGCAR
   VOSKOWN=      0    Vosko Wilk Nusair interpolation
   ROPT   =   -0.00010  -0.00010  -0.00010  -0.00010
 Ionic relaxation
   EDIFFG = -.5E-01   stopping-criterion for IOM
   NSW    =    100    number of steps for IOM
   NBLOCK =      1;   KBLOCK =    100    inner block; outer block 
   IBRION =      1    ionic relax: 0-MD 1-quasi-New 2-CG
   NFREE  =      0    steps in history (QN), initial steepest desc. (CG)
   ISIF   =      2    stress and relaxation
   IWAVPR =     11    prediction:  0-non 1-charg 2-wave 3-comb
   ISYM   =      0    0-nonsym 1-usesym 2-fastsym
   LCORR  =      T    Harris-Foulkes like correction to forces

   POTIM  = 0.5000    time-step for ionic-motion
   TEIN   =    0.0    initial temperature
   TEBEG  =    0.0;   TEEND  =   0.0 temperature during run
   SMASS  =  -3.00    Nose mass-parameter (am)
   estimated Nose-frequenzy (Omega)   =  0.10E-29 period in steps =****** mass=  -0.544E-26a.u.
   SCALEE = 1.0000    scale energy and forces
   NPACO  =    256;   APACO  = 16.0  distance and # of slots for P.C.
   PSTRESS=    0.0 pullay stress

  Mass of Ions in am
   POMASS =   7.01 47.88 16.00 19.00
  Ionic Valenz
   ZVAL   =   3.00 10.00  6.00  7.00
  Atomic Wigner-Seitz radii
   RWIGS  =  -1.00 -1.00 -1.00 -1.00
  virtual crystal weights 
   VCA    =   1.00  1.00  1.00  1.00
   NELECT =    1923.0000    total number of electrons
   NUPDOWN=       1.0000    fix difference up-down

 DOS related values:
   EMIN   =  10.00;   EMAX   =-10.00  energy-range for DOS
   EFERMI =   0.00
   ISMEAR =     0;   SIGMA  =   0.01  broadening in eV -4-tet -1-fermi 0-gaus

 Electronic relaxation 2 (details)
   IALGO  =     38    algorithm
   LDIAG  =      T    sub-space diagonalisation (order eigenvalues)
   LSUBROT=      F    optimize rotation matrix (better conditioning)
   TURBO    =      0    0=normal 1=particle mesh
   IRESTART =      0    0=no restart 2=restart with 2 vectors
   NREBOOT  =      0    no. of reboots
   NMIN     =      0    reboot dimension
   EREF     =   0.00    reference energy to select bands
   IMIX   =      4    mixing-type and parameters
     AMIX     =   0.40;   BMIX     =  1.00
     AMIX_MAG =   1.60;   BMIX_MAG =  1.00
     AMIN     =   0.10
     WC   =   100.;   INIMIX=   1;  MIXPRE=   1;  MAXMIX= -45

 Intra band minimization:
   WEIMIN = 0.0010     energy-eigenvalue tresh-hold
   EBREAK =  0.21E-09  absolut break condition
   DEPER  =   0.30     relativ break condition  

   TIME   =   0.40     timestep for ELM

  volume/ion in A,a.u.               =      14.28        96.39
  Fermi-wavevector in a.u.,A,eV,Ry     =   1.319690  2.493853 23.695660  1.741582
  Thomas-Fermi vector in A             =   2.449570
 
 Write flags
   LWAVE        =      T    write WAVECAR
   LDOWNSAMPLE  =      F    k-point downsampling of WAVECAR
   LCHARG       =      T    write CHGCAR
   LVTOT        =      F    write LOCPOT, total local potential
   LVHAR        =      F    write LOCPOT, Hartree potential only
   LELF         =      F    write electronic localiz. function (ELF)
   LORBIT       =     11    0 simple, 1 ext, 2 COOP (PROOUT), +10 PAW based schemes


 Dipole corrections
   LMONO  =      F    monopole corrections only (constant potential shift)
   LDIPOL =      F    correct potential (dipole corrections)
   IDIPOL =      0    1-x, 2-y, 3-z, 4-all directions 
   EPSILON=  1.0000000 bulk dielectric constant

 LDA+U is selected, type is set to LDAUTYPE =  2
   angular momentum for each species LDAUL =    -1    2   -1   -1
   U (eV)           for each species LDAUU =   0.0  4.2  0.0  0.0
   J (eV)           for each species LDAUJ =   0.0  0.0  0.0  0.0
 Exchange correlation treatment:
   GGA     =    PS    GGA type
   LEXCH   =    14    internal setting for exchange type
   VOSKOWN=      0    Vosko Wilk Nusair interpolation
   LHFCALC =     F    Hartree Fock is set to
   LHFONE  =     F    Hartree Fock one center treatment
   AEXX    =    0.0000 exact exchange contribution

 Linear response parameters
   LEPSILON=     F    determine dielectric tensor
   LRPA    =     F    only Hartree local field effects (RPA)
   LNABLA  =     F    use nabla operator in PAW spheres
   LVEL    =     F    velocity operator in full k-point grid
   LINTERFAST=   F  fast interpolation
   KINTER  =     0    interpolate to denser k-point grid
   CSHIFT  =0.1000    complex shift for real part using Kramers Kronig
   OMEGAMAX=  -1.0    maximum frequency
   DEG_THRESHOLD= 0.2000000E-02 threshold for treating states as degnerate
   RTIME   =   -0.100 relaxation time in fs
  (WPLASMAI=    0.000 imaginary part of plasma frequency in eV, 0.658/RTIME)
   DFIELD  = 0.0000000 0.0000000 0.0000000 field for delta impulse in time
 
 Orbital magnetization related:
   ORBITALMAG=     F  switch on orbital magnetization
   LCHIMAG   =     F  perturbation theory with respect to B field
   DQ        =  0.001000  dq finite difference perturbation B field
   LLRAUG    =     F  two centre corrections for induced B field



--------------------------------------------------------------------------------------------------------


 quasi-Newton-method for relaxation of ions
 charge density and potential will be updated during run
 spin polarized calculation
 Variant of blocked Davidson
 Davidson routine will perform the subspace rotation
 perform sub-space diagonalisation
    after iterative eigenvector-optimisation
 modified Broyden-mixing scheme, WC =      100.0
 initial mixing is a Kerker type mixing with AMIX =  0.4000 and BMIX =      1.0000
 Hartree-type preconditioning will be used
 using additional bands          202
 real space projection scheme for non local part
 use partial core corrections
 calculate Harris-corrections to forces 
   (improved forces if not selfconsistent)
 use gradient corrections 
 use of overlap-Matrix (Vanderbilt PP)
 Gauss-broadening in eV      SIGMA  =   0.01


--------------------------------------------------------------------------------------------------------


  energy-cutoff  :      500.00
  volume of cell :     3671.03
      direct lattice vectors                 reciprocal lattice vectors
    15.426331000  0.000000000  0.000000000     0.064824228  0.000000000  0.000000000
     0.000000000 15.426331000  0.000000000     0.000000000  0.064824228  0.000000000
     0.000000000  0.000000000 15.426331000     0.000000000  0.000000000  0.064824228

  length of vectors
    15.426331000 15.426331000 15.426331000     0.064824228  0.064824228  0.064824228


 
 old parameters found on file WAVECAR:
  energy-cutoff  :      500.00
  volume of cell :     3671.03
      direct lattice vectors                 reciprocal lattice vectors
    15.426331000  0.000000000  0.000000000     0.064824228  0.000000000  0.000000000
     0.000000000 15.426331000  0.000000000     0.000000000  0.064824228  0.000000000
     0.000000000  0.000000000 15.426331000     0.000000000  0.000000000  0.064824228

  length of vectors

 
 k-points in units of 2pi/SCALE and weight: Title                                   
   0.01620606  0.01620606  0.01620606       0.250
  -0.01620606  0.01620606  0.01620606       0.250
   0.01620606 -0.01620606  0.01620606       0.250
  -0.01620606 -0.01620606  0.01620606       0.250
 
 k-points in reciprocal lattice and weights: Title                                   
   0.25000000  0.25000000  0.25000000       0.250
  -0.25000000  0.25000000  0.25000000       0.250
   0.25000000 -0.25000000  0.25000000       0.250
  -0.25000000 -0.25000000  0.25000000       0.250
 
 position of ions in fractional coordinates (direct lattice) 
   0.16368649  0.38892967  0.38152200
   0.99535694  0.99533633  0.99429535
   0.00023407  0.99287323  0.49350239
   0.00543647  0.49593750  0.99688672
   0.99394073  0.50221728  0.50703549
   0.49423563  0.99410128  0.00013483
   0.50047142  0.00804763  0.49894116
   0.50398019  0.49564184  0.99611753
   0.49296753  0.49816945  0.49529210
   0.00665851  0.00355779  0.25577866
   0.00181164  0.00736702  0.75659334
   0.99377262  0.49194320  0.24957391
   0.99269682  0.49952745  0.74135274
   0.50548258  0.00955484  0.25069225
   0.49293860  0.00532126  0.75241593
   0.49403234  0.49569767  0.25721457
   0.50095521  0.50387798  0.75877569
   0.99565779  0.25793798  0.00230325
   0.99939125  0.24718281  0.49527481
   0.99785956  0.75821534  0.00600924
   0.99796980  0.75716203  0.50576308
   0.49531417  0.25861607  0.00096437
   0.50880741  0.24521748  0.49942094
   0.50704473  0.75648407  0.99947613
   0.50670390  0.75182917  0.50889559
   0.00002309  0.25785135  0.25764682
   0.00670134  0.24264793  0.74847649
   0.00629355  0.74756936  0.24299703
   0.99272476  0.75046238  0.74288062
   0.50758708  0.24111780  0.25163427
   0.50687525  0.24326048  0.75011700
   0.50622722  0.75086815  0.25205933
   0.50183185  0.74164195  0.74394643
   0.25643324  0.99803487  0.00627408
   0.25019791  0.99336561  0.50618063
   0.24326664  0.50849238  0.99762976
   0.25550845  0.49461707  0.50916380
   0.75682386  0.00030806  0.99394543
   0.75029407  0.00649521  0.49472705
   0.74122850  0.50054334  0.00500300
   0.75565620  0.49649725  0.50528524
   0.24456314  0.00299162  0.24383675
   0.25797166  0.99793328  0.74451075
   0.25635278  0.49222734  0.24955319
   0.24680846  0.50592327  0.74167949
   0.74417993  0.00167318  0.25571516
   0.74777472  0.00663197  0.75580000
   0.75607998  0.49752189  0.24252860
   0.75717784  0.49771949  0.74229670
   0.25776537  0.25302843  0.00497245
   0.25307935  0.25675239  0.50719514
   0.25185945  0.74163571  0.99448551
   0.25129110  0.75527404  0.49244497
   0.75755699  0.25164587  0.00645532
   0.74430486  0.24172760  0.49851679
   0.74143960  0.74881134  0.99373444
   0.74161712  0.75078840  0.49369238
   0.25066481  0.25885390  0.24317311
   0.24447096  0.25336030  0.74448129
   0.24344095  0.74748711  0.25594147
   0.24777010  0.74124509  0.75634836
   0.74260479  0.25058366  0.24145183
   0.74385402  0.24200304  0.75017610
   0.74528837  0.74911304  0.25667613
   0.75749752  0.74993789  0.75645742
   0.01013297  0.50332153  0.62450624
   0.99807082  0.00424732  0.37553096
   0.00172439  0.00206996  0.87284951
   0.49837470  0.48963037  0.37495544
   0.49325077  0.49364918  0.87481578
   0.99960786  0.74556733  0.12558573
   0.00270646  0.74564288  0.62448488
   0.50294375  0.74759327  0.62473953
   0.00512177  0.25144813  0.37255616
   0.25618261  0.99673736  0.12571261
   0.25644649  0.99703889  0.62509868
   0.23892200  0.48590635  0.62642333
   0.74810503  0.48905538  0.12528422
   0.74494870  0.49076723  0.62396696
   0.74787115  0.00314178  0.37574594
   0.74400194  0.00199053  0.87346506
   0.25112023  0.26147615  0.12596198
   0.25884655  0.26025861  0.62557894
   0.74692471  0.26160801  0.12574524
   0.25547755  0.74117629  0.37471063
   0.25277120  0.74360661  0.87526218
   0.75305976  0.74708432  0.37393641
   0.74975396  0.74813076  0.87541586
   0.12451832  0.50704943  0.99335843
   0.62504364  0.51020103  0.99737701
   0.12557557  0.01013136  0.24965842
   0.62436280  0.00999872  0.24780749
   0.62409231  0.25228992  0.50071087
   0.62395406  0.73901496  0.00136283
   0.62407111  0.75696887  0.49450349
   0.12565380  0.25361061  0.74622881
   0.12537786  0.74348177  0.25260576
   0.62494991  0.23651715  0.25435064
   0.62514881  0.25413826  0.74435894
   0.62210848  0.74484982  0.25227515
   0.37586721  0.99702612  0.99160402
   0.37554728  0.49935620  0.50482591
   0.87274128  0.99836773  0.99842567
   0.87528414  0.49725295  0.50013278
   0.37606344  0.99844776  0.75854080
   0.37354794  0.48735402  0.24734983
   0.87488352  0.48860036  0.25060947
   0.87510587  0.50849074  0.74461300
   0.37555379  0.25180642  0.99909631
   0.87420165  0.25234827  0.00048743
   0.87453393  0.74241481  0.74766531
   0.50491822  0.12237569  0.49055931
   0.99909170  0.12617200  0.74422528
   0.48712915  0.12537253  0.26612851
   0.50297635  0.12380657  0.75271162
   0.50251651  0.62504260  0.75415206
   0.00337578  0.37603542  0.00377340
   0.00482054  0.87502026  0.00144071
   0.00136656  0.87438250  0.49883322
   0.50536840  0.37434077  0.01049147
   0.50668712  0.87530935  0.00813997
   0.01639601  0.37572721  0.24559350
   0.25761112  0.62502068  0.01121166
   0.74553772  0.12402530  0.50788971
   0.24581121  0.62416700  0.74126607
   0.74931335  0.12468419  0.74119394
   0.24069816  0.37403264  0.48192670
   0.24961357  0.87543775  0.49416035
   0.22975166  0.37529881  0.26966798
   0.99787861  0.00295626  0.12646924
   0.00232895  0.99468198  0.62488508
   0.00152996  0.51054567  0.12410549
   0.49174299  0.01142489  0.12658121
   0.49421071  0.00110885  0.62288483
   0.50175825  0.51000539  0.12779877
   0.50776973  0.50462940  0.62426743
   0.00410180  0.49584830  0.37487466
   0.99402956  0.49876263  0.87248186
   0.50655819  0.98497892  0.37647243
   0.51585652  0.99441783  0.87518602
   0.00160216  0.24554797  0.12647897
   0.99407547  0.25977754  0.62445012
   0.50015901  0.23597084  0.12691965
   0.49045025  0.24210197  0.62305489
   0.49645691  0.74173883  0.12705040
   0.00038897  0.25087633  0.87490422
   0.99320555  0.75056805  0.37471456
   0.99957622  0.75058774  0.87416924
   0.49854898  0.26677754  0.37570444
   0.50418553  0.25722440  0.87451643
   0.49115545  0.75850951  0.37555501
   0.49610959  0.75668455  0.87421809
   0.24263594  0.48424184  0.12436403
   0.75063646  0.99894797  0.12642665
   0.74851612  0.99165493  0.62332190
   0.25051962  0.00787564  0.37561623
   0.24248251  0.00319085  0.87456207
   0.24624706  0.51137225  0.37432506
   0.26037136  0.50772270  0.87346471
   0.74756984  0.50831340  0.37434451
   0.75309082  0.50775552  0.87388195
   0.25024183  0.75981859  0.12536065
   0.24748341  0.75653029  0.62490634
   0.75415583  0.26313000  0.62365861
   0.75002057  0.75191743  0.12588797
   0.74568710  0.75107721  0.62427897
   0.24492016  0.24020756  0.37423095
   0.24884041  0.24355406  0.87519049
   0.75389283  0.23988689  0.37347328
   0.74750251  0.24195128  0.87584991
   0.12631531  0.00505831  0.00352999
   0.12578744  0.00824538  0.50083539
   0.12528113  0.50356444  0.48678211
   0.62462791  0.00571605  0.00908335
   0.62343264  0.98705703  0.50531721
   0.62471287  0.49751292  0.49633036
   0.12738131  0.99843352  0.74587685
   0.12487095  0.51361541  0.25179857
   0.12357250  0.49264899  0.76350769
   0.62332096  0.99310994  0.73924324
   0.62420205  0.50786528  0.25114711
   0.62628717  0.49172556  0.75582494
   0.12567443  0.24738134  0.99878686
   0.12952586  0.23748995  0.50559794
   0.12492265  0.74223782  0.99911328
   0.12455764  0.74545713  0.49503676
   0.62556729  0.24532338  0.99888997
   0.12570869  0.23135133  0.24698383
   0.12350364  0.75549664  0.75280410
   0.62596492  0.75559252  0.75246768
   0.37742422  0.00157168  0.49172168
   0.37280959  0.49305869  0.00830543
   0.87393766  0.99826683  0.50536562
   0.87412914  0.49522884  0.00012482
   0.37699892  0.99016121  0.25805040
   0.37438360  0.49959855  0.74031902
   0.87336610  0.99164462  0.24912407
   0.87417834  0.99605137  0.74500848
   0.37869184  0.25063645  0.49178190
   0.37596796  0.75955074  0.00306801
   0.37660952  0.74577790  0.50379747
   0.86917571  0.25415761  0.49925057
   0.87161379  0.75803635  0.00103949
   0.87223915  0.74619408  0.50446221
   0.37699770  0.26584114  0.25294292
   0.37638214  0.24905585  0.75624062
   0.37629286  0.75568889  0.24628800
   0.37472297  0.75268135  0.74711596
   0.87310261  0.26412093  0.24997754
   0.87421155  0.25217025  0.75179426
   0.87315865  0.75653930  0.24758665
   0.00048335  0.12709530  0.00040612
   0.99184129  0.11914096  0.51116277
   0.99042469  0.62571267  0.99402664
   0.99907309  0.62630665  0.49172567
   0.50080614  0.12471291  0.99313820
   0.48685298  0.62726515  0.99656322
   0.50323762  0.62584320  0.49165746
   0.98478784  0.12743023  0.24647906
   0.99007470  0.62322678  0.25650570
   0.01173772  0.62458291  0.75603583
   0.49094377  0.62544850  0.25926487
   0.01314704  0.37863158  0.49676135
   0.49855915  0.37228619  0.51184812
   0.49120368  0.87749863  0.50367380
   0.99487098  0.37501633  0.75184365
   0.00392325  0.87584534  0.25006238
   0.99819514  0.87532039  0.74880416
   0.51177860  0.37179677  0.23795432
   0.49539447  0.37354621  0.74037730
   0.50426545  0.87609886  0.24203384
   0.50036078  0.87510945  0.74802208
   0.24994865  0.12570642  0.00339008
   0.25843880  0.12498697  0.50346125
   0.24913393  0.62506257  0.50986733
   0.74826047  0.12615581  0.00678512
   0.76321343  0.62532675  0.00712572
   0.74644289  0.62447843  0.50465716
   0.26580270  0.12808489  0.24653137
   0.25022303  0.12548460  0.74812865
   0.25875444  0.62262917  0.23690094
   0.76680999  0.12623812  0.24356274
   0.75652376  0.62457263  0.24306328
   0.73780184  0.62436964  0.74413387
   0.24568370  0.37668900  0.98766525
   0.24229773  0.87366815  0.99571593
   0.74322943  0.37506723  0.98490132
   0.74786183  0.37250840  0.48637157
   0.74039336  0.87477289  0.00326081
   0.75631013  0.87530297  0.49903168
   0.25517785  0.37672865  0.76561301
   0.24618763  0.87581501  0.25772588
   0.24877529  0.87336957  0.75424822
   0.73647396  0.37395032  0.26620155
   0.75571238  0.37366369  0.76037047
   0.74313819  0.87530101  0.24869069
   0.75230621  0.87484851  0.74808345
 
 position of ions in cartesian coordinates  (Angst):
   2.52508194  5.99975785  5.88548472
  15.35470556 15.35438775 15.33832926
   0.00361078 15.31639107  7.61293125
   0.08386472  7.65049606 15.37830451
  15.33285866  7.74737006  7.82169735
   7.62424249 15.33533539  0.00207992
   7.72043771  0.12414536  7.69683146
   7.77456530  7.64593503 15.36643871
   7.60468024  7.68492676  7.64053981
   0.10271637  0.05488360  3.94572623
   0.02794693  0.11364604 11.67145932
  15.33026540  7.58887856  3.85000979
  15.31366973  7.70587577 11.43635270
   7.79774156  0.14739615  3.86726155
   7.60423402  0.08208749 11.60701720
   7.62110640  7.64679631  3.96787709
   7.72790093  7.77298846 11.70512495
  15.35934664  3.97903666  0.03553065
  15.41694030  3.81312381  7.64027316
  15.39331181 11.69648087  0.09270047
  15.39501253 11.68023208  7.80206875
   7.64088037  3.98949707  0.01487667
   7.84903145  3.78280606  7.70423276
   7.82183977 11.66977359 15.41824957
   7.81658206 11.59796561  7.85039183
   0.00035621  3.97770035  3.97454515
   0.10337713  3.74316722 11.54624613
   0.09708636 11.53225235  3.74855258
  15.31410070 11.57688104 11.45992237
   7.83020627  3.71956304  3.88179348
   7.81922532  3.75261662 11.57155313
   7.80922870 11.58314065  3.88835065
   7.74142419 11.44081419 11.47636390
   3.95582406 15.39601627  0.09678602
   3.85963579 15.32398669  7.80850997
   3.75271165  7.84417174 15.38976684
   3.94155800  7.63012670  7.85452937
  11.67501530  0.00475221 15.33293125
  11.57428464  0.10019726  7.63182323
  11.43443624  7.72154723  0.07717798
  11.65700269  7.65913088  7.79469734
   3.77271196  0.04614966  3.76150642
   3.97955616 15.39444911 11.48506922
   3.95458285  7.59326192  3.84969016
   3.80734903  7.80453975 11.44139323
  11.47996599  0.02581106  3.94474670
  11.53542030  0.10230700 11.65922096
  11.66354003  7.67493735  3.74132642
  11.68047605  7.67798567 11.45091459
   3.97637386  3.90330039  0.07670665
   3.90408586  3.96074741  7.82416006
   3.88526722 11.44071798 15.34126270
   3.87649970 11.65110741  7.59661906
  11.68632488  3.88197246  0.09958188
  11.48189307  3.72896998  7.69028499
  11.43769269 11.55141163 15.32967638
  11.44043109 11.58191040  7.61586208
   3.86683832  3.99316597  3.75126881
   3.77128994  3.90841981 11.48461487
   3.75540074 11.53098362  3.94823782
   3.82218350 11.43469212 11.66768019
  11.45566728  3.86558645  3.72471581
  11.47493828  3.73321902 11.57246485
  11.49706501 11.55606568  3.95957088
  11.68540744 11.56879012 11.66936258
   0.15631447  7.76440448  9.63383997
  15.39657082  0.06552051  5.79306493
   0.02660108  0.03193192 13.46486542
   7.68809316  7.55320018  5.78418665
   7.60904958  7.61519572 13.49519779
  15.42028167 11.50136834  1.93732710
   0.04175074 11.50253383  9.63351049
   7.75857675 11.53262128  9.63743879
   0.07901017  3.87892209  5.74717467
   3.95195776 15.37600040  1.93928434
   3.95602848 15.38065198  9.64297909
   3.68568985  7.49575214  9.66341360
  11.54051585  7.54433012  1.93267590
  11.49182521  7.57073772  9.62552083
  11.53690788  0.04846613  5.79638118
  11.47722015  0.03070653 13.47436107
   3.87386378  4.03361767  1.94313121
   3.99305255  4.01483548  9.65038777
  11.52230787  4.03565168  1.93978771
   3.94108124 11.43363080  5.78041022
   3.89933225 11.47112166 13.50208414
  11.61694908 11.52477006  5.76846688
  11.56595283 11.54091274 13.50445477
   1.92086085  7.82191230 15.32387598
   9.64213003  7.87052995 15.38586781
   1.93717035  0.15628968  3.85131340
   9.63162715  0.15424350  3.82276035
   9.62745456  3.89190785  7.72413169
   9.62532189 11.40028942  0.02102345
   9.62712752 11.67725231  7.62837446
   1.93837717  3.91228128 11.51157259
   1.93412037 11.46919584  3.89678007
   9.64068421  3.64859178  3.92369724
   9.64375250  3.92042086 11.48272734
   9.59685129 11.49029992  3.89167994
   5.79825194 15.38045495 15.29681180
   5.79331665  7.70323409  7.78761157
  13.46319593 15.40115113 15.40204479
  13.50242286  7.67078854  7.71521381
   5.80127906 15.40238567 11.70150146
   5.76247422  7.51808437  3.81570029
  13.49624281  7.53731091  3.86598467
  13.49967284  7.84414653 11.48664667
   5.79341713  3.88444917 15.41239045
  13.48572402  3.89280796  0.00751923
  13.49084986 11.45273660 11.53373253
   7.78903556  1.88780796  7.56753031
  15.41231927  1.94637110 11.48066549
   7.51461553  1.93403808  4.10538647
   7.75907970  1.90988120 11.61157856
   7.75198601  9.64211408 11.63379932
   0.05207597  5.80084691  0.05820969
   0.07436325 13.49835217  0.02222490
   0.02108093 13.48851382  7.69516640
   7.79598026  5.77470463  0.16184485
   7.81632319 13.50281182  0.12556983
   0.25293022  5.79609231  3.78860662
   3.97399436  9.64177591  0.17295478
  11.50091165  1.91325534  7.83487472
   3.79196513  9.62860669 11.43501573
  11.55915581  1.92341955 11.43390299
   3.71308947  5.76995130  7.43436080
   3.85062152 13.50479246  7.62308116
   3.54422512  5.78948368  4.15998756
  15.39360575  0.04560426  1.95095638
   0.03592712 15.34429350  9.63968401
   0.02360166  7.87584644  1.91449235
   7.58579019  0.17624416  1.95268360
   7.62385797  0.01710554  9.60882755
   7.74028888  7.86751198  1.97146607
   7.83302400  7.78458013  9.63015597
   0.06327572  7.64911997  5.78294057
  15.33422903  7.69407746 13.45919400
   7.81433437 15.19461086  5.80758827
   7.95777346 15.34021862 13.50090924
   0.02471546  3.78790421  1.95110640
  15.33493719  4.00741431  9.63297422
   7.71561844  3.64016430  1.95790457
   7.56584788  3.73474506  9.61145102
   7.65850867 11.44230877  1.95992147
   0.00600041  3.87010138 13.49656206
  15.32151750 11.57851123  5.78047078
  15.41979364 11.57881491 13.48522411
   7.69078164  4.11539862  5.79574112
   7.77773288  3.96802877 13.49057991
   7.57672655 11.70101883  5.79343592
   7.65315074 11.67286638 13.48597766
   3.74298233  7.47007489  1.91848068
  11.57956645 15.41010202  1.95029929
  11.54685741 15.29759715  9.61556992
   3.86459861  0.12149218  5.79438027
   3.74061548  0.04922315 13.49128400
   3.79868862  7.88859760  5.77446235
   4.01657473  7.83229836 13.47435574
  11.53225980  7.84141070  5.77476235
  11.61742820  7.83280476 13.48079216
   3.86031336 11.72121311  1.93385495
   3.81776096 11.67048660  9.64001201
  11.63385751  4.05913053  9.62076415
  11.57006561 11.59932709  1.94198942
  11.50321598 11.58636560  9.63033407
   3.77821946  3.70552140  5.77301051
   3.83869448  3.75714548 13.50097819
  11.62980040  3.70057457  5.76132246
  11.53122121  3.73242055 13.51115054
   1.94858178  0.07803116  0.05445474
   1.94043873  0.12719604  7.72605255
   1.93262819  7.76815178  7.50926197
   9.63571694  0.08817775  0.14012284
   9.61727824 15.22666849  7.79519060
   9.63702756  7.67479891  7.65655634
   1.96502625 15.40216603 11.50614311
   1.92630066  7.92320128  3.88432801
   1.90627028  7.59976636 11.77812230
   9.61555545 15.32004268 11.40381085
   9.62914739  7.83449794  3.87427853
   9.66131318  7.58552126 11.65960565
   1.93869532  3.81618651 15.40761666
   1.99810885  3.66359863  7.79952116
   1.92709812 11.45000637 15.41265223
   1.92146744 11.49966836  7.63660093
   9.65020811  3.78443963 15.40920723
   1.93922392  3.56890223  3.81005435
   1.90520809 11.65454119 11.61300525
   9.65634200 11.65602034 11.60781544
   5.82227098  0.02424521  7.58546137
   5.75108421  7.60608652  0.12812237
  13.48165166 15.39959461  7.79593735
  13.48460538  7.63956400  0.00192549
   5.81571018 15.27455457  3.98077094
   5.77536531  7.70697257 11.42040630
  13.47283460 15.29743816  3.84307042
  13.48536449 15.36541806 11.49274737
   5.84182573  3.86640077  7.58639032
   5.79980623 11.71708114  0.04732815
   5.80970316 11.50461670  7.77174652
  13.40819225  3.92071934  7.70160449
  13.44580281 11.69371958  0.01603559
  13.45544987 11.51103694  7.78200097
   5.81569128  4.10095348  3.90198115
   5.80619546  3.84201794 11.66601804
   5.80481819 11.65750702  3.79932019
   5.78060056 11.61111159 11.52525803
  13.46876985  4.07441696  3.85623630
  13.48587681  3.89006175 11.59742717
  13.46963439 11.67062564  3.81935357
   0.00745634  1.96061415  0.00626497
  15.30047210  1.83790784  7.88536609
  15.27861911  9.65245080 15.33418390
  15.41203216  9.66161364  7.58552296
   7.72560136  1.92386270 15.32047863
   7.51035525  9.67639976 15.37331404
   7.76311010  9.65446430  7.58447077
  15.19166313  1.96578091  3.80226749
  15.27322002  9.61410260  3.95694178
   0.18106993  9.63502272 11.66285899
   7.57346113  9.64837560  3.99950572
   0.20281054  5.84089606  7.66320495
   7.69093844  5.74301001  7.89593855
   7.57747049 13.53658432  7.76983874
  15.34720907  5.78512610 11.59818896
   0.06052128 13.51108008  3.85754507
  15.39848862 13.50298201 11.55130086
   7.89486614  5.73546007  3.67076217
   7.64211901  5.76244740 11.42130531
   7.77896581 13.51499101  3.73369419
   7.71873100 13.49972804 11.53923615
   3.85579056  1.93918892  0.05229655
   3.98676241  1.92809043  7.76655992
   3.84322240  9.64242214  7.86538224
  11.54291363  1.94612125  0.10466949
  11.77358292  9.64649739  0.10992367
  11.51487514  9.63341090  7.78500843
   4.10036040  1.97587999  3.80307452
   3.86002330  1.93576702 11.54088024
   3.99163159  9.60488360  3.65451233
  11.82906466  1.94739105  3.75727951
  11.67038595  9.63486418  3.74957467
  11.38157542  9.63173277 11.47925544
   3.78999814  5.81092914 15.23605110
   3.73776495 13.47749402 15.36024347
  11.46530322  5.78591122 15.19341375
  11.53676414  5.74643788  7.50292889
  11.42155302 13.49453621  0.05030241
  11.66709048 13.50271337  7.69822786
   3.93645805  5.81154084 11.81059972
   3.79777190 13.51061222  3.97576467
   3.83768998 13.47288808 11.63528270
  11.36109101  5.76868149  4.10651325
  11.65786932  5.76425972 11.72972652
  11.46389563 13.50268317  3.83638484
  11.60532464 13.49570273 11.54018295
 


--------------------------------------------------------------------------------------------------------


 k-point  1 :   0.2500 0.2500 0.2500  plane waves:   93161
 k-point  2 :  -0.2500 0.2500 0.2500  plane waves:   93161
 k-point  3 :   0.2500-0.2500 0.2500  plane waves:   93161
 k-point  4 :  -0.2500-0.2500 0.2500  plane waves:   93161

 maximum and minimum number of plane-waves per node :     11686    11606

 maximum number of plane-waves:     93161
 maximum index in each direction: 
   IXMAX=   28   IYMAX=   28   IZMAX=   27
   IXMIN=  -28   IYMIN=  -28   IZMIN=  -28


 real space projection operators:
  total allocation   :     105557.68 KBytes
  max/ min on nodes  :      13241.08      13156.88


 parallel 3D FFT for wavefunctions:
    minimum data exchange during FFTs selected (reduces bandwidth)
 parallel 3D FFT for charge:
    minimum data exchange during FFTs selected (reduces bandwidth)


 total amount of memory used by VASP MPI-rank0   291500. kBytes
=======================================================================

   base      :      30000. kBytes
   nonlr-proj:      49465. kBytes
   fftplans  :      27976. kBytes
   grid      :      34041. kBytes
   one-center:       1026. kBytes
   wavefun   :     148992. kBytes
 
     INWAV:  cpu time   52.9356: real time   53.1941
 Broyden mixing: mesh for mixing (old mesh)
   NGX = 57   NGY = 57   NGZ = 57
  (NGX  =240   NGY  =240   NGZ  =240)
  gives a total of 185193 points

 charge density for first step will be calculated from the start-wavefunctions


--------------------------------------------------------------------------------------------------------


 Maximum index for non-local projection operator          971
 Maximum index for augmentation-charges         3292 (set IRDMAX)


--------------------------------------------------------------------------------------------------------


 initial charge from wavefunction
 First call to EWALD:  gamma=   0.115
 Maximum number of real-space cells 3x 3x 3
 Maximum number of reciprocal cells 3x 3x 3

    FEWALD:  cpu time    0.0246: real time    0.0246


--------------------------------------- Iteration      1(   1)  ---------------------------------------


    POTLOK:  cpu time    0.2963: real time    0.3175
    SETDIJ:  cpu time    1.3716: real time    1.4105
     EDDAV:  cpu time  131.7909: real time  132.6835
       DOS:  cpu time    0.0025: real time    0.0025
    CHARGE:  cpu time    5.2706: real time    5.2742
    MIXING:  cpu time    0.0116: real time    0.0117
    --------------------------------------------
      LOOP:  cpu time  138.7435: real time  139.6999

 eigenvalue-minimisations  : 23076
 total energy-change (2. order) :-0.1853320E+04  (-0.3672950E+03)
 number of electron    1923.0000030 magnetization       1.0000000
 augmentation part      504.1272868 magnetization       0.5892137

 Broyden mixing:
  rms(total) = 0.79449E+01    rms(broyden)= 0.79418E+01
  rms(prec ) = 0.12430E+02
  weight for this iteration     100.00

 Free energy of the ion-electron system (eV)
  ---------------------------------------------------
  alpha Z        PSCENC =      6118.73324990
  Ewald energy   TEWEN  =   -103392.16126547
  -Hartree energ DENC   =    -65234.53155569
  -exchange      EXHF   =         0.00000000
  -V(xc)+E(xc)   XCENC  =      8959.10606365
  PAW double counting   =    198156.78475684  -199152.31668753
  entropy T*S    EENTRO =        -0.00000153
  eigenvalues    EBANDS =    -25886.18740602
  atomic energy  EATOM  =    178577.25249613
  Solvation  Ediel_sol  =         0.00000000
  ---------------------------------------------------
  free energy    TOTEN  =     -1853.32034971 eV

  energy without entropy =    -1853.32034818  energy(sigma->0) =    -1853.32034895


--------------------------------------------------------------------------------------------------------




--------------------------------------- Iteration      1(   2)  ---------------------------------------


    POTLOK:  cpu time    0.2612: real time    0.2636
    SETDIJ:  cpu time    1.3922: real time    1.3926
     EDDAV:  cpu time  146.4938: real time  147.3691
       DOS:  cpu time    0.0029: real time    0.0029
    CHARGE:  cpu time    5.2677: real time    5.3014
    MIXING:  cpu time    0.0461: real time    0.0465
    --------------------------------------------
      LOOP:  cpu time  153.4640: real time  154.3761

 eigenvalue-minimisations  : 26664
 total energy-change (2. order) :-0.9889693E+01  (-0.3128728E+03)
 number of electron    1923.0000030 magnetization       1.0000000
 augmentation part      507.0152770 magnetization       0.7472938

 Broyden mixing:
  rms(total) = 0.99580E+01    rms(broyden)= 0.99539E+01
  rms(prec ) = 0.14810E+02
  weight for this iteration     100.00

 eigenvalues of (default mixing * dielectric matrix)
  average eigenvalue GAMMA=   0.4087
  0.4087

 Free energy of the ion-electron system (eV)
  ---------------------------------------------------
  alpha Z        PSCENC =      6118.73324990
  Ewald energy   TEWEN  =   -103392.16126547
  -Hartree energ DENC   =    -65297.26134158
  -exchange      EXHF   =         0.00000000
  -V(xc)+E(xc)   XCENC  =      8957.40353937
  PAW double counting   =    199692.59573799  -200662.10003843
  entropy T*S    EENTRO =        -0.00339981
  eigenvalues    EBANDS =    -25857.66902091
  atomic energy  EATOM  =    178577.25249613
  Solvation  Ediel_sol  =         0.00000000
  ---------------------------------------------------
  free energy    TOTEN  =     -1863.21004280 eV

  energy without entropy =    -1863.20664299  energy(sigma->0) =    -1863.20834289


--------------------------------------------------------------------------------------------------------




--------------------------------------- Iteration      1(   3)  ---------------------------------------


    POTLOK:  cpu time    0.3681: real time    0.3709
    SETDIJ:  cpu time    1.4838: real time    1.4847
     EDDAV:  cpu time  151.8166: real time  152.7290
       DOS:  cpu time    0.0017: real time    0.0017
    CHARGE:  cpu time    5.3187: real time    5.3218
    MIXING:  cpu time    0.0353: real time    0.0353
    --------------------------------------------
      LOOP:  cpu time  159.0241: real time  159.9434

 eigenvalue-minimisations  : 27516
 total energy-change (2. order) : 0.1165408E+02  (-0.1178878E+03)
 number of electron    1923.0000029 magnetization       1.0000000
 augmentation part      491.8427294 magnetization       0.6281287

 Broyden mixing:
  rms(total) = 0.57000E+01    rms(broyden)= 0.56978E+01
  rms(prec ) = 0.65361E+01
  weight for this iteration     100.00

 eigenvalues of (default mixing * dielectric matrix)
  average eigenvalue GAMMA=   0.4477
  0.4477  0.4477

 Free energy of the ion-electron system (eV)
  ---------------------------------------------------
  alpha Z        PSCENC =      6118.73324990
  Ewald energy   TEWEN  =   -103392.16126547
  -Hartree energ DENC   =    -65390.14358638
  -exchange      EXHF   =         0.00000000
  -V(xc)+E(xc)   XCENC  =      8960.27302315
  PAW double counting   =    199912.69762571  -200875.50059269
  entropy T*S    EENTRO =        -0.00000000
  eigenvalues    EBANDS =    -25762.70691236
  atomic energy  EATOM  =    178577.25249613
  Solvation  Ediel_sol  =         0.00000000
  ---------------------------------------------------
  free energy    TOTEN  =     -1851.55596200 eV

  energy without entropy =    -1851.55596200  energy(sigma->0) =    -1851.55596200


--------------------------------------------------------------------------------------------------------




--------------------------------------- Iteration      1(   4)  ---------------------------------------


    POTLOK:  cpu time    0.3555: real time    0.3561
    SETDIJ:  cpu time    1.5164: real time    1.5173
     EDDAV:  cpu time  139.6569: real time  140.6432
       DOS:  cpu time    0.0017: real time    0.0017
    CHARGE:  cpu time    5.2201: real time    5.3285
    MIXING:  cpu time    0.0152: real time    0.0159
    --------------------------------------------
      LOOP:  cpu time  146.7657: real time  147.8626

 eigenvalue-minimisations  : 25080
 total energy-change (2. order) : 0.4379313E+02  (-0.3092881E+02)
 number of electron    1923.0000029 magnetization       1.0000000
 augmentation part      493.6068172 magnetization       0.5908204

 Broyden mixing:
  rms(total) = 0.41823E+01    rms(broyden)= 0.41816E+01
  rms(prec ) = 0.48574E+01
  weight for this iteration     100.00

 eigenvalues of (default mixing * dielectric matrix)
  average eigenvalue GAMMA=   0.5803
  0.6400  0.6400  0.4609

 Free energy of the ion-electron system (eV)
  ---------------------------------------------------
  alpha Z        PSCENC =      6118.73324990
  Ewald energy   TEWEN  =   -103392.16126547
  -Hartree energ DENC   =    -65344.25968831
  -exchange      EXHF   =         0.00000000
  -V(xc)+E(xc)   XCENC  =      8966.10080869
  PAW double counting   =    200074.10437041  -201053.50920834
  entropy T*S    EENTRO =        -0.00000000
  eigenvalues    EBANDS =    -25754.02359385
  atomic energy  EATOM  =    178577.25249613
  Solvation  Ediel_sol  =         0.00000000
  ---------------------------------------------------
  free energy    TOTEN  =     -1807.76283083 eV

  energy without entropy =    -1807.76283083  energy(sigma->0) =    -1807.76283083


--------------------------------------------------------------------------------------------------------




--------------------------------------- Iteration      1(   5)  ---------------------------------------


    POTLOK:  cpu time    0.2880: real time    0.2925
    SETDIJ:  cpu time    1.4161: real time    1.4324
     EDDAV:  cpu time  148.5876: real time  149.4953
       DOS:  cpu time    0.0017: real time    0.0017
    CHARGE:  cpu time    5.2607: real time    5.2887
    MIXING:  cpu time    0.0460: real time    0.0468
    --------------------------------------------
      LOOP:  cpu time  155.6001: real time  156.5575

 eigenvalue-minimisations  : 26844
 total energy-change (2. order) : 0.3520763E+02  (-0.1068839E+02)
 number of electron    1923.0000029 magnetization       1.0000000
 augmentation part      494.1495765 magnetization       0.6001867

 Broyden mixing:
  rms(total) = 0.22218E+01    rms(broyden)= 0.22214E+01
  rms(prec ) = 0.25977E+01
  weight for this iteration     100.00

 eigenvalues of (default mixing * dielectric matrix)
  average eigenvalue GAMMA=   0.6920
  0.8795  0.8795  0.5044  0.5044

 Free energy of the ion-electron system (eV)
  ---------------------------------------------------
  alpha Z        PSCENC =      6118.73324990
  Ewald energy   TEWEN  =   -103392.16126547
  -Hartree energ DENC   =    -65355.17915959
  -exchange      EXHF   =         0.00000000
  -V(xc)+E(xc)   XCENC  =      8971.51579300
  PAW double counting   =    199600.88225492  -200593.97627475
  entropy T*S    EENTRO =        -0.00000000
  eigenvalues    EBANDS =    -25699.62229150
  atomic energy  EATOM  =    178577.25249613
  Solvation  Ediel_sol  =         0.00000000
  ---------------------------------------------------
  free energy    TOTEN  =     -1772.55519737 eV

  energy without entropy =    -1772.55519737  energy(sigma->0) =    -1772.55519737


--------------------------------------------------------------------------------------------------------




--------------------------------------- Iteration      1(   6)  ---------------------------------------


    POTLOK:  cpu time    0.2582: real time    0.2712
    SETDIJ:  cpu time    1.3770: real time    1.4007
     EDDAV:  cpu time  148.3865: real time  149.3090
       DOS:  cpu time    0.0018: real time    0.0018
    CHARGE:  cpu time    5.3244: real time    5.3280
    MIXING:  cpu time    0.0188: real time    0.0188
    --------------------------------------------
      LOOP:  cpu time  155.3667: real time  156.3296

 eigenvalue-minimisations  : 27012
 total energy-change (2. order) : 0.1194933E+02  (-0.5701434E+01)
 number of electron    1923.0000029 magnetization       1.0000000
 augmentation part      495.7258328 magnetization       0.5928621

 Broyden mixing:
  rms(total) = 0.14577E+01    rms(broyden)= 0.14574E+01
  rms(prec ) = 0.15584E+01
  weight for this iteration     100.00

 eigenvalues of (default mixing * dielectric matrix)
  average eigenvalue GAMMA=   0.7080
  0.9459  0.9459  0.4624  0.5929  0.5929

 Free energy of the ion-electron system (eV)
  ---------------------------------------------------
  alpha Z        PSCENC =      6118.73324990
  Ewald energy   TEWEN  =   -103392.16126547
  -Hartree energ DENC   =    -65297.08491166
  -exchange      EXHF   =         0.00000000
  -V(xc)+E(xc)   XCENC  =      8972.04970541
  PAW double counting   =    199156.56584732  -200159.13385723
  entropy T*S    EENTRO =        -0.00000000
  eigenvalues    EBANDS =    -25736.82713621
  atomic energy  EATOM  =    178577.25249613
  Solvation  Ediel_sol  =         0.00000000
  ---------------------------------------------------
  free energy    TOTEN  =     -1760.60587180 eV

  energy without entropy =    -1760.60587180  energy(sigma->0) =    -1760.60587180


--------------------------------------------------------------------------------------------------------




--------------------------------------- Iteration      1(   7)  ---------------------------------------


    POTLOK:  cpu time    0.2789: real time    0.2820
    SETDIJ:  cpu time    1.4375: real time    1.4378
     EDDAV:  cpu time  148.5619: real time  149.3934
       DOS:  cpu time    0.0019: real time    0.0019
    CHARGE:  cpu time    5.3599: real time    5.3628
    MIXING:  cpu time    0.0142: real time    0.0142
    --------------------------------------------
      LOOP:  cpu time  155.6543: real time  156.4922

 eigenvalue-minimisations  : 26604
 total energy-change (2. order) : 0.9983695E+00  (-0.1076862E+01)
 number of electron    1923.0000029 magnetization       1.0000000
 augmentation part      496.2542348 magnetization       0.5811920

 Broyden mixing:
  rms(total) = 0.97192E+00    rms(broyden)= 0.97150E+00
  rms(prec ) = 0.10478E+01
  weight for this iteration     100.00

 eigenvalues of (default mixing * dielectric matrix)
  average eigenvalue GAMMA=   0.8702
  1.3786  1.3786  0.7130  0.7130  0.5188  0.5188

 Free energy of the ion-electron system (eV)
  ---------------------------------------------------
  alpha Z        PSCENC =      6118.73324990
  Ewald energy   TEWEN  =   -103392.16126547
  -Hartree energ DENC   =    -65270.93254704
  -exchange      EXHF   =         0.00000000
  -V(xc)+E(xc)   XCENC  =      8970.93686561
  PAW double counting   =    198898.30262032  -199901.30715009
  entropy T*S    EENTRO =        -0.00000000
  eigenvalues    EBANDS =    -25760.43177168
  atomic energy  EATOM  =    178577.25249613
  Solvation  Ediel_sol  =         0.00000000
  ---------------------------------------------------
  free energy    TOTEN  =     -1759.60750231 eV

  energy without entropy =    -1759.60750231  energy(sigma->0) =    -1759.60750231


--------------------------------------------------------------------------------------------------------




--------------------------------------- Iteration      1(   8)  ---------------------------------------


    POTLOK:  cpu time    0.2691: real time    0.2699
    SETDIJ:  cpu time    1.4074: real time    1.4079
     EDDAV:  cpu time  141.1319: real time  142.5583
       DOS:  cpu time    0.0019: real time    0.0019
    CHARGE:  cpu time    5.3234: real time    5.3271
    MIXING:  cpu time    0.0086: real time    0.0086
    --------------------------------------------
      LOOP:  cpu time  148.1423: real time  149.5737

 eigenvalue-minimisations  : 25044
 total energy-change (2. order) : 0.1520911E+00  (-0.8742332E+00)
 number of electron    1923.0000029 magnetization       1.0000000
[...]
   81        1.574   3.461   0.000   5.034
   82        1.575   3.461   0.000   5.036
   83        1.574   3.461   0.000   5.036
   84        1.576   3.472   0.000   5.048
   85        1.575   3.461   0.000   5.036
   86        1.574   3.464   0.000   5.038
   87        1.576   3.463   0.000   5.039
   88        1.575   3.466   0.000   5.041
   89        1.575   3.462   0.000   5.036
   90        1.575   3.457   0.000   5.033
   91        1.574   3.459   0.000   5.033
   92        1.574   3.458   0.000   5.033
   93        1.578   3.473   0.000   5.051
   94        1.577   3.471   0.000   5.048
   95        1.576   3.476   0.000   5.052
   96        1.574   3.463   0.000   5.037
   97        1.575   3.464   0.000   5.039
   98        1.576   3.472   0.000   5.048
   99        1.575   3.463   0.000   5.038
  100        1.576   3.456   0.000   5.032
  101        1.574   3.458   0.000   5.032
  102        1.575   3.465   0.000   5.039
  103        1.575   3.459   0.000   5.034
  104        1.574   3.463   0.000   5.036
  105        1.577   3.472   0.000   5.049
  106        1.575   3.461   0.000   5.036
  107        1.574   3.463   0.000   5.037
  108        1.576   3.472   0.000   5.048
  109        1.575   3.464   0.000   5.039
  110        1.575   3.461   0.000   5.037
  111        1.576   3.473   0.000   5.049
  112        1.577   3.464   0.000   5.041
  113        1.576   3.473   0.000   5.049
  114        1.577   3.469   0.000   5.046
  115        1.574   3.465   0.000   5.039
  116        1.575   3.463   0.000   5.038
  117        1.575   3.461   0.000   5.036
  118        1.576   3.462   0.000   5.037
  119        1.577   3.475   0.000   5.052
  120        1.575   3.458   0.000   5.034
  121        1.574   3.461   0.000   5.036
  122        1.575   3.469   0.000   5.044
  123        1.577   3.471   0.000   5.048
  124        1.576   3.471   0.000   5.048
  125        1.576   3.474   0.000   5.049
  126        1.576   3.470   0.000   5.046
  127        1.566   3.483   0.000   5.049
  128        1.574   3.461   0.000   5.035
  129        1.568   3.485   0.000   5.053
  130        1.737   4.369   0.000   6.106
  131        1.737   4.370   0.000   6.107
  132        1.738   4.380   0.000   6.118
  133        1.738   4.385   0.000   6.124
  134        1.738   4.384   0.000   6.122
  135        1.737   4.367   0.000   6.104
  136        1.736   4.366   0.000   6.102
  137        1.738   4.380   0.000   6.118
  138        1.738   4.381   0.000   6.119
  139        1.739   4.385   0.000   6.124
  140        1.739   4.385   0.000   6.124
  141        1.739   4.380   0.000   6.119
  142        1.738   4.388   0.000   6.126
  143        1.738   4.385   0.000   6.123
  144        1.739   4.384   0.000   6.123
  145        1.738   4.381   0.000   6.119
  146        1.737   4.383   0.000   6.120
  147        1.736   4.369   0.000   6.105
  148        1.736   4.368   0.000   6.105
  149        1.739   4.385   0.000   6.124
  150        1.738   4.387   0.000   6.125
  151        1.738   4.374   0.000   6.113
  152        1.738   4.379   0.000   6.116
  153        1.738   4.380   0.000   6.118
  154        1.737   4.371   0.000   6.108
  155        1.737   4.371   0.000   6.108
  156        1.737   4.369   0.000   6.105
  157        1.737   4.366   0.000   6.103
  158        1.738   4.375   0.000   6.113
  159        1.738   4.377   0.000   6.115
  160        1.736   4.367   0.000   6.103
  161        1.736   4.368   0.000   6.104
  162        1.736   4.368   0.000   6.104
  163        1.736   4.366   0.000   6.102
  164        1.738   4.378   0.000   6.116
  165        1.737   4.369   0.000   6.106
  166        1.736   4.369   0.000   6.105
  167        1.737   4.366   0.000   6.103
  168        1.737   4.371   0.000   6.108
  169        1.738   4.377   0.000   6.115
  170        1.738   4.379   0.000   6.116
  171        1.737   4.369   0.000   6.105
  172        1.738   4.387   0.000   6.125
  173        1.737   4.372   0.000   6.109
  174        1.737   4.368   0.000   6.104
  175        1.739   4.384   0.000   6.123
  176        1.737   4.369   0.000   6.106
  177        1.738   4.379   0.000   6.117
  178        1.737   4.366   0.000   6.102
  179        1.738   4.375   0.000   6.113
  180        1.738   4.378   0.000   6.116
  181        1.736   4.368   0.000   6.104
  182        1.738   4.377   0.000   6.114
  183        1.737   4.368   0.000   6.105
  184        1.737   4.384   0.000   6.121
  185        1.737   4.381   0.000   6.118
  186        1.738   4.382   0.000   6.119
  187        1.737   4.370   0.000   6.107
  188        1.738   4.377   0.000   6.115
  189        1.738   4.380   0.000   6.119
  190        1.738   4.380   0.000   6.118
  191        1.739   4.388   0.000   6.127
  192        1.737   4.368   0.000   6.105
  193        1.739   4.389   0.000   6.128
  194        1.736   4.367   0.000   6.103
  195        1.737   4.367   0.000   6.104
  196        1.737   4.380   0.000   6.118
  197        1.737   4.366   0.000   6.103
  198        1.737   4.380   0.000   6.117
  199        1.738   4.381   0.000   6.119
  200        1.738   4.379   0.000   6.117
  201        1.738   4.381   0.000   6.119
  202        1.738   4.385   0.000   6.122
  203        1.738   4.380   0.000   6.117
  204        1.738   4.379   0.000   6.116
  205        1.737   4.373   0.000   6.110
  206        1.737   4.368   0.000   6.105
  207        1.737   4.368   0.000   6.105
  208        1.737   4.381   0.000   6.119
  209        1.737   4.377   0.000   6.113
  210        1.736   4.369   0.000   6.105
  211        1.737   4.370   0.000   6.107
  212        1.737   4.368   0.000   6.105
  213        1.737   4.384   0.000   6.121
  214        1.736   4.367   0.000   6.104
  215        1.738   4.380   0.000   6.118
  216        1.736   4.366   0.000   6.102
  217        1.737   4.366   0.000   6.102
  218        1.737   4.381   0.000   6.118
  219        1.738   4.376   0.000   6.114
  220        1.738   4.377   0.000   6.115
  221        1.738   4.380   0.000   6.118
  222        1.737   4.377   0.000   6.114
  223        1.737   4.383   0.000   6.120
  224        1.738   4.382   0.000   6.120
  225        1.738   4.381   0.000   6.119
  226        1.738   4.378   0.000   6.116
  227        1.737   4.378   0.000   6.115
  228        1.738   4.378   0.000   6.116
  229        1.738   4.375   0.000   6.113
  230        1.737   4.369   0.000   6.105
  231        1.738   4.373   0.000   6.111
  232        1.737   4.369   0.000   6.106
  233        1.737   4.380   0.000   6.117
  234        1.736   4.369   0.000   6.105
  235        1.737   4.369   0.000   6.106
  236        1.738   4.387   0.000   6.125
  237        1.739   4.384   0.000   6.123
  238        1.737   4.381   0.000   6.118
  239        1.737   4.374   0.000   6.111
  240        1.737   4.380   0.000   6.117
  241        1.737   4.374   0.000   6.111
  242        1.738   4.382   0.000   6.121
  243        1.738   4.385   0.000   6.123
  244        1.738   4.379   0.000   6.117
  245        1.738   4.377   0.000   6.115
  246        1.738   4.375   0.000   6.113
  247        1.738   4.384   0.000   6.122
  248        1.738   4.378   0.000   6.116
  249        1.738   4.385   0.000   6.123
  250        1.738   4.380   0.000   6.118
  251        1.738   4.377   0.000   6.116
  252        1.737   4.378   0.000   6.115
  253        1.738   4.378   0.000   6.116
  254        1.739   4.383   0.000   6.122
  255        1.738   4.376   0.000   6.114
  256        1.738   4.385   0.000   6.123
  257        1.738   4.378   0.000   6.116
--------------------------------------------------
tot        345.4901195.248 112.3541653.092
 


 magnetization (x)
 
# of ion       s       p       d       tot
------------------------------------------
    1       -0.000  -0.000   0.000  -0.000
    2       -0.000  -0.000  -0.000  -0.000
    3       -0.000  -0.000   0.007   0.007
    4        0.000  -0.000  -0.000  -0.000
    5        0.000   0.000   0.005   0.005
    6       -0.000   0.000   0.000   0.000
    7        0.000   0.000   0.000   0.000
    8        0.000   0.000   0.000   0.000
    9        0.000   0.000   0.000   0.000
   10       -0.000  -0.000  -0.000  -0.000
   11       -0.000  -0.000   0.000   0.000
   12        0.000  -0.000  -0.000  -0.000
   13       -0.000  -0.000   0.000   0.000
   14        0.000  -0.000  -0.000  -0.000
   15       -0.000  -0.000   0.000   0.000
   16       -0.000  -0.000  -0.000  -0.000
   17        0.000  -0.000   0.000   0.000
   18       -0.000  -0.000  -0.000  -0.000
   19        0.005   0.006   0.920   0.932
   20       -0.000   0.000  -0.000  -0.000
   21       -0.000   0.000   0.001   0.001
   22        0.000   0.000   0.000   0.000
   23        0.000   0.000   0.001   0.001
   24       -0.000   0.000   0.000   0.000
   25        0.000   0.000   0.000   0.000
   26       -0.000  -0.000  -0.003  -0.004
   27       -0.000  -0.000   0.000  -0.000
   28        0.000   0.000   0.000   0.000
   29       -0.000  -0.000  -0.000  -0.000
   30       -0.000  -0.000   0.000   0.000
   31        0.000  -0.000   0.000   0.000
   32       -0.000  -0.000  -0.000  -0.000
   33       -0.000  -0.000   0.000   0.000
   34        0.000   0.000   0.000   0.000
   35        0.000   0.000   0.000   0.000
   36        0.000   0.000   0.000   0.000
   37        0.000   0.000   0.001   0.001
   38       -0.000  -0.000  -0.000  -0.000
   39        0.000   0.000   0.004   0.004
   40       -0.000  -0.000   0.000   0.000
   41        0.000   0.000   0.002   0.002
   42        0.000  -0.000   0.000   0.000
   43       -0.000  -0.000   0.000   0.000
   44       -0.000  -0.000   0.000   0.000
   45       -0.000  -0.000   0.000   0.000
   46       -0.000  -0.000  -0.000  -0.000
   47       -0.000  -0.000   0.000  -0.000
   48        0.000  -0.000   0.000   0.000
   49       -0.000  -0.000  -0.000  -0.000
   50       -0.000  -0.000   0.000   0.000
   51       -0.000  -0.000   0.005   0.005
   52       -0.000   0.000   0.000   0.000
   53        0.000   0.000   0.000   0.000
   54       -0.000  -0.000  -0.000  -0.000
   55       -0.000   0.000   0.009   0.009
   56       -0.000  -0.000  -0.000  -0.000
   57        0.000   0.000   0.000   0.000
   58        0.000   0.000   0.000   0.000
   59       -0.000  -0.000   0.000   0.000
   60       -0.000  -0.000  -0.000  -0.000
   61        0.000  -0.000   0.000   0.000
   62        0.000  -0.000   0.000   0.000
   63        0.000  -0.000   0.000   0.000
   64       -0.000  -0.000  -0.000  -0.000
   65        0.000   0.000   0.000   0.000
   66       -0.000  -0.000   0.000  -0.000
   67       -0.000  -0.000   0.000  -0.000
   68       -0.000  -0.000   0.000  -0.000
   69       -0.000  -0.000   0.000  -0.000
   70       -0.000  -0.000   0.000  -0.000
   71       -0.000  -0.000   0.000  -0.000
   72       -0.000  -0.000   0.000  -0.000
   73       -0.000  -0.000   0.000  -0.000
   74       -0.001  -0.016   0.000  -0.017
   75       -0.000  -0.000   0.000  -0.000
   76       -0.000  -0.000   0.000  -0.000
   77       -0.000  -0.000   0.000  -0.000
   78       -0.000  -0.000   0.000  -0.000
   79       -0.000  -0.000   0.000  -0.000
   80       -0.000  -0.000   0.000  -0.000
   81        0.000  -0.000   0.000  -0.000
   82       -0.000  -0.000   0.000  -0.000
   83       -0.000  -0.000   0.000  -0.000
   84       -0.000  -0.000   0.000  -0.000
   85       -0.000  -0.000   0.000  -0.000
   86        0.000  -0.000   0.000  -0.000
   87       -0.000  -0.000   0.000  -0.000
   88       -0.000  -0.000   0.000  -0.000
   89       -0.000  -0.000   0.000  -0.000
   90       -0.000  -0.000   0.000  -0.000
   91       -0.000  -0.000   0.000  -0.000
   92       -0.000  -0.000   0.000  -0.000
   93       -0.000  -0.001   0.000  -0.001
   94       -0.000  -0.000   0.000  -0.000
   95       -0.000  -0.000   0.000  -0.000
   96       -0.000  -0.000   0.000  -0.000
   97        0.000  -0.000   0.000  -0.000
   98       -0.000  -0.000   0.000  -0.000
   99       -0.000  -0.000   0.000  -0.000
  100       -0.000   0.000   0.000   0.000
  101        0.000  -0.000   0.000  -0.000
  102       -0.000  -0.000   0.000  -0.000
  103       -0.000   0.000   0.000   0.000
  104       -0.000  -0.001   0.000  -0.001
  105       -0.000  -0.000   0.000  -0.000
  106        0.000  -0.000   0.000  -0.000
  107        0.000   0.000   0.000   0.000
  108       -0.000  -0.000   0.000  -0.000
  109       -0.000  -0.000   0.000  -0.000
  110        0.000   0.000   0.000   0.000
  111       -0.000  -0.000   0.000  -0.000
  112       -0.000  -0.000   0.000  -0.000
  113       -0.000  -0.000   0.000  -0.000
  114       -0.000  -0.000   0.000  -0.000
  115       -0.000  -0.000   0.000  -0.000
  116       -0.000  -0.000   0.000  -0.000
  117        0.000   0.000   0.000   0.000
  118       -0.000  -0.000   0.000  -0.000
  119       -0.000  -0.001   0.000  -0.001
  120       -0.000  -0.000   0.000  -0.000
  121        0.000  -0.000   0.000  -0.000
  122       -0.000  -0.000   0.000  -0.000
  123       -0.000  -0.000   0.000  -0.000
  124       -0.000  -0.001   0.000  -0.001
  125       -0.000  -0.000   0.000  -0.000
  126       -0.000  -0.000   0.000  -0.000
  127       -0.000  -0.000   0.000  -0.000
  128       -0.000  -0.000   0.000  -0.000
  129       -0.000  -0.000   0.000  -0.000
  130       -0.000  -0.000   0.000  -0.000
  131       -0.000  -0.000   0.000  -0.000
  132       -0.000  -0.000   0.000  -0.000
  133       -0.000  -0.000   0.000  -0.000
  134       -0.000  -0.000   0.000  -0.000
  135       -0.000  -0.000   0.000  -0.000
  136       -0.000  -0.000   0.000  -0.000
  137       -0.000  -0.000   0.000  -0.000
  138       -0.000  -0.000   0.000  -0.000
  139       -0.000  -0.000   0.000  -0.000
  140        0.000   0.000   0.000   0.000
  141       -0.000  -0.000   0.000  -0.000
  142       -0.000  -0.005   0.000  -0.005
  143       -0.000  -0.000   0.000  -0.000
  144       -0.000  -0.000   0.000  -0.000
  145       -0.000  -0.000   0.000  -0.000
  146       -0.000  -0.000   0.000  -0.000
  147       -0.000  -0.000   0.000  -0.000
  148       -0.000  -0.000   0.000  -0.000
  149       -0.000  -0.000   0.000  -0.000
  150       -0.000  -0.000   0.000  -0.000
  151       -0.000  -0.000   0.000  -0.000
  152       -0.000   0.000   0.000   0.000
  153        0.000  -0.000   0.000   0.000
  154       -0.000  -0.000   0.000  -0.000
  155       -0.000  -0.000   0.000  -0.000
  156       -0.000  -0.000   0.000  -0.000
  157       -0.000  -0.000   0.000  -0.000
  158        0.000  -0.000   0.000  -0.000
  159        0.000  -0.000   0.000  -0.000
  160       -0.000  -0.000   0.000  -0.000
  161       -0.000  -0.000   0.000  -0.000
  162       -0.000  -0.000   0.000  -0.000
  163       -0.000  -0.000   0.000  -0.000
  164       -0.000  -0.000   0.000  -0.000
  165        0.000  -0.000   0.000  -0.000
  166        0.000  -0.000   0.000  -0.000
  167       -0.000  -0.000   0.000  -0.000
  168       -0.000  -0.000   0.000  -0.000
  169       -0.000  -0.000   0.000  -0.000
  170        0.000  -0.000   0.000  -0.000
  171       -0.000  -0.000   0.000  -0.000
  172        0.000   0.000   0.000   0.000
  173        0.000   0.000   0.000   0.000
  174        0.000   0.000   0.000   0.000
  175       -0.000  -0.000   0.000  -0.000
  176       -0.000   0.000   0.000   0.000
  177       -0.000  -0.000   0.000  -0.000
  178        0.000   0.000   0.000   0.000
  179       -0.000  -0.000   0.000  -0.000
  180       -0.000  -0.000   0.000  -0.000
  181        0.000  -0.000   0.000  -0.000
  182        0.000  -0.000   0.000  -0.000
  183        0.000  -0.000   0.000  -0.000
  184       -0.000   0.002   0.000   0.002
  185       -0.000  -0.000   0.000  -0.000
  186       -0.000  -0.000   0.000  -0.000
  187       -0.000  -0.000   0.000  -0.000
  188       -0.000  -0.000   0.000  -0.000
  189        0.000  -0.000   0.000  -0.000
  190       -0.000  -0.000   0.000  -0.000
  191        0.000   0.000   0.000   0.000
  192        0.000  -0.000   0.000  -0.000
  193        0.000  -0.000   0.000  -0.000
  194        0.000   0.000   0.000   0.000
  195       -0.000  -0.000   0.000  -0.000
  196        0.000  -0.000   0.000  -0.000
  197       -0.000  -0.000   0.000  -0.000
  198       -0.000  -0.000   0.000  -0.000
  199        0.000  -0.000   0.000  -0.000
  200       -0.000  -0.000   0.000  -0.000
  201       -0.000  -0.000   0.000  -0.000
  202       -0.000   0.001   0.000   0.001
  203        0.000   0.000   0.000   0.000
  204       -0.000  -0.000   0.000  -0.000
  205       -0.000  -0.000   0.000  -0.000
  206       -0.000  -0.000   0.000  -0.000
  207        0.000  -0.000   0.000  -0.000
  208       -0.000  -0.000   0.000  -0.000
  209       -0.000  -0.000   0.000  -0.000
  210       -0.000  -0.000   0.000  -0.000
  211        0.000  -0.000   0.000  -0.000
  212       -0.000  -0.000   0.000  -0.000
  213       -0.000   0.002   0.000   0.002
  214       -0.000  -0.000   0.000  -0.000
  215        0.000  -0.000   0.000  -0.000
  216       -0.000  -0.000   0.000  -0.000
  217       -0.000  -0.000   0.000  -0.000
  218        0.000   0.000   0.000   0.000
  219       -0.000  -0.000   0.000  -0.000
  220        0.000  -0.000   0.000  -0.000
  221       -0.000  -0.000   0.000  -0.000
  222        0.000   0.000   0.000   0.000
  223       -0.000   0.002   0.000   0.002
  224       -0.000  -0.000   0.000  -0.000
  225       -0.000  -0.000   0.000  -0.000
  226       -0.000  -0.000   0.000  -0.000
  227       -0.000  -0.000   0.000  -0.000
  228       -0.000  -0.000   0.000  -0.000
  229        0.000   0.000   0.000   0.000
  230       -0.000  -0.000   0.000  -0.000
  231       -0.000  -0.000   0.000  -0.000
  232       -0.000  -0.000   0.000  -0.000
  233        0.000  -0.000   0.000  -0.000
  234        0.000   0.000   0.000   0.000
  235        0.000   0.000   0.000   0.000
  236       -0.000  -0.000   0.000  -0.000
  237        0.000  -0.000   0.000   0.000
  238        0.000   0.000   0.000   0.000
  239        0.000   0.000   0.000   0.000
  240       -0.000  -0.000   0.000  -0.000
  241        0.000   0.000   0.000   0.000
  242        0.000   0.000   0.000   0.000
  243       -0.000  -0.000   0.000  -0.000
  244       -0.000  -0.000   0.000  -0.000
  245       -0.000  -0.000   0.000  -0.000
  246       -0.000  -0.000   0.000  -0.000
  247       -0.000  -0.000   0.000  -0.000
  248        0.000  -0.000   0.000  -0.000
  249        0.000   0.000   0.000   0.000
  250       -0.000  -0.000   0.000  -0.000
  251       -0.000  -0.000   0.000  -0.000
  252        0.000  -0.000   0.000  -0.000
  253        0.000  -0.000   0.000  -0.000
  254       -0.000  -0.000   0.000  -0.000
  255       -0.000  -0.000   0.000  -0.000
  256       -0.000  -0.000   0.000  -0.000
  257       -0.000  -0.000   0.000  -0.000
--------------------------------------------------
tot          0.002  -0.014   0.950   0.939
 

 total amount of memory used by VASP MPI-rank0   291500. kBytes
=======================================================================

   base      :      30000. kBytes
   nonlr-proj:      49465. kBytes
   fftplans  :      27976. kBytes
   grid      :      34041. kBytes
   one-center:       1026. kBytes
   wavefun   :     148992. kBytes
 
  
  
 General timing and accounting informations for this job:
 ========================================================
  
                  Total CPU time used (sec):     3973.804
                            User time (sec):     3586.991
                          System time (sec):      386.813
                         Elapsed time (sec):     4009.260
  
                   Maximum memory used (kb):      632780.
                   Average memory used (kb):           0.
  
                          Minor page faults:       271274
                          Major page faults:           11
                 Voluntary context switches:        28412
