 vasp.5.4.4.18Apr17-6-g9f103f2a35 (build Apr 30 2017 20:10:35) complex          
  
 executed on             LinuxIFC date 2017.08.06  23:41:47
 running on   64 total cores
 distrk:  each k-point on   64 cores,    1 groups
 distr:  one band on NCORES_PER_BAND=   8 cores,    8 groups


--------------------------------------------------------------------------------------------------------


 INCAR:
 POTCAR:   PAW_PBE Ti_pv 07Sep2000                
 POTCAR:   PAW_PBE O 08Apr2002                    
 POTCAR:    PAW_PBE F 08Apr2002                   
 POTCAR:   PAW_PBE Ti_pv 07Sep2000                
   VRHFIN =Ti: d3 s1                                                            
   LEXCH  = PE                                                                  
   EATOM  =  1042.3781 eV,   76.6126 Ry                                         
                                                                                
   TITEL  = PAW_PBE Ti_pv 07Sep2000                                             
   LULTRA =        F    use ultrasoft PP ?                                      
   IUNSCR =        1    unscreen: 0-lin 1-nonlin 2-no                           
   RPACOR =    2.200    partial core radius                                     
   POMASS =   47.880; ZVAL   =   10.000    mass and valenz                      
   RCORE  =    2.500    outmost cutoff radius                                   
   RWIGS  =    2.500; RWIGS  =    1.323    wigner-seitz radius (au A)           
   ENMAX  =  222.338; ENMIN  =  166.753 eV                                      
   RCLOC  =    1.701    cutoff for local pot                                    
   LCOR   =        T    correct aug charges                                     
   LPAW   =        T    paw PP                                                  
   EAUG   =  482.848                                                            
   DEXC   =    -.008                                                            
   RMAX   =    3.092    core radius for proj-oper                               
   RAUG   =    1.300    factor for augmentation sphere                          
   RDEP   =    2.538    radius for radial grids                                 
   QCUT   =   -4.042; QGAM   =    8.085    optimization parameters              
                                                                                
   Description                                                                  
     l     E      TYP  RCUT    TYP  RCUT                                        
     1   .000     23  2.300                                                     
     1  -.100     23  2.300                                                     
     2   .000     23  2.500                                                     
     2   .000     23  2.500                                                     
     0   .000     23  2.500                                                     
     0  1.500     23  2.500                                                     
     3   .000      7   .000                                                     
  local pseudopotential read in
  partial core-charges read in
  atomic valenz-charges read in
  non local Contribution for L=           1  read in
    real space projection operators read in
  non local Contribution for L=           1  read in
    real space projection operators read in
  non local Contribution for L=           2  read in
    real space projection operators read in
  non local Contribution for L=           2  read in
    real space projection operators read in
  non local Contribution for L=           0  read in
    real space projection operators read in
  non local Contribution for L=           0  read in
    real space projection operators read in
    PAW grid and wavefunctions read in
 
   number of l-projection  operators is LMAX  =           6
   number of lm-projection operators is LMMAX =          18
 
 POTCAR:   PAW_PBE O 08Apr2002                    
   VRHFIN =O: s2p4                                                              
   LEXCH  = PE                                                                  
   EATOM  =   432.3788 eV,   31.7789 Ry                                         
                                                                                
   TITEL  = PAW_PBE O 08Apr2002                                                 
   LULTRA =        F    use ultrasoft PP ?                                      
   IUNSCR =        0    unscreen: 0-lin 1-nonlin 2-no                           
   RPACOR =     .000    partial core radius                                     
   POMASS =   16.000; ZVAL   =    6.000    mass and valenz                      
   RCORE  =    1.520    outmost cutoff radius                                   
   RWIGS  =    1.550; RWIGS  =     .820    wigner-seitz radius (au A)           
   ENMAX  =  400.000; ENMIN  =  300.000 eV                                      
   ICORE  =        2    local potential                                         
   LCOR   =        T    correct aug charges                                     
   LPAW   =        T    paw PP                                                  
   EAUG   =  605.392                                                            
   DEXC   =     .000                                                            
   RMAX   =    2.264    core radius for proj-oper                               
   RAUG   =    1.300    factor for augmentation sphere                          
   RDEP   =    1.550    radius for radial grids                                 
   QCUT   =   -5.520; QGAM   =   11.041    optimization parameters              
                                                                                
   Description                                                                  
     l     E      TYP  RCUT    TYP  RCUT                                        
     0   .000     23  1.200                                                     
     0  -.700     23  1.200                                                     
     1   .000     23  1.520                                                     
     1   .600     23  1.520                                                     
     2   .000      7  1.500                                                     
  local pseudopotential read in
  atomic valenz-charges read in
  non local Contribution for L=           0  read in
    real space projection operators read in
  non local Contribution for L=           0  read in
    real space projection operators read in
  non local Contribution for L=           1  read in
    real space projection operators read in
  non local Contribution for L=           1  read in
    real space projection operators read in
    PAW grid and wavefunctions read in
 
   number of l-projection  operators is LMAX  =           4
   number of lm-projection operators is LMMAX =           8
 
 POTCAR:    PAW_PBE F 08Apr2002                   
   VRHFIN =F: s2p5                                                              
   LEXCH  = PE                                                                  
   EATOM  =   659.6475 eV,   48.4827 Ry                                         
                                                                                
   TITEL  = PAW_PBE F 08Apr2002                                                 
   LULTRA =        F    use ultrasoft PP ?                                      
   IUNSCR =        1    unscreen: 0-lin 1-nonlin 2-no                           
   RPACOR =    1.200    partial core radius                                     
   POMASS =   18.998; ZVAL   =    7.000    mass and valenz                      
   RCORE  =    1.520    outmost cutoff radius                                   
   RWIGS  =    1.500; RWIGS  =    0.794    wigner-seitz radius (au A)           
   ENMAX  =  400.000; ENMIN  =  300.000 eV                                      
   ICORE  =        2    local potential                                         
   LCOR   =        T    correct aug charges                                     
   LPAW   =        T    paw PP                                                  
   EAUG   =  613.614                                                            
   RMAX   =    1.555    core radius for proj-oper                               
   RAUG   =    1.300    factor for augmentation sphere                          
   RDEP   =    1.539    radius for radial grids                                 
   RDEPT  =    1.299    core radius for aug-charge                              
                                                                                
   Atomic configuration                                                         
    4 entries                                                                   
     n  l   j            E        occ.                                          
     1  0  0.50      -663.3661   2.0000                                         
     2  0  0.50       -29.8995   2.0000                                         
     2  1  0.50       -11.1114   5.0000                                         
     3  2  1.50       -10.8847   0.0000                                         
   Description                                                                  
     l       E           TYP  RCUT    TYP  RCUT                                 
     0    -29.8995018     23  1.200                                             
     0     -9.5240782     23  1.200                                             
     1    -11.1113914     23  1.520                                             
     1      1.3605826     23  1.520                                             
     2    -10.8846608      7  1.500                                             
  local pseudopotential read in
  partial core-charges read in
  partial kinetic energy density read in
  atomic valenz-charges read in
  non local Contribution for L=           0  read in
    real space projection operators read in
  non local Contribution for L=           0  read in
    real space projection operators read in
  non local Contribution for L=           1  read in
    real space projection operators read in
  non local Contribution for L=           1  read in
    real space projection operators read in
    PAW grid and wavefunctions read in
 
   number of l-projection  operators is LMAX  =           4
   number of lm-projection operators is LMMAX =           8
 
 Optimization of the real space projectors (new method)

 maximal supplied QI-value         = 15.12
 optimisation between [QCUT,QGAM] = [ 13.45, 27.06] = [ 50.69,205.06] Ry 
 Optimized for a Real-space Cutoff    1.49 Angstroem

   l    n(q)    QCUT    max X(q) W(low)/X(q) W(high)/X(q)  e(spline) 
   1     12    13.455     4.841    0.13E-05    0.83E-06    0.56E-07
   1     12    13.455     5.701    0.32E-04    0.25E-04    0.17E-06
   2     11    13.455     4.569    0.64E-05    0.34E-05    0.50E-07
   2     11    13.455    32.276    0.49E-04    0.38E-04    0.46E-06
   0     12    13.455    30.046    0.17E-04    0.41E-05    0.51E-07
   0     12    13.455    45.433    0.12E-04    0.27E-04    0.38E-06
 Optimization of the real space projectors (new method)

 maximal supplied QI-value         = 24.76
 optimisation between [QCUT,QGAM] = [ 13.37, 26.98] = [ 50.04,203.89] Ry 
 Optimized for a Real-space Cutoff    1.17 Angstroem

   l    n(q)    QCUT    max X(q) W(low)/X(q) W(high)/X(q)  e(spline) 
   0      9    13.368     4.192    0.20E-04    0.58E-05    0.56E-07
   0      9    13.368     8.473    0.60E-04    0.52E-04    0.21E-06
   1      9    13.368     2.474    0.22E-04    0.17E-04    0.28E-07
   1      9    13.368     3.912    0.94E-04    0.97E-04    0.20E-06
 Optimization of the real space projectors (new method)

 maximal supplied QI-value         = 24.76
 optimisation between [QCUT,QGAM] = [ 13.37, 26.98] = [ 50.04,203.89] Ry 
 Optimized for a Real-space Cutoff    1.17 Angstroem

   l    n(q)    QCUT    max X(q) W(low)/X(q) W(high)/X(q)  e(spline) 
   0      9    13.368    14.049    0.39E-04    0.34E-04    0.16E-06
   0      9    13.368     8.945    0.54E-04    0.47E-04    0.20E-06
   1      9    13.368     7.086    0.99E-04    0.10E-03    0.23E-06
   1      9    13.368     6.747    0.86E-04    0.89E-04    0.21E-06

 ----------------------------------------------------------------------------- 
|                                                                             |
|  ADVICE TO THIS USER RUNNING 'VASP/VAMP'   (HEAR YOUR MASTER'S VOICE ...):  |
|                                                                             |
|      You enforced a specific xc-type in the INCAR file,                     |
|      a different type was found on the POTCAR file                          |
|          I HOPE YOU KNOW, WHAT YOU ARE  DOING                               |
|                                                                             |
 ----------------------------------------------------------------------------- 

 PAW_PBE Ti_pv 07Sep2000                :
 energy of atom  1       EATOM=-1042.3781
 kinetic energy error for atom=    0.0006 (will be added to EATOM!!)
 PAW_PBE O 08Apr2002                    :
 energy of atom  2       EATOM= -432.3788
 kinetic energy error for atom=    0.0091 (will be added to EATOM!!)
  PAW_PBE F 08Apr2002                   :
 energy of atom  3       EATOM= -659.6475
 kinetic energy error for atom=    0.0140 (will be added to EATOM!!)
 
 
 POSCAR: TiOF2 2x2x2 config 0254                 
  positions in direct lattice
  velocities in cartesian coordinates
 exchange correlation table for  LEXCH =       14
   RHO(1)=    0.500       N(1)  =     2000
   RHO(2)=  100.500       N(2)  =     4000

 VTST: version 3.1, (03/28/14)

 CHAIN: initializing optimizer
 
 OPT: Using VASP QUASI-newton optimizer
 CHAIN: Read ICHAIN            0
 
 POSCAR: TiOF2 2x2x2 config 0254                 
  positions in direct lattice
  velocities in cartesian coordinates
 


--------------------------------------------------------------------------------------------------------


 ion  position               nearest neighbor table
   1  0.000  0.989  0.989-   9 1.83  13 1.83  17 1.97  21 1.97  29 2.01  25 2.01
   2  0.000  0.989  0.511-  10 1.83  13 1.83  18 1.97  22 1.97  29 2.01  26 2.01
   3  1.000  0.511  0.988-  14 1.83   9 1.83  23 1.97  19 1.97  25 2.00  30 2.01
   4  1.000  0.511  0.512-  14 1.83  10 1.83  20 1.97  24 1.97  26 2.00  30 2.01
   5  0.500  0.989  0.988-  15 1.82  11 1.83  21 1.97  17 1.97  27 2.00  31 2.01
   6  0.500  0.989  0.512-  15 1.82  12 1.83  22 1.97  18 1.97  28 2.00  31 2.01
   7  0.500  0.511  0.013-  16 1.82  11 1.83  19 1.97  23 1.97  27 2.00  32 2.02
   8  0.500  0.511  0.487-  16 1.82  12 1.83  20 1.97  24 1.97  28 2.00  32 2.02
   9  0.000  0.750  0.007-   1 1.83   3 1.83
  10  1.000  0.750  0.493-   2 1.83   4 1.83
  11  0.500  0.750  1.000-   5 1.83   7 1.83
  12  0.500  0.750  0.500-   6 1.83   8 1.83
  13  0.000  0.006  0.750-   1 1.83   2 1.83
  14  1.000  0.494  0.750-   4 1.83   3 1.83
  15  0.500  0.005  0.750-   6 1.82   5 1.82
  16  0.500  0.495  0.250-   7 1.82   8 1.82
  17  0.250  0.006  0.007-   1 1.97   5 1.97
  18  0.250  0.006  0.493-   2 1.97   6 1.97
  19  0.250  0.494  0.999-   3 1.97   7 1.97
  20  0.250  0.494  0.501-   4 1.97   8 1.97
  21  0.750  0.006  0.007-   1 1.97   5 1.97
  22  0.750  0.006  0.493-   2 1.97   6 1.97
  23  0.750  0.494  0.999-   3 1.97   7 1.97
  24  0.750  0.494  0.501-   4 1.97   8 1.97
  25  1.000  0.250  0.009-   3 2.00   1 2.01
  26  0.000  0.250  0.491-   4 2.00   2 2.01
  27  0.500  0.250  1.000-   7 2.00   5 2.00
  28  0.500  0.250  0.500-   8 2.00   6 2.00
  29  0.000  0.009  0.250-   2 2.01   1 2.01
  30  0.000  0.492  0.250-   3 2.01   4 2.01
  31  0.500  0.009  0.250-   5 2.01   6 2.01
  32  0.500  0.491  0.750-   8 2.02   7 2.02
 

IMPORTANT INFORMATION: All symmetrisations will be switched off!
NOSYMM: (Re-)initialisation of all symmetry stuff for point group C_1.

 
 
 KPOINTS: Title                                   

Automatic generation of k-mesh.
Space group operators:
 irot       det(A)        alpha          n_x          n_y          n_z        tau_x        tau_y        tau_z
    1     1.000000     0.000000     1.000000     0.000000     0.000000     0.000000     0.000000     0.000000
 
 Subroutine IBZKPT returns following result:
 ===========================================
 
 Found     32 irreducible k-points:
 
 Following reciprocal coordinates:
            Coordinates               Weight
  0.125000  0.125000  0.125000      2.000000
  0.375000  0.125000  0.125000      2.000000
 -0.375000  0.125000  0.125000      2.000000
 -0.125000  0.125000  0.125000      2.000000
  0.125000  0.375000  0.125000      2.000000
  0.375000  0.375000  0.125000      2.000000
 -0.375000  0.375000  0.125000      2.000000
 -0.125000  0.375000  0.125000      2.000000
  0.125000 -0.375000  0.125000      2.000000
  0.375000 -0.375000  0.125000      2.000000
 -0.375000 -0.375000  0.125000      2.000000
 -0.125000 -0.375000  0.125000      2.000000
  0.125000 -0.125000  0.125000      2.000000
  0.375000 -0.125000  0.125000      2.000000
 -0.375000 -0.125000  0.125000      2.000000
 -0.125000 -0.125000  0.125000      2.000000
  0.125000  0.125000  0.375000      2.000000
  0.375000  0.125000  0.375000      2.000000
 -0.375000  0.125000  0.375000      2.000000
 -0.125000  0.125000  0.375000      2.000000
  0.125000  0.375000  0.375000      2.000000
  0.375000  0.375000  0.375000      2.000000
 -0.375000  0.375000  0.375000      2.000000
 -0.125000  0.375000  0.375000      2.000000
  0.125000 -0.375000  0.375000      2.000000
  0.375000 -0.375000  0.375000      2.000000
 -0.375000 -0.375000  0.375000      2.000000
 -0.125000 -0.375000  0.375000      2.000000
  0.125000 -0.125000  0.375000      2.000000
  0.375000 -0.125000  0.375000      2.000000
 -0.375000 -0.125000  0.375000      2.000000
 -0.125000 -0.125000  0.375000      2.000000
 
 Following cartesian coordinates:
            Coordinates               Weight
  0.015905  0.016340  0.016335      2.000000
  0.047715  0.016340  0.016335      2.000000
 -0.047715  0.016340  0.016335      2.000000
 -0.015905  0.016340  0.016335      2.000000
  0.015905  0.049021  0.016335      2.000000
  0.047715  0.049021  0.016335      2.000000
 -0.047715  0.049021  0.016335      2.000000
 -0.015905  0.049021  0.016335      2.000000
  0.015905 -0.049021  0.016335      2.000000
  0.047715 -0.049021  0.016335      2.000000
 -0.047715 -0.049021  0.016335      2.000000
 -0.015905 -0.049021  0.016335      2.000000
  0.015905 -0.016340  0.016335      2.000000
  0.047715 -0.016340  0.016335      2.000000
 -0.047715 -0.016340  0.016335      2.000000
 -0.015905 -0.016340  0.016335      2.000000
  0.015905  0.016340  0.049006      2.000000
  0.047715  0.016340  0.049006      2.000000
 -0.047715  0.016340  0.049006      2.000000
 -0.015905  0.016340  0.049006      2.000000
  0.015905  0.049021  0.049006      2.000000
  0.047715  0.049021  0.049006      2.000000
 -0.047715  0.049021  0.049006      2.000000
 -0.015905  0.049021  0.049006      2.000000
  0.015905 -0.049021  0.049006      2.000000
  0.047715 -0.049021  0.049006      2.000000
 -0.047715 -0.049021  0.049006      2.000000
 -0.015905 -0.049021  0.049006      2.000000
  0.015905 -0.016340  0.049006      2.000000
  0.047715 -0.016340  0.049006      2.000000
 -0.047715 -0.016340  0.049006      2.000000
 -0.015905 -0.016340  0.049006      2.000000
 


--------------------------------------------------------------------------------------------------------




 Dimension of arrays:
   k-points           NKPTS =     32   k-points in BZ     NKDIM =     32   number of bands    NBANDS=    160
   number of dos      NEDOS =   3001   number of ions     NIONS =     32
   non local maximal  LDIM  =      6   non local SUM 2l+1 LMDIM =     18
   total plane-waves  NPLWV = 343000
   max r-space proj   IRMAX =  10337   max aug-charges    IRDMAX= 231743
   dimension x,y,z NGX =    70 NGY =   70 NGZ =   70
   dimension x,y,z NGXF=   140 NGYF=  140 NGZF=  140
   support grid    NGXF=   280 NGYF=  280 NGZF=  280
   ions per type =               8   8  16
   NGX,Y,Z   is equivalent  to a cutoff of  14.81, 15.21, 15.21 a.u.
   NGXF,Y,Z  is equivalent  to a cutoff of  29.61, 30.43, 30.42 a.u.

 SYSTEM =  LTO                                     
 POSCAR =  TiOF2 2x2x2 config 0254                 

 Startparameter for this run:
   NWRITE =      2    write-flag & timer
   PREC   = accura    normal or accurate (medium, high low for compatibility)
   ISTART =      1    job   : 0-new  1-cont  2-samecut
   ICHARG =      0    charge: 1-file 2-atom 10-const
   ISPIN  =      2    spin polarized calculation?
   LNONCOLLINEAR =      F non collinear calculations
   LSORBIT =      F    spin-orbit coupling
   INIWAV =      1    electr: 0-lowe 1-rand  2-diag
   LASPH  =      T    aspherical Exc in radial PAW
   METAGGA=      F    non-selfconsistent MetaGGA calc.

 Electronic Relaxation 1
   ENCUT  =  700.0 eV  51.45 Ry    7.17 a.u.  16.95 16.50 16.51*2*pi/ulx,y,z
   ENINI  =  700.0     initial cutoff
   ENAUG  =  613.6 eV  augmentation charge cutoff
   NELM   =     60;   NELMIN=  2; NELMDL=  0     # of ELM steps 
   EDIFF  = 0.1E-05   stopping-criterion for ELM
   LREAL  =      T    real-space projection
   NLSPLINE    = F    spline interpolate recip. space projectors
   LCOMPAT=      F    compatible to vasp.4.4
   GGA_COMPAT  = T    GGA compatible to vasp.4.4-vasp.4.6
   LMAXPAW     = -100 max onsite density
   LMAXMIX     =    4 max onsite mixed and CHGCAR
   VOSKOWN=      0    Vosko Wilk Nusair interpolation
   ROPT   =   -0.00010  -0.00010  -0.00010
 Ionic relaxation
   EDIFFG = -.1E-01   stopping-criterion for IOM
   NSW    =    100    number of steps for IOM
   NBLOCK =      1;   KBLOCK =    100    inner block; outer block 
   IBRION =      1    ionic relax: 0-MD 1-quasi-New 2-CG
   NFREE  =      0    steps in history (QN), initial steepest desc. (CG)
   ISIF   =      3    stress and relaxation
   IWAVPR =     11    prediction:  0-non 1-charg 2-wave 3-comb
   ISYM   =      0    0-nonsym 1-usesym 2-fastsym
   LCORR  =      T    Harris-Foulkes like correction to forces

   POTIM  = 0.5000    time-step for ionic-motion
   TEIN   =    0.0    initial temperature
   TEBEG  =    0.0;   TEEND  =   0.0 temperature during run
   SMASS  =  -3.00    Nose mass-parameter (am)
   estimated Nose-frequenzy (Omega)   =  0.10E-29 period in steps =****** mass=  -0.141E-26a.u.
   SCALEE = 1.0000    scale energy and forces
   NPACO  =    256;   APACO  = 16.0  distance and # of slots for P.C.
   PSTRESS=    0.0 pullay stress

  Mass of Ions in am
   POMASS =  47.88 16.00 19.00
  Ionic Valenz
   ZVAL   =  10.00  6.00  7.00
  Atomic Wigner-Seitz radii
   RWIGS  =  -1.00 -1.00 -1.00
  virtual crystal weights 
   VCA    =   1.00  1.00  1.00
   NELECT =     240.0000    total number of electrons
   NUPDOWN=      -1.0000    fix difference up-down

 DOS related values:
   EMIN   =  10.00;   EMAX   =-10.00  energy-range for DOS
   EFERMI =   0.00
   ISMEAR =     0;   SIGMA  =   0.01  broadening in eV -4-tet -1-fermi 0-gaus

 Electronic relaxation 2 (details)
   IALGO  =     38    algorithm
   LDIAG  =      T    sub-space diagonalisation (order eigenvalues)
   LSUBROT=      F    optimize rotation matrix (better conditioning)
   TURBO    =      0    0=normal 1=particle mesh
   IRESTART =      0    0=no restart 2=restart with 2 vectors
   NREBOOT  =      0    no. of reboots
   NMIN     =      0    reboot dimension
   EREF     =   0.00    reference energy to select bands
   IMIX   =      4    mixing-type and parameters
     AMIX     =   0.40;   BMIX     =  1.00
     AMIX_MAG =   1.60;   BMIX_MAG =  1.00
     AMIN     =   0.10
     WC   =   100.;   INIMIX=   1;  MIXPRE=   1;  MAXMIX= -45

 Intra band minimization:
   WEIMIN = 0.0010     energy-eigenvalue tresh-hold
   EBREAK =  0.16E-08  absolut break condition
   DEPER  =   0.30     relativ break condition  

   TIME   =   0.40     timestep for ELM

  volume/ion in A,a.u.               =      14.38        97.02
  Fermi-wavevector in a.u.,A,eV,Ry     =   1.317885  2.490441 23.630870  1.736820
  Thomas-Fermi vector in A             =   2.447894
 
 Write flags
   LWAVE        =      T    write WAVECAR
   LDOWNSAMPLE  =      F    k-point downsampling of WAVECAR
   LCHARG       =      T    write CHGCAR
   LVTOT        =      F    write LOCPOT, total local potential
   LVHAR        =      F    write LOCPOT, Hartree potential only
   LELF         =      F    write electronic localiz. function (ELF)
   LORBIT       =     11    0 simple, 1 ext, 2 COOP (PROOUT), +10 PAW based schemes


 Dipole corrections
   LMONO  =      F    monopole corrections only (constant potential shift)
   LDIPOL =      F    correct potential (dipole corrections)
   IDIPOL =      0    1-x, 2-y, 3-z, 4-all directions 
   EPSILON=  1.0000000 bulk dielectric constant

 LDA+U is selected, type is set to LDAUTYPE =  2
   angular momentum for each species LDAUL =     2   -1   -1
   U (eV)           for each species LDAUU =   4.2  0.0  0.0
   J (eV)           for each species LDAUJ =   0.0  0.0  0.0
 Exchange correlation treatment:
   GGA     =    PS    GGA type
   LEXCH   =    14    internal setting for exchange type
   VOSKOWN=      0    Vosko Wilk Nusair interpolation
   LHFCALC =     F    Hartree Fock is set to
   LHFONE  =     F    Hartree Fock one center treatment
   AEXX    =    0.0000 exact exchange contribution

 Linear response parameters
   LEPSILON=     F    determine dielectric tensor
   LRPA    =     F    only Hartree local field effects (RPA)
   LNABLA  =     F    use nabla operator in PAW spheres
   LVEL    =     F    velocity operator in full k-point grid
   LINTERFAST=   F  fast interpolation
   KINTER  =     0    interpolate to denser k-point grid
   CSHIFT  =0.1000    complex shift for real part using Kramers Kronig
   OMEGAMAX=  -1.0    maximum frequency
   DEG_THRESHOLD= 0.2000000E-02 threshold for treating states as degnerate
   RTIME   =   -0.100 relaxation time in fs
  (WPLASMAI=    0.000 imaginary part of plasma frequency in eV, 0.658/RTIME)
   DFIELD  = 0.0000000 0.0000000 0.0000000 field for delta impulse in time
 
 Orbital magnetization related:
   ORBITALMAG=     F  switch on orbital magnetization
   LCHIMAG   =     F  perturbation theory with respect to B field
   DQ        =  0.001000  dq finite difference perturbation B field
   LLRAUG    =     F  two centre corrections for induced B field



--------------------------------------------------------------------------------------------------------


 quasi-Newton-method for relaxation of ions
 charge density and potential will be updated during run
 spin polarized calculation
 Variant of blocked Davidson
 Davidson routine will perform the subspace rotation
 perform sub-space diagonalisation
    after iterative eigenvector-optimisation
 modified Broyden-mixing scheme, WC =      100.0
 initial mixing is a Kerker type mixing with AMIX =  0.4000 and BMIX =      1.0000
 Hartree-type preconditioning will be used
 using additional bands           40
 real space projection scheme for non local part
 use partial core corrections
 calculate Harris-corrections to forces 
   (improved forces if not selfconsistent)
 use gradient corrections 
 use of overlap-Matrix (Vanderbilt PP)
 Gauss-broadening in eV      SIGMA  =   0.01


--------------------------------------------------------------------------------------------------------


  energy-cutoff  :      700.00
  volume of cell :      460.05
      direct lattice vectors                 reciprocal lattice vectors
     7.859169857  0.000003332  0.000000731     0.127239902 -0.000000054 -0.000000012
     0.000003248  7.649758624  0.000000315    -0.000000055  0.130723079 -0.000000005
     0.000000715  0.000000314  7.652073579    -0.000000012 -0.000000005  0.130683532

  length of vectors
     7.859169857  7.649758624  7.652073579     0.127239902  0.130723079  0.130683532


 
 old parameters found on file WAVECAR:
  energy-cutoff  :      700.00
  volume of cell :      459.95
      direct lattice vectors                 reciprocal lattice vectors
     7.858423253 -0.000000003  0.000000007     0.127251990 -0.000000000 -0.000000000
     0.000000002  7.649218041  0.000000009     0.000000000  0.130732317 -0.000000000
     0.000000011  0.000000007  7.651754151    -0.000000000 -0.000000000  0.130688987

  length of vectors

 
 k-points in units of 2pi/SCALE and weight: Title                                   
   0.01590498  0.01634038  0.01633544       0.031
   0.04771495  0.01634036  0.01633544       0.031
  -0.04771497  0.01634040  0.01633545       0.031
  -0.01590500  0.01634039  0.01633544       0.031
   0.01590497  0.04902115  0.01633544       0.031
   0.04771494  0.04902113  0.01633543       0.031
  -0.04771499  0.04902117  0.01633544       0.031
  -0.01590501  0.04902116  0.01633544       0.031
   0.01590501 -0.04902116  0.01633544       0.031
   0.04771498 -0.04902118  0.01633544       0.031
  -0.04771494 -0.04902113  0.01633545       0.031
  -0.01590497 -0.04902115  0.01633544       0.031
   0.01590499 -0.01634039  0.01633544       0.031
   0.04771497 -0.01634041  0.01633544       0.031
  -0.04771496 -0.01634037  0.01633545       0.031
  -0.01590498 -0.01634038  0.01633544       0.031
   0.01590498  0.01634038  0.04900632       0.031
   0.04771495  0.01634036  0.04900632       0.031
  -0.04771497  0.01634040  0.04900633       0.031
  -0.01590500  0.01634039  0.04900633       0.031
   0.01590496  0.04902115  0.04900632       0.031
   0.04771494  0.04902113  0.04900632       0.031
  -0.04771499  0.04902117  0.04900633       0.031
  -0.01590501  0.04902116  0.04900632       0.031
   0.01590500 -0.04902116  0.04900632       0.031
   0.04771498 -0.04902118  0.04900632       0.031
  -0.04771495 -0.04902114  0.04900633       0.031
  -0.01590497 -0.04902115  0.04900633       0.031
   0.01590499 -0.01634039  0.04900632       0.031
   0.04771497 -0.01634041  0.04900632       0.031
  -0.04771496 -0.01634037  0.04900633       0.031
  -0.01590499 -0.01634038  0.04900633       0.031
 
 k-points in reciprocal lattice and weights: Title                                   
   0.12500000  0.12500000  0.12500000       0.031
   0.37500000  0.12500000  0.12500000       0.031
  -0.37500000  0.12500000  0.12500000       0.031
  -0.12500000  0.12500000  0.12500000       0.031
   0.12500000  0.37500000  0.12500000       0.031
   0.37500000  0.37500000  0.12500000       0.031
  -0.37500000  0.37500000  0.12500000       0.031
  -0.12500000  0.37500000  0.12500000       0.031
   0.12500000 -0.37500000  0.12500000       0.031
   0.37500000 -0.37500000  0.12500000       0.031
  -0.37500000 -0.37500000  0.12500000       0.031
  -0.12500000 -0.37500000  0.12500000       0.031
   0.12500000 -0.12500000  0.12500000       0.031
   0.37500000 -0.12500000  0.12500000       0.031
  -0.37500000 -0.12500000  0.12500000       0.031
  -0.12500000 -0.12500000  0.12500000       0.031
   0.12500000  0.12500000  0.37500000       0.031
   0.37500000  0.12500000  0.37500000       0.031
  -0.37500000  0.12500000  0.37500000       0.031
  -0.12500000  0.12500000  0.37500000       0.031
   0.12500000  0.37500000  0.37500000       0.031
   0.37500000  0.37500000  0.37500000       0.031
  -0.37500000  0.37500000  0.37500000       0.031
  -0.12500000  0.37500000  0.37500000       0.031
   0.12500000 -0.37500000  0.37500000       0.031
   0.37500000 -0.37500000  0.37500000       0.031
  -0.37500000 -0.37500000  0.37500000       0.031
  -0.12500000 -0.37500000  0.37500000       0.031
   0.12500000 -0.12500000  0.37500000       0.031
   0.37500000 -0.12500000  0.37500000       0.031
  -0.37500000 -0.12500000  0.37500000       0.031
  -0.12500000 -0.12500000  0.37500000       0.031
 
 position of ions in fractional coordinates (direct lattice) 
   0.00000002  0.98860701  0.98868510
   0.00000003  0.98860711  0.51131462
   0.99999995  0.51129484  0.98806059
   0.99999998  0.51129493  0.51193969
   0.50000003  0.98873788  0.98791291
   0.50000002  0.98873773  0.51208733
   0.49999997  0.51121942  0.01261501
   0.49999994  0.51121902  0.48738529
   0.00000000  0.74999815  0.00666646
   0.99999999  0.74999779  0.49333367
   0.49999999  0.75000580  0.99950557
   0.49999998  0.75000666  0.50049450
   0.00000001  0.00602785  0.75000022
   0.99999999  0.49392001  0.74999990
   0.49999999  0.00503460  0.74999928
   0.49999997  0.49520813  0.24999977
   0.25000234  0.00623460  0.00666396
   0.25000252  0.00623471  0.49333590
   0.25002172  0.49364339  0.99937485
   0.25002175  0.49364331  0.50062529
   0.74999766  0.00623447  0.00666396
   0.74999747  0.00623474  0.49333589
   0.74997828  0.49364348  0.99937484
   0.74997824  0.49364329  0.50062525
   0.99999995  0.25006199  0.00886991
   0.00000004  0.25006211  0.49113017
   0.50000007  0.25007768  0.99967030
   0.49999993  0.25007752  0.50032969
   0.00000002  0.00863138  0.24999989
   0.00000015  0.49157462  0.25000007
   0.49999999  0.00946077  0.25000009
   0.49999998  0.49062502  0.75000004
 
 position of ions in cartesian coordinates  (Angst):
   0.00000410  7.56260532  7.56549145
   0.00000379  7.56260590  3.91261742
   7.85917179  3.91128577  7.56071321
   7.85917176  3.91128633  3.91740105
   3.92958909  7.56360811  7.55958292
   3.92958866  7.56360677  3.91853060
   3.92958635  3.91070684  0.09653149
   3.92958648  3.91070394  3.72950866
   0.00000247  5.73730478  0.05101244
   7.85917255  5.73730553  3.77502649
   3.92958801  5.73736528  7.64829077
   3.92958755  5.73737176  3.82982132
   0.00000065  0.04611184  5.73905689
   7.85917192  3.77837241  5.73905534
   3.92958541  0.03851535  5.73905007
   3.92958651  3.78822440  1.91301717
   1.96481091  0.04769404  0.05099326
   1.96481265  0.04769498  3.77504279
   1.96496545  3.77625391  7.64729021
   1.96496538  3.77625316  3.83082191
   5.89435901  0.04769472  0.05099365
   5.89435788  0.04769694  3.77504308
   5.89420899  3.77625630  7.64729052
   5.89420837  3.77625468  3.83082196
   7.85917031  1.91291721  0.06787398
   0.00000149  1.91291492  3.75816428
   3.92958702  1.91303585  7.64955115
   3.92958555  1.91303448  3.82856008
   0.00000040  0.06602803  1.91301755
   0.00000296  3.76042726  1.91301905
   3.92958508  0.07237432  1.91301943
   3.92958694  3.75316491  5.73905604
 


--------------------------------------------------------------------------------------------------------


 k-point  1 :   0.1250 0.1250 0.1250  plane waves:   19355
 k-point  2 :   0.3750 0.1250 0.1250  plane waves:   19369
 k-point  3 :  -0.3750 0.1250 0.1250  plane waves:   19369
 k-point  4 :  -0.1250 0.1250 0.1250  plane waves:   19355
 k-point  5 :   0.1250 0.3750 0.1250  plane waves:   19333
 k-point  6 :   0.3750 0.3750 0.1250  plane waves:   19353
 k-point  7 :  -0.3750 0.3750 0.1250  plane waves:   19353
 k-point  8 :  -0.1250 0.3750 0.1250  plane waves:   19333
 k-point  9 :   0.1250-0.3750 0.1250  plane waves:   19333
 k-point 10 :   0.3750-0.3750 0.1250  plane waves:   19353
 k-point 11 :  -0.3750-0.3750 0.1250  plane waves:   19353
 k-point 12 :  -0.1250-0.3750 0.1250  plane waves:   19333
 k-point 13 :   0.1250-0.1250 0.1250  plane waves:   19355
 k-point 14 :   0.3750-0.1250 0.1250  plane waves:   19369
 k-point 15 :  -0.3750-0.1250 0.1250  plane waves:   19369
 k-point 16 :  -0.1250-0.1250 0.1250  plane waves:   19355
 k-point 17 :   0.1250 0.1250 0.3750  plane waves:   19334
 k-point 18 :   0.3750 0.1250 0.3750  plane waves:   19350
 k-point 19 :  -0.3750 0.1250 0.3750  plane waves:   19350
 k-point 20 :  -0.1250 0.1250 0.3750  plane waves:   19334
 k-point 21 :   0.1250 0.3750 0.3750  plane waves:   19337
 k-point 22 :   0.3750 0.3750 0.3750  plane waves:   19349
 k-point 23 :  -0.3750 0.3750 0.3750  plane waves:   19349
 k-point 24 :  -0.1250 0.3750 0.3750  plane waves:   19337
 k-point 25 :   0.1250-0.3750 0.3750  plane waves:   19337
 k-point 26 :   0.3750-0.3750 0.3750  plane waves:   19349
 k-point 27 :  -0.3750-0.3750 0.3750  plane waves:   19349
 k-point 28 :  -0.1250-0.3750 0.3750  plane waves:   19337
 k-point 29 :   0.1250-0.1250 0.3750  plane waves:   19334
 k-point 30 :   0.3750-0.1250 0.3750  plane waves:   19350
 k-point 31 :  -0.3750-0.1250 0.3750  plane waves:   19350
 k-point 32 :  -0.1250-0.1250 0.3750  plane waves:   19334

 maximum and minimum number of plane-waves per node :      2456     2395

 maximum number of plane-waves:     19369
 maximum index in each direction: 
   IXMAX=   17   IYMAX=   16   IZMAX=   16
   IXMIN=  -17   IYMIN=  -16   IZMIN=  -16


 real space projection operators:
  total allocation   :      18602.81 KBytes
  max/ min on nodes  :       2482.00       1931.22


 parallel 3D FFT for wavefunctions:
    minimum data exchange during FFTs selected (reduces bandwidth)
 parallel 3D FFT for charge:
    minimum data exchange during FFTs selected (reduces bandwidth)


 total amount of memory used by VASP MPI-rank0   106739. kBytes
=======================================================================

   base      :      30000. kBytes
   nonlr-proj:       8619. kBytes
   fftplans  :       8423. kBytes
   grid      :       8783. kBytes
   one-center:        124. kBytes
   wavefun   :      50790. kBytes
 
     INWAV:  cpu time   29.7475: real time   37.5699
 Broyden mixing: mesh for mixing (old mesh)
   NGX = 33   NGY = 33   NGZ = 33
  (NGX  =140   NGY  =140   NGZ  =140)
  gives a total of  35937 points

 charge density for first step will be calculated from the start-wavefunctions


--------------------------------------------------------------------------------------------------------


 Maximum index for non-local projection operator         1384
 Maximum index for augmentation-charges         7192 (set IRDMAX)


--------------------------------------------------------------------------------------------------------


 initial charge from wavefunction
 First call to EWALD:  gamma=   0.230
 Maximum number of real-space cells 3x 3x 3
 Maximum number of reciprocal cells 3x 3x 3

    FEWALD:  cpu time    0.0040: real time    0.0032


--------------------------------------- Iteration      1(   1)  ---------------------------------------


    POTLOK:  cpu time    0.2060: real time    0.2483
    SETDIJ:  cpu time    0.8669: real time    0.8696
     EDDAV:  cpu time   27.1799: real time   27.2789
       DOS:  cpu time    0.0030: real time    0.0032
    CHARGE:  cpu time    1.1838: real time    1.1925
    MIXING:  cpu time    0.0020: real time    0.0020
    --------------------------------------------
      LOOP:  cpu time   29.4415: real time   29.5945

 eigenvalue-minimisations  : 18688
 total energy-change (2. order) :-0.2136169E+03  (-0.2301633E-03)
 number of electron     240.0000003 magnetization      -0.0000000
 augmentation part       61.9494649 magnetization      -0.0000000

 Broyden mixing:
  rms(total) = 0.29642E-03    rms(broyden)= 0.29617E-03
  rms(prec ) = 0.42934E-03
  weight for this iteration     100.00

 Free energy of the ion-electron system (eV)
  ---------------------------------------------------
  alpha Z        PSCENC =       761.15053925
  Ewald energy   TEWEN  =    -12828.38615961
  -Hartree energ DENC   =     -8218.17158100
  -exchange      EXHF   =         0.00000000
  -V(xc)+E(xc)   XCENC  =      1119.88562041
  PAW double counting   =     18021.42349336   -18145.18201898
  entropy T*S    EENTRO =        -0.00000000
  eigenvalues    EBANDS =     -3226.69000959
  atomic energy  EATOM  =     22302.35321627
  Solvation  Ediel_sol  =         0.00000000
  ---------------------------------------------------
  free energy    TOTEN  =      -213.61689989 eV

  energy without entropy =     -213.61689989  energy(sigma->0) =     -213.61689989


--------------------------------------------------------------------------------------------------------




--------------------------------------- Iteration      1(   2)  ---------------------------------------


    POTLOK:  cpu time    0.2250: real time    0.2358
    SETDIJ:  cpu time    0.8689: real time    0.8670
     EDDAV:  cpu time   18.9621: real time   18.9644
       DOS:  cpu time    0.0030: real time    0.0034
    --------------------------------------------
      LOOP:  cpu time   20.0590: real time   20.0707

 eigenvalue-minimisations  : 10624
 total energy-change (2. order) : 0.2315355E-06  (-0.5197499E-07)
 number of electron     240.0000003 magnetization      -0.0000000
 augmentation part       61.9494649 magnetization      -0.0000000

 Free energy of the ion-electron system (eV)
  ---------------------------------------------------
  alpha Z        PSCENC =       761.15053925
  Ewald energy   TEWEN  =    -12828.38615961
  -Hartree energ DENC   =     -8218.18115977
  -exchange      EXHF   =         0.00000000
  -V(xc)+E(xc)   XCENC  =      1119.88634054
  PAW double counting   =     18021.43353415   -18145.19279805
  entropy T*S    EENTRO =        -0.00000000
  eigenvalues    EBANDS =     -3226.68041244
  atomic energy  EATOM  =     22302.35321627
  Solvation  Ediel_sol  =         0.00000000
  ---------------------------------------------------
  free energy    TOTEN  =      -213.61689966 eV

  energy without entropy =     -213.61689966  energy(sigma->0) =     -213.61689966


--------------------------------------------------------------------------------------------------------




 average (electrostatic) potential at core
  the test charge radii are     1.0397  0.7215  0.7167
  (the norm of the test charge is              1.0000)
       1 -58.9285       2 -58.9285       3 -58.9185       4 -58.9185       5 -58.8997
       6 -58.8996       7 -58.8902       8 -58.8902       9 -74.1137      10 -74.1137
      11 -74.1125      12 -74.1124      13 -74.1152      14 -74.1199      15 -74.1145
      16 -74.1217      17 -79.2691      18 -79.2691      19 -79.2872      20 -79.2872
      21 -79.2691      22 -79.2691      23 -79.2872      24 -79.2872      25 -78.6459
      26 -78.6459      27 -78.6751      28 -78.6751      29 -78.6375      30 -78.6523
      31 -78.6537      32 -78.6650
 
 
 
 E-fermi :  -0.6715     XC(G=0):  -9.0007     alpha+bet : -7.6808


 spin component 1

 k-point     1 :       0.1250    0.1250    0.1250
  band No.  band energies     occupation 
      1     -34.9645      1.00000
      2     -34.9611      1.00000
      3     -34.9589      1.00000
      4     -34.9556      1.00000
      5     -34.8731      1.00000
      6     -34.8701      1.00000
      7     -34.8669      1.00000
      8     -34.8638      1.00000
      9     -34.8185      1.00000
     10     -34.8034      1.00000
     11     -34.8033      1.00000
     12     -34.7948      1.00000
     13     -34.7917      1.00000
     14     -34.7853      1.00000
     15     -34.7819      1.00000
     16     -34.7706      1.00000
     17     -34.7275      1.00000
     18     -34.7154      1.00000
     19     -34.7148      1.00000
     20     -34.7070      1.00000
     21     -34.7001      1.00000
     22     -34.6943      1.00000
     23     -34.6902      1.00000
     24     -34.6799      1.00000
     25     -23.1780      1.00000
     26     -23.1380      1.00000
     27     -23.1294      1.00000
     28     -23.0946      1.00000
     29     -22.7326      1.00000
     30     -22.7185      1.00000
     31     -22.7125      1.00000
     32     -22.6996      1.00000
     33     -22.4752      1.00000
     34     -22.4264      1.00000
     35     -22.3594      1.00000
     36     -22.3207      1.00000
     37     -22.3102      1.00000
     38     -22.3028      1.00000
     39     -22.2243      1.00000
     40     -22.1876      1.00000
     41     -16.7523      1.00000
     42     -16.7426      1.00000
     43     -16.6301      1.00000
     44     -16.5941      1.00000
     45     -16.5916      1.00000
     46     -16.5624      1.00000
     47     -16.4799      1.00000
     48     -16.4621      1.00000
     49      -6.7569      1.00000
     50      -6.7305      1.00000
     51      -6.7069      1.00000
     52      -6.6775      1.00000
     53      -6.0938      1.00000
     54      -6.0127      1.00000
     55      -5.9796      1.00000
     56      -5.9395      1.00000
     57      -5.9022      1.00000
     58      -5.8711      1.00000
     59      -5.8074      1.00000
     60      -5.7173      1.00000
     61      -5.5835      1.00000
     62      -5.4350      1.00000
     63      -5.4001      1.00000
     64      -5.3279      1.00000
     65      -5.2895      1.00000
     66      -5.2589      1.00000
     67      -5.2416      1.00000
     68      -5.2117      1.00000
     69      -4.9214      1.00000
     70      -4.8368      1.00000
     71      -4.4527      1.00000
     72      -4.4468      1.00000
     73      -4.4110      1.00000
     74      -4.3882      1.00000
     75      -4.3808      1.00000
     76      -4.3717      1.00000
     77      -4.3571      1.00000
     78      -4.3269      1.00000
     79      -4.2647      1.00000
     80      -4.2603      1.00000
     81      -4.2329      1.00000
     82      -4.2086      1.00000
     83      -4.0448      1.00000
     84      -3.8761      1.00000
     85      -3.7651      1.00000
     86      -3.7035      1.00000
     87      -3.6256      1.00000
     88      -3.5246      1.00000
     89      -3.4945      1.00000
     90      -3.4850      1.00000
     91      -3.3877      1.00000
     92      -3.3669      1.00000
     93      -3.3478      1.00000
     94      -3.2897      1.00000
     95      -3.1909      1.00000
     96      -3.1320      1.00000
     97      -3.0922      1.00000
     98      -3.0717      1.00000
     99      -3.0367      1.00000
    100      -3.0206      1.00000
    101      -2.9689      1.00000
    102      -2.9504      1.00000
    103      -2.8841      1.00000
    104      -2.8532      1.00000
    105      -2.6146      1.00000
    106      -2.4762      1.00000
    107      -2.3159      1.00000
    108      -2.2546      1.00000
    109      -2.2332      1.00000
    110      -2.1041      1.00000
    111      -2.0379      1.00000
    112      -2.0278      1.00000
    113      -1.9447      1.00000
    114      -1.8810      1.00000
    115      -1.8563      1.00000
    116      -1.7796      1.00000
    117      -1.6861      1.00000
    118      -1.6235      1.00000
    119      -0.8470      1.00000
    120      -0.7177      1.00000
    121       1.9475      0.00000
    122       1.9602      0.00000
    123       1.9855      0.00000
    124       2.0412      0.00000
    125       2.0514      0.00000
    126       2.1156      0.00000
    127       2.6508      0.00000
    128       2.6616      0.00000
    129       2.6906      0.00000
    130       2.7093      0.00000
    131       3.0211      0.00000
    132       3.1314      0.00000
    133       3.1584      0.00000
    134       3.2390      0.00000
    135       3.3217      0.00000
    136       3.4063      0.00000
    137       3.4134      0.00000
    138       3.4291      0.00000
    139       3.5194      0.00000
    140       3.5390      0.00000
    141       3.5571      0.00000
    142       3.6797      0.00000
    143       3.7048      0.00000
    144       3.7559      0.00000
    145       3.7610      0.00000
    146       3.8429      0.00000
    147       3.8695      0.00000
    148       3.9470      0.00000
    149       4.0913      0.00000
    150       4.1235      0.00000
    151       4.2193      0.00000
    152       4.2465      0.00000
    153       4.6382      0.00000
    154       5.2266      0.00000
    155       5.3382      0.00000
    156       5.8859      0.00000
    157       6.0528      0.00000
    158       6.2180      0.00000
    159       6.2420      0.00000
    160       6.8106      0.00000

 k-point     2 :       0.3750    0.1250    0.1250
  band No.  band energies     occupation 
      1     -34.9408      1.00000
      2     -34.9376      1.00000
      3     -34.9350      1.00000
      4     -34.9317      1.00000
      5     -34.8975      1.00000
      6     -34.8943      1.00000
      7     -34.8915      1.00000
      8     -34.8883      1.00000
      9     -34.8183      1.00000
     10     -34.8033      1.00000
     11     -34.8032      1.00000
     12     -34.7947      1.00000
     13     -34.7916      1.00000
     14     -34.7853      1.00000
     15     -34.7819      1.00000
     16     -34.7706      1.00000
     17     -34.7274      1.00000
     18     -34.7153      1.00000
     19     -34.7148      1.00000
     20     -34.7070      1.00000
     21     -34.7001      1.00000
     22     -34.6943      1.00000
     23     -34.6902      1.00000
     24     -34.6800      1.00000
     25     -23.0579      1.00000
     26     -23.0207      1.00000
     27     -23.0129      1.00000
     28     -22.9816      1.00000
     29     -22.8773      1.00000
     30     -22.8481      1.00000
     31     -22.8418      1.00000
     32     -22.8183      1.00000
     33     -22.4478      1.00000
     34     -22.4319      1.00000
     35     -22.3523      1.00000
     36     -22.3116      1.00000
     37     -22.3084      1.00000
     38     -22.3051      1.00000
     39     -22.2241      1.00000
     40     -22.1877      1.00000
     41     -16.7504      1.00000
     42     -16.7438      1.00000
     43     -16.6296      1.00000
     44     -16.5939      1.00000
     45     -16.5908      1.00000
     46     -16.5635      1.00000
     47     -16.4775      1.00000
     48     -16.4650      1.00000
     49      -6.4030      1.00000
     50      -6.3835      1.00000
     51      -6.3688      1.00000
     52      -6.3651      1.00000
     53      -6.1145      1.00000
     54      -6.0221      1.00000
     55      -5.9721      1.00000
     56      -5.9595      1.00000
     57      -5.9194      1.00000
     58      -5.9140      1.00000
     59      -5.8805      1.00000
     60      -5.8106      1.00000
     61      -5.7832      1.00000
     62      -5.7669      1.00000
     63      -5.7214      1.00000
     64      -5.6773      1.00000
     65      -5.1153      1.00000
     66      -5.1061      1.00000
     67      -5.0415      1.00000
     68      -5.0284      1.00000
     69      -4.9160      1.00000
     70      -4.8470      1.00000
     71      -4.7517      1.00000
     72      -4.7190      1.00000
     73      -4.6445      1.00000
     74      -4.6334      1.00000
     75      -4.4401      1.00000
     76      -4.4238      1.00000
     77      -4.4068      1.00000
     78      -4.3356      1.00000
     79      -4.3286      1.00000
     80      -4.3122      1.00000
     81      -4.2699      1.00000
     82      -4.2449      1.00000
     83      -3.9645      1.00000
     84      -3.8599      1.00000
     85      -3.8240      1.00000
     86      -3.6685      1.00000
     87      -3.4961      1.00000
     88      -3.4310      1.00000
     89      -3.3895      1.00000
     90      -3.3381      1.00000
     91      -3.3130      1.00000
     92      -3.3007      1.00000
     93      -3.2768      1.00000
     94      -3.2348      1.00000
     95      -3.1984      1.00000
     96      -3.1800      1.00000
     97      -3.1478      1.00000
     98      -3.1297      1.00000
     99      -3.1002      1.00000
    100      -3.0404      1.00000
    101      -2.9674      1.00000
    102      -2.9554      1.00000
    103      -2.8978      1.00000
    104      -2.8724      1.00000
    105      -2.6171      1.00000
    106      -2.4803      1.00000
    107      -2.2602      1.00000
    108      -2.1627      1.00000
    109      -2.1367      1.00000
    110      -2.0343      1.00000
    111      -2.0191      1.00000
    112      -1.9724      1.00000
    113      -1.9526      1.00000
    114      -1.9414      1.00000
    115      -1.8809      1.00000
    116      -1.8575      1.00000
    117      -1.7802      1.00000
    118      -1.7705      1.00000
    119      -0.8463      1.00000
    120      -0.7176      1.00000
    121       2.0448      0.00000
    122       2.1114      0.00000
    123       2.1499      0.00000
    124       2.1586      0.00000
    125       2.1837      0.00000
    126       2.2042      0.00000
    127       2.4387      0.00000
    128       2.4488      0.00000
    129       2.4757      0.00000
    130       2.4973      0.00000
    131       3.2235      0.00000
    132       3.2425      0.00000
    133       3.2798      0.00000
    134       3.3405      0.00000
    135       3.3899      0.00000
    136       3.4096      0.00000
    137       3.4540      0.00000
    138       3.4973      0.00000
    139       3.5513      0.00000
    140       3.5894      0.00000
    141       3.6866      0.00000
    142       3.7258      0.00000
    143       3.7463      0.00000
    144       3.7635      0.00000
    145       3.7819      0.00000
    146       3.8179      0.00000
    147       3.8822      0.00000
    148       4.0498      0.00000
    149       4.0845      0.00000
    150       4.1341      0.00000
    151       4.2096      0.00000
    152       4.3507      0.00000
    153       4.5644      0.00000
    154       5.3555      0.00000
    155       5.4430      0.00000
    156       5.5332      0.00000
    157       5.8688      0.00000
    158       5.9272      0.00000
    159       6.4860      0.00000
    160       6.8114      0.00000

 k-point     3 :      -0.3750    0.1250    0.1250
  band No.  band energies     occupation 
      1     -34.9408      1.00000
      2     -34.9376      1.00000
      3     -34.9350      1.00000
      4     -34.9317      1.00000
      5     -34.8975      1.00000
      6     -34.8943      1.00000
      7     -34.8915      1.00000
      8     -34.8883      1.00000
      9     -34.8183      1.00000
     10     -34.8033      1.00000
     11     -34.8032      1.00000
     12     -34.7947      1.00000
     13     -34.7916      1.00000
     14     -34.7853      1.00000
     15     -34.7819      1.00000
     16     -34.7706      1.00000
     17     -34.7274      1.00000
     18     -34.7153      1.00000
     19     -34.7148      1.00000
     20     -34.7070      1.00000
     21     -34.7001      1.00000
     22     -34.6943      1.00000
     23     -34.6902      1.00000
     24     -34.6800      1.00000
     25     -23.0579      1.00000
     26     -23.0207      1.00000
     27     -23.0129      1.00000
     28     -22.9816      1.00000
     29     -22.8773      1.00000
     30     -22.8481      1.00000
     31     -22.8418      1.00000
     32     -22.8183      1.00000
     33     -22.4478      1.00000
     34     -22.4319      1.00000
     35     -22.3523      1.00000
     36     -22.3116      1.00000
     37     -22.3084      1.00000
     38     -22.3051      1.00000
     39     -22.2241      1.00000
     40     -22.1877      1.00000
     41     -16.7504      1.00000
     42     -16.7438      1.00000
     43     -16.6296      1.00000
     44     -16.5939      1.00000
     45     -16.5908      1.00000
     46     -16.5635      1.00000
     47     -16.4775      1.00000
     48     -16.4650      1.00000
     49      -6.4030      1.00000
     50      -6.3835      1.00000
     51      -6.3688      1.00000
     52      -6.3651      1.00000
     53      -6.1145      1.00000
     54      -6.0221      1.00000
     55      -5.9721      1.00000
     56      -5.9595      1.00000
     57      -5.9194      1.00000
     58      -5.9140      1.00000
     59      -5.8805      1.00000
     60      -5.8106      1.00000
     61      -5.7832      1.00000
     62      -5.7669      1.00000
     63      -5.7214      1.00000
     64      -5.6773      1.00000
     65      -5.1153      1.00000
     66      -5.1061      1.00000
     67      -5.0415      1.00000
     68      -5.0284      1.00000
     69      -4.9160      1.00000
     70      -4.8470      1.00000
     71      -4.7517      1.00000
     72      -4.7190      1.00000
     73      -4.6445      1.00000
     74      -4.6334      1.00000
     75      -4.4401      1.00000
     76      -4.4238      1.00000
     77      -4.4068      1.00000
     78      -4.3356      1.00000
     79      -4.3286      1.00000
     80      -4.3122      1.00000
     81      -4.2699      1.00000
     82      -4.2449      1.00000
     83      -3.9645      1.00000
     84      -3.8599      1.00000
     85      -3.8240      1.00000
     86      -3.6685      1.00000
     87      -3.4961      1.00000
     88      -3.4310      1.00000
     89      -3.3895      1.00000
     90      -3.3381      1.00000
     91      -3.3130      1.00000
     92      -3.3007      1.00000
     93      -3.2768      1.00000
     94      -3.2348      1.00000
     95      -3.1984      1.00000
     96      -3.1800      1.00000
     97      -3.1478      1.00000
     98      -3.1297      1.00000
     99      -3.1002      1.00000
    100      -3.0404      1.00000
    101      -2.9674      1.00000
    102      -2.9554      1.00000
    103      -2.8978      1.00000
    104      -2.8724      1.00000
    105      -2.6171      1.00000
    106      -2.4803      1.00000
    107      -2.2602      1.00000
    108      -2.1627      1.00000
    109      -2.1367      1.00000
    110      -2.0343      1.00000
    111      -2.0191      1.00000
    112      -1.9724      1.00000
    113      -1.9526      1.00000
    114      -1.9414      1.00000
    115      -1.8809      1.00000
    116      -1.8575      1.00000
    117      -1.7802      1.00000
    118      -1.7705      1.00000
    119      -0.8463      1.00000
    120      -0.7176      1.00000
    121       2.0448      0.00000
    122       2.1114      0.00000
    123       2.1499      0.00000
    124       2.1586      0.00000
    125       2.1837      0.00000
    126       2.2042      0.00000
    127       2.4387      0.00000
    128       2.4488      0.00000
    129       2.4757      0.00000
    130       2.4973      0.00000
    131       3.2235      0.00000
    132       3.2425      0.00000
    133       3.2798      0.00000
    134       3.3405      0.00000
    135       3.3899      0.00000
    136       3.4096      0.00000
    137       3.4540      0.00000
    138       3.4973      0.00000
    139       3.5513      0.00000
    140       3.5894      0.00000
    141       3.6866      0.00000
    142       3.7258      0.00000
    143       3.7463      0.00000
    144       3.7635      0.00000
    145       3.7819      0.00000
    146       3.8179      0.00000
    147       3.8822      0.00000
    148       4.0498      0.00000
    149       4.0845      0.00000
    150       4.1341      0.00000
    151       4.2096      0.00000
    152       4.3507      0.00000
    153       4.5644      0.00000
    154       5.3555      0.00000
    155       5.4430      0.00000
    156       5.5332      0.00000
    157       5.8688      0.00000
    158       5.9272      0.00000
    159       6.4860      0.00000
    160       6.8114      0.00000

 k-point     4 :      -0.1250    0.1250    0.1250
  band No.  band energies     occupation 
      1     -34.9645      1.00000
      2     -34.9611      1.00000
      3     -34.9589      1.00000
      4     -34.9556      1.00000
      5     -34.8731      1.00000
      6     -34.8701      1.00000
      7     -34.8669      1.00000
      8     -34.8638      1.00000
      9     -34.8185      1.00000
     10     -34.8034      1.00000
     11     -34.8033      1.00000
     12     -34.7948      1.00000
     13     -34.7917      1.00000
     14     -34.7853      1.00000
     15     -34.7819      1.00000
     16     -34.7706      1.00000
     17     -34.7275      1.00000
     18     -34.7154      1.00000
     19     -34.7148      1.00000
     20     -34.7070      1.00000
     21     -34.7001      1.00000
     22     -34.6943      1.00000
     23     -34.6902      1.00000
     24     -34.6799      1.00000
     25     -23.1780      1.00000
     26     -23.1380      1.00000
     27     -23.1294      1.00000
     28     -23.0946      1.00000
     29     -22.7326      1.00000
     30     -22.7185      1.00000
     31     -22.7125      1.00000
     32     -22.6996      1.00000
     33     -22.4752      1.00000
     34     -22.4264      1.00000
     35     -22.3594      1.00000
     36     -22.3207      1.00000
     37     -22.3102      1.00000
     38     -22.3028      1.00000
     39     -22.2243      1.00000
     40     -22.1876      1.00000
     41     -16.7523      1.00000
     42     -16.7426      1.00000
     43     -16.6301      1.00000
     44     -16.5941      1.00000
     45     -16.5916      1.00000
     46     -16.5624      1.00000
     47     -16.4799      1.00000
     48     -16.4621      1.00000
     49      -6.7569      1.00000
     50      -6.7305      1.00000
     51      -6.7069      1.00000
     52      -6.6775      1.00000
     53      -6.0938      1.00000
     54      -6.0127      1.00000
     55      -5.9796      1.00000
     56      -5.9395      1.00000
     57      -5.9022      1.00000
     58      -5.8711      1.00000
     59      -5.8074      1.00000
     60      -5.7173      1.00000
     61      -5.5835      1.00000
     62      -5.4350      1.00000
     63      -5.4001      1.00000
     64      -5.3279      1.00000
     65      -5.2895      1.00000
     66      -5.2589      1.00000
     67      -5.2416      1.00000
     68      -5.2117      1.00000
     69      -4.9214      1.00000
     70      -4.8368      1.00000
     71      -4.4527      1.00000
     72      -4.4468      1.00000
     73      -4.4110      1.00000
     74      -4.3882      1.00000
     75      -4.3808      1.00000
     76      -4.3717      1.00000
     77      -4.3571      1.00000
     78      -4.3269      1.00000
     79      -4.2647      1.00000
     80      -4.2603      1.00000
     81      -4.2329      1.00000
     82      -4.2086      1.00000
     83      -4.0448      1.00000
     84      -3.8761      1.00000
     85      -3.7651      1.00000
     86      -3.7035      1.00000
     87      -3.6256      1.00000
     88      -3.5246      1.00000
     89      -3.4945      1.00000
     90      -3.4850      1.00000
     91      -3.3877      1.00000
     92      -3.3669      1.00000
     93      -3.3478      1.00000
     94      -3.2897      1.00000
     95      -3.1909      1.00000
     96      -3.1320      1.00000
     97      -3.0922      1.00000
     98      -3.0717      1.00000
     99      -3.0367      1.00000
    100      -3.0206      1.00000
    101      -2.9689      1.00000
    102      -2.9504      1.00000
    103      -2.8841      1.00000
    104      -2.8532      1.00000
    105      -2.6146      1.00000
    106      -2.4762      1.00000
    107      -2.3159      1.00000
    108      -2.2546      1.00000
    109      -2.2332      1.00000
    110      -2.1041      1.00000
    111      -2.0379      1.00000
    112      -2.0278      1.00000
    113      -1.9447      1.00000
    114      -1.8810      1.00000
    115      -1.8563      1.00000
    116      -1.7796      1.00000
    117      -1.6861      1.00000
    118      -1.6235      1.00000
    119      -0.8470      1.00000
    120      -0.7177      1.00000
    121       1.9475      0.00000
    122       1.9602      0.00000
    123       1.9855      0.00000
    124       2.0412      0.00000
    125       2.0514      0.00000
    126       2.1156      0.00000
    127       2.6508      0.00000
    128       2.6616      0.00000
    129       2.6906      0.00000
    130       2.7093      0.00000
    131       3.0211      0.00000
    132       3.1314      0.00000
    133       3.1584      0.00000
    134       3.2390      0.00000
    135       3.3217      0.00000
    136       3.4063      0.00000
    137       3.4134      0.00000
    138       3.4291      0.00000
    139       3.5194      0.00000
    140       3.5390      0.00000
    141       3.5571      0.00000
    142       3.6797      0.00000
    143       3.7048      0.00000
    144       3.7559      0.00000
    145       3.7610      0.00000
    146       3.8429      0.00000
    147       3.8695      0.00000
    148       3.9470      0.00000
    149       4.0913      0.00000
    150       4.1235      0.00000
    151       4.2193      0.00000
    152       4.2465      0.00000
    153       4.6382      0.00000
    154       5.2266      0.00000
    155       5.3382      0.00000
    156       5.8859      0.00000
    157       6.0528      0.00000
    158       6.2180      0.00000
    159       6.2420      0.00000
    160       6.8106      0.00000

 k-point     5 :       0.1250    0.3750    0.1250
  band No.  band energies     occupation 
      1     -34.9642      1.00000
      2     -34.9608      1.00000
      3     -34.9592      1.00000
      4     -34.9559      1.00000
      5     -34.8729      1.00000
      6     -34.8698      1.00000
      7     -34.8671      1.00000
      8     -34.8640      1.00000
      9     -34.8112      1.00000
     10     -34.8041      1.00000
     11     -34.7893      1.00000
     12     -34.7832      1.00000
     13     -34.7811      1.00000
     14     -34.7766      1.00000
     15     -34.7592      1.00000
     16     -34.7560      1.00000
     17     -34.7437      1.00000
     18     -34.7370      1.00000
     19     -34.7226      1.00000
     20     -34.7164      1.00000
     21     -34.7155      1.00000
     22     -34.7064      1.00000
     23     -34.6924      1.00000
     24     -34.6859      1.00000
     25     -23.1717      1.00000
     26     -23.1361      1.00000
     27     -23.1314      1.00000
     28     -23.0982      1.00000
     29     -22.7303      1.00000
     30     -22.7169      1.00000
     31     -22.7144      1.00000
     32     -22.7011      1.00000
     33     -22.4673      1.00000
     34     -22.4205      1.00000
     35     -22.3549      1.00000
     36     -22.3211      1.00000
     37     -22.3064      1.00000
     38     -22.3020      1.00000
     39     -22.2231      1.00000
     40     -22.1847      1.00000
     41     -16.7710      1.00000
     42     -16.7621      1.00000
     43     -16.6413      1.00000
     44     -16.6139      1.00000
     45     -16.6048      1.00000
     46     -16.5723      1.00000
     47     -16.4796      1.00000
     48     -16.4658      1.00000
     49      -6.7445      1.00000
     50      -6.7224      1.00000
     51      -6.7013      1.00000
     52      -6.6714      1.00000
     53      -6.0023      1.00000
     54      -5.9353      1.00000
     55      -5.9209      1.00000
     56      -5.8630      1.00000
     57      -5.7483      1.00000
     58      -5.6003      1.00000
     59      -5.5714      1.00000
     60      -5.5611      1.00000
     61      -5.4480      1.00000
     62      -5.4449      1.00000
     63      -5.3937      1.00000
     64      -5.2829      1.00000
     65      -5.2580      1.00000
     66      -5.2254      1.00000
     67      -5.1471      1.00000
     68      -5.0789      1.00000
     69      -4.7951      1.00000
     70      -4.7346      1.00000
     71      -4.6848      1.00000
     72      -4.6739      1.00000
     73      -4.4465      1.00000
     74      -4.4274      1.00000
     75      -4.4195      1.00000
     76      -4.3841      1.00000
     77      -4.3415      1.00000
     78      -4.3246      1.00000
     79      -4.2470      1.00000
     80      -4.2395      1.00000
     81      -4.1649      1.00000
     82      -4.1123      1.00000
     83      -4.0882      1.00000
     84      -4.0585      1.00000
     85      -3.9776      1.00000
     86      -3.8812      1.00000
     87      -3.7910      1.00000
     88      -3.6752      1.00000
     89      -3.6647      1.00000
     90      -3.5910      1.00000
     91      -3.5649      1.00000
     92      -3.4786      1.00000
     93      -3.4611      1.00000
     94      -3.4399      1.00000
     95      -3.3393      1.00000
     96      -3.2726      1.00000
     97      -3.1031      1.00000
     98      -3.0660      1.00000
     99      -3.0317      1.00000
    100      -3.0188      1.00000
    101      -2.9853      1.00000
    102      -2.9750      1.00000
    103      -2.8561      1.00000
    104      -2.7994      1.00000
    105      -2.6803      1.00000
    106      -2.6679      1.00000
    107      -2.3291      1.00000
    108      -2.2728      1.00000
    109      -2.1978      1.00000
    110      -2.1913      1.00000
    111      -2.0875      1.00000
    112      -2.0231      1.00000
    113      -1.8817      1.00000
    114      -1.8166      1.00000
    115      -1.7755      1.00000
    116      -1.6801      1.00000
    117      -1.6685      1.00000
    118      -1.6290      1.00000
    119      -0.8781      1.00000
    120      -0.8354      1.00000
    121       1.9574      0.00000
    122       1.9900      0.00000
    123       2.2307      0.00000
    124       2.2551      0.00000
    125       2.2745      0.00000
    126       2.2888      0.00000
    127       2.6597      0.00000
    128       2.7077      0.00000
    129       2.8172      0.00000
    130       2.8433      0.00000
    131       3.0222      0.00000
    132       3.1302      0.00000
    133       3.1436      0.00000
    134       3.2346      0.00000
    135       3.2645      0.00000
    136       3.3141      0.00000
    137       3.3328      0.00000
    138       3.3913      0.00000
    139       3.4860      0.00000
    140       3.5340      0.00000
    141       3.5454      0.00000
    142       3.5635      0.00000
    143       3.5928      0.00000
    144       3.8151      0.00000
    145       3.8345      0.00000
    146       3.8421      0.00000
    147       3.8816      0.00000
    148       4.0057      0.00000
    149       4.0377      0.00000
    150       4.1980      0.00000
    151       4.2293      0.00000
    152       4.8400      0.00000
    153       4.9713      0.00000
    154       5.0795      0.00000
    155       5.6964      0.00000
    156       5.7193      0.00000
    157       5.8515      0.00000
    158       6.2722      0.00000
    159       6.4433      0.00000
    160       6.5405      0.00000

 k-point     6 :       0.3750    0.3750    0.1250
  band No.  band energies     occupation 
      1     -34.9406      1.00000
      2     -34.9373      1.00000
      3     -34.9353      1.00000
      4     -34.9320      1.00000
      5     -34.8973      1.00000
      6     -34.8941      1.00000
      7     -34.8918      1.00000
      8     -34.8886      1.00000
      9     -34.8111      1.00000
     10     -34.8040      1.00000
     11     -34.7893      1.00000
     12     -34.7831      1.00000
     13     -34.7810      1.00000
     14     -34.7766      1.00000
     15     -34.7592      1.00000
     16     -34.7560      1.00000
     17     -34.7436      1.00000
     18     -34.7369      1.00000
     19     -34.7225      1.00000
     20     -34.7165      1.00000
     21     -34.7155      1.00000
     22     -34.7064      1.00000
     23     -34.6925      1.00000
     24     -34.6859      1.00000
     25     -23.0521      1.00000
     26     -23.0190      1.00000
     27     -23.0147      1.00000
     28     -22.9848      1.00000
     29     -22.8727      1.00000
     30     -22.8465      1.00000
     31     -22.8435      1.00000
     32     -22.8208      1.00000
     33     -22.4412      1.00000
     34     -22.4258      1.00000
     35     -22.3480      1.00000
     36     -22.3129      1.00000
     37     -22.3063      1.00000
     38     -22.3019      1.00000
     39     -22.2229      1.00000
     40     -22.1849      1.00000
     41     -16.7692      1.00000
     42     -16.7631      1.00000
     43     -16.6403      1.00000
     44     -16.6141      1.00000
     45     -16.6047      1.00000
     46     -16.5726      1.00000
     47     -16.4764      1.00000
     48     -16.4694      1.00000
     49      -6.3797      1.00000
     50      -6.3756      1.00000
     51      -6.3607      1.00000
     52      -6.3537      1.00000
     53      -6.0254      1.00000
     54      -5.9614      1.00000
     55      -5.9223      1.00000
     56      -5.9056      1.00000
     57      -5.8778      1.00000
     58      -5.8441      1.00000
     59      -5.7721      1.00000
     60      -5.6925      1.00000
     61      -5.6856      1.00000
     62      -5.6488      1.00000
     63      -5.5439      1.00000
     64      -5.4841      1.00000
     65      -5.1006      1.00000
     66      -5.0569      1.00000
     67      -4.9353      1.00000
     68      -4.8656      1.00000
     69      -4.8261      1.00000
     70      -4.7242      1.00000
     71      -4.7163      1.00000
     72      -4.6312      1.00000
     73      -4.5641      1.00000
     74      -4.5294      1.00000
     75      -4.5132      1.00000
     76      -4.5085      1.00000
     77      -4.4327      1.00000
     78      -4.4154      1.00000
     79      -4.3405      1.00000
     80      -4.3192      1.00000
     81      -4.3064      1.00000
     82      -4.2684      1.00000
     83      -4.1551      1.00000
     84      -4.1043      1.00000
     85      -3.9341      1.00000
     86      -3.8563      1.00000
     87      -3.8385      1.00000
     88      -3.7818      1.00000
     89      -3.7078      1.00000
     90      -3.6349      1.00000
     91      -3.4131      1.00000
     92      -3.3806      1.00000
     93      -3.3082      1.00000
     94      -3.2744      1.00000
     95      -3.2636      1.00000
     96      -3.2332      1.00000
     97      -3.1861      1.00000
     98      -3.1280      1.00000
     99      -3.1088      1.00000
    100      -3.0730      1.00000
    101      -2.9951      1.00000
    102      -2.9736      1.00000
    103      -2.8491      1.00000
    104      -2.8192      1.00000
    105      -2.6797      1.00000
    106      -2.6717      1.00000
    107      -2.1995      1.00000
    108      -2.1520      1.00000
    109      -2.1353      1.00000
    110      -2.0273      1.00000
    111      -2.0227      1.00000
    112      -1.9766      1.00000
    113      -1.9514      1.00000
    114      -1.8602      1.00000
    115      -1.8169      1.00000
    116      -1.7912      1.00000
    117      -1.7731      1.00000
    118      -1.6668      1.00000
    119      -0.8773      1.00000
    120      -0.8349      1.00000
    121       2.1625      0.00000
    122       2.1831      0.00000
    123       2.2673      0.00000
    124       2.2841      0.00000
    125       2.3769      0.00000
    126       2.4035      0.00000
    127       2.4494      0.00000
    128       2.4994      0.00000
    129       2.6244      0.00000
    130       2.6542      0.00000
    131       3.1083      0.00000
    132       3.1537      0.00000
    133       3.2513      0.00000
    134       3.2644      0.00000
    135       3.2761      0.00000
    136       3.3274      0.00000
    137       3.4151      0.00000
    138       3.4227      0.00000
    139       3.4680      0.00000
    140       3.5532      0.00000
    141       3.6827      0.00000
    142       3.7069      0.00000
    143       3.7323      0.00000
    144       3.8348      0.00000
    145       3.8978      0.00000
    146       3.9960      0.00000
    147       4.0328      0.00000
    148       4.0833      0.00000
    149       4.1057      0.00000
    150       4.2699      0.00000
    151       4.4978      0.00000
    152       4.6125      0.00000
    153       4.6540      0.00000
    154       5.2307      0.00000
    155       5.2649      0.00000
    156       5.5814      0.00000
    157       5.8088      0.00000
    158       6.0309      0.00000
    159       6.4247      0.00000
    160       6.5325      0.00000

 k-point     7 :      -0.3750    0.3750    0.1250
  band No.  band energies     occupation 
      1     -34.9406      1.00000
      2     -34.9373      1.00000
      3     -34.9353      1.00000
      4     -34.9320      1.00000
      5     -34.8973      1.00000
      6     -34.8941      1.00000
      7     -34.8918      1.00000
      8     -34.8886      1.00000
      9     -34.8111      1.00000
     10     -34.8040      1.00000
     11     -34.7893      1.00000
     12     -34.7831      1.00000
     13     -34.7810      1.00000
     14     -34.7766      1.00000
     15     -34.7592      1.00000
     16     -34.7560      1.00000
     17     -34.7436      1.00000
     18     -34.7369      1.00000
     19     -34.7225      1.00000
     20     -34.7165      1.00000
     21     -34.7155      1.00000
     22     -34.7064      1.00000
     23     -34.6925      1.00000
     24     -34.6859      1.00000
     25     -23.0521      1.00000
     26     -23.0190      1.00000
     27     -23.0147      1.00000
     28     -22.9848      1.00000
     29     -22.8727      1.00000
     30     -22.8465      1.00000
     31     -22.8435      1.00000
     32     -22.8208      1.00000
     33     -22.4412      1.00000
     34     -22.4258      1.00000
     35     -22.3480      1.00000
     36     -22.3129      1.00000
     37     -22.3063      1.00000
     38     -22.3019      1.00000
     39     -22.2229      1.00000
     40     -22.1849      1.00000
     41     -16.7692      1.00000
     42     -16.7631      1.00000
     43     -16.6403      1.00000
     44     -16.6141      1.00000
     45     -16.6047      1.00000
     46     -16.5726      1.00000
     47     -16.4764      1.00000
     48     -16.4694      1.00000
     49      -6.3797      1.00000
     50      -6.3756      1.00000
     51      -6.3607      1.00000
     52      -6.3537      1.00000
     53      -6.0254      1.00000
     54      -5.9614      1.00000
     55      -5.9223      1.00000
     56      -5.9056      1.00000
     57      -5.8778      1.00000
     58      -5.8441      1.00000
     59      -5.7721      1.00000
     60      -5.6925      1.00000
     61      -5.6856      1.00000
     62      -5.6488      1.00000
     63      -5.5439      1.00000
     64      -5.4841      1.00000
     65      -5.1006      1.00000
     66      -5.0569      1.00000
     67      -4.9353      1.00000
     68      -4.8656      1.00000
     69      -4.8261      1.00000
     70      -4.7242      1.00000
     71      -4.7163      1.00000
     72      -4.6312      1.00000
     73      -4.5641      1.00000
     74      -4.5294      1.00000
     75      -4.5132      1.00000
     76      -4.5085      1.00000
     77      -4.4327      1.00000
     78      -4.4154      1.00000
     79      -4.3405      1.00000
     80      -4.3192      1.00000
     81      -4.3064      1.00000
     82      -4.2684      1.00000
     83      -4.1551      1.00000
     84      -4.1043      1.00000
     85      -3.9341      1.00000
     86      -3.8563      1.00000
     87      -3.8385      1.00000
     88      -3.7818      1.00000
     89      -3.7078      1.00000
     90      -3.6349      1.00000
     91      -3.4131      1.00000
     92      -3.3806      1.00000
     93      -3.3082      1.00000
     94      -3.2744      1.00000
     95      -3.2636      1.00000
     96      -3.2332      1.00000
     97      -3.1861      1.00000
     98      -3.1280      1.00000
     99      -3.1088      1.00000
    100      -3.0730      1.00000
    101      -2.9951      1.00000
    102      -2.9736      1.00000
    103      -2.8491      1.00000
    104      -2.8192      1.00000
    105      -2.6797      1.00000
    106      -2.6717      1.00000
    107      -2.1995      1.00000
    108      -2.1520      1.00000
    109      -2.1353      1.00000
    110      -2.0273      1.00000
    111      -2.0227      1.00000
    112      -1.9766      1.00000
    113      -1.9514      1.00000
    114      -1.8602      1.00000
    115      -1.8169      1.00000
    116      -1.7912      1.00000
    117      -1.7731      1.00000
    118      -1.6668      1.00000
    119      -0.8773      1.00000
    120      -0.8349      1.00000
    121       2.1625      0.00000
    122       2.1831      0.00000
    123       2.2673      0.00000
    124       2.2841      0.00000
    125       2.3769      0.00000
    126       2.4035      0.00000
    127       2.4494      0.00000
[...]
  0.000  -0.000   0.000  -0.000  -0.000   0.000   0.000   0.000   0.000  -0.000   0.000  -0.000  -0.000   0.000   0.000  -0.000
  0.000   0.000   0.000   0.000  -0.000   0.000  -0.000  -0.000   0.000   0.000  -0.000  -0.000  -0.000  -0.000  -0.000   0.000
  0.000  -0.000   0.000   0.000  -0.000  -0.000   0.000   0.000  -0.000  -0.000  -0.000  -0.000  -0.000   0.000   0.000   0.000
  0.000   0.000   0.000  -0.000  -0.000  -0.000   0.000   0.000   0.000  -0.000  -0.000  -0.000  -0.000  -0.000   0.000   0.000
  0.000   0.000   0.000   0.000   0.000   0.000  -0.000  -0.000   0.000   0.000  -0.000   0.000  -0.000  -0.000   0.000   0.000
 -0.000   0.000  -0.000   0.000  -0.000  -0.000  -0.000  -0.000  -0.000   0.000  -0.000   0.000   0.000   0.000  -0.000   0.000
  0.000  -0.000  -0.000  -0.000  -0.000  -0.000   0.000   0.000  -0.000  -0.000   0.000   0.000   0.000   0.000   0.000  -0.000
  0.000   0.000  -0.000  -0.000  -0.000   0.000   0.000  -0.000  -0.000  -0.000  -0.000   0.000   0.000  -0.000  -0.000  -0.000
  0.000  -0.000  -0.000  -0.000  -0.000  -0.000   0.000  -0.000  -0.000  -0.000  -0.000   0.000   0.000  -0.000   0.000   0.000


------------------------ aborting loop because EDIFF is reached ----------------------------------------


 


 total charge     
 
# of ion       s       p       d       tot
------------------------------------------
    1        0.317   6.462   1.751   8.530
    2        0.317   6.462   1.751   8.530
    3        0.318   6.464   1.755   8.537
    4        0.318   6.464   1.755   8.537
    5        0.318   6.465   1.758   8.541
    6        0.318   6.465   1.758   8.541
    7        0.319   6.466   1.762   8.547
    8        0.319   6.466   1.762   8.547
    9        1.569   3.471   0.000   5.041
   10        1.569   3.471   0.000   5.041
   11        1.569   3.473   0.000   5.042
   12        1.569   3.473   0.000   5.042
   13        1.569   3.471   0.000   5.040
   14        1.570   3.474   0.000   5.044
   15        1.570   3.474   0.000   5.044
   16        1.571   3.476   0.000   5.047
   17        1.729   4.382   0.000   6.111
   18        1.729   4.382   0.000   6.111
   19        1.729   4.383   0.000   6.112
   20        1.729   4.383   0.000   6.112
   21        1.729   4.382   0.000   6.111
   22        1.729   4.382   0.000   6.111
   23        1.729   4.383   0.000   6.112
   24        1.729   4.383   0.000   6.112
   25        1.730   4.379   0.000   6.109
   26        1.730   4.379   0.000   6.109
   27        1.730   4.381   0.000   6.111
   28        1.730   4.381   0.000   6.111
   29        1.730   4.379   0.000   6.109
   30        1.730   4.378   0.000   6.108
   31        1.729   4.378   0.000   6.108
   32        1.729   4.377   0.000   6.106
--------------------------------------------------
tot         42.769 149.596  14.053 206.418
 


 magnetization (x)
 
# of ion       s       p       d       tot
------------------------------------------
    1       -0.000  -0.000  -0.000  -0.000
    2        0.000  -0.000  -0.000  -0.000
    3       -0.000  -0.000  -0.000  -0.000
    4       -0.000  -0.000  -0.000  -0.000
    5       -0.000   0.000   0.000   0.000
    6        0.000   0.000   0.000   0.000
    7       -0.000   0.000   0.000   0.000
    8       -0.000   0.000   0.000   0.000
    9       -0.000   0.000   0.000   0.000
   10        0.000   0.000   0.000   0.000
   11        0.000  -0.000   0.000  -0.000
   12        0.000  -0.000   0.000  -0.000
   13       -0.000  -0.000   0.000  -0.000
   14       -0.000  -0.000   0.000  -0.000
   15       -0.000  -0.000   0.000  -0.000
   16       -0.000   0.000   0.000  -0.000
   17       -0.000   0.000   0.000   0.000
   18       -0.000  -0.000   0.000  -0.000
   19       -0.000   0.000   0.000  -0.000
   20       -0.000   0.000   0.000   0.000
   21       -0.000   0.000   0.000   0.000
   22       -0.000  -0.000   0.000  -0.000
   23       -0.000   0.000   0.000   0.000
   24       -0.000  -0.000   0.000  -0.000
   25        0.000  -0.000   0.000   0.000
   26        0.000   0.000   0.000   0.000
   27        0.000   0.000   0.000   0.000
   28        0.000  -0.000   0.000  -0.000
   29       -0.000  -0.000   0.000  -0.000
   30        0.000   0.000   0.000   0.000
   31        0.000  -0.000   0.000  -0.000
   32        0.000   0.000   0.000   0.000
--------------------------------------------------
tot         -0.000  -0.000   0.000  -0.000
 
    CHARGE:  cpu time    1.2048: real time    1.2250
    FORLOC:  cpu time    0.0090: real time    0.0101
    FORNL :  cpu time    7.1849: real time    7.2269
    STRESS:  cpu time   21.6647: real time   21.8394
    FORCOR:  cpu time    0.1300: real time    0.1302
    FORHAR:  cpu time    0.0220: real time    0.0213
    MIXING:  cpu time    0.1430: real time    0.1435
    OFIELD:  cpu time    0.0000: real time    0.0000

  FORCE on cell =-STRESS in cart. coord.  units (eV):
  Direction    XX          YY          ZZ          XY          YZ          ZX
  --------------------------------------------------------------------------------------
  Alpha Z   761.15054   761.15054   761.15054
  Ewald   -4349.95196 -4230.43818 -4248.05272     0.00409    -0.00041     0.00084
  Hartree  2704.74134  2759.50365  2753.94139     0.00214    -0.00007     0.00045
  E(xc)   -1232.07692 -1232.55016 -1232.57558     0.00000     0.00000     0.00000
  Local   -1998.50935 -2231.32970 -2208.20844    -0.00615     0.00048    -0.00127
  n-local  -974.82467  -962.88269  -963.16847     0.00003    -0.00001     0.00001
  augment   744.38181   763.65509   763.73847     0.00000    -0.00001     0.00000
  Kinetic  4345.06376  4372.92886  4373.20484    -0.00019     0.00001    -0.00004
  Fock        0.00000     0.00000     0.00000     0.00000     0.00000     0.00000
  -------------------------------------------------------------------------------------
  Total      -0.02546     0.03741     0.03004    -0.00008    -0.00002    -0.00002
  in kB      -0.08867     0.13028     0.10461    -0.00026    -0.00006    -0.00006
  external pressure =        0.05 kB  Pullay stress =        0.00 kB


 VOLUME and BASIS-vectors are now :
 -----------------------------------------------------------------------------
  energy-cutoff  :      700.00
  volume of cell :      460.05
      direct lattice vectors                 reciprocal lattice vectors
     7.859169857  0.000003332  0.000000731     0.127239902 -0.000000054 -0.000000012
     0.000003248  7.649758624  0.000000315    -0.000000055  0.130723079 -0.000000005
     0.000000715  0.000000314  7.652073579    -0.000000012 -0.000000005  0.130683532

  length of vectors
     7.859169857  7.649758624  7.652073579     0.127239902  0.130723079  0.130683532


 FORCES acting on ions
    electron-ion (+dipol)            ewald-force                    non-local-force                 convergence-correction
 -----------------------------------------------------------------------------------------------
   -.809E-04 0.342E+02 0.314E+02   0.818E-04 -.350E+02 -.322E+02   0.108E-05 0.787E+00 0.772E+00   -.157E-05 0.183E-02 0.380E-03
   0.120E-03 0.342E+02 -.314E+02   -.119E-03 -.350E+02 0.322E+02   -.165E-05 0.787E+00 -.772E+00   -.116E-05 0.186E-02 -.395E-03
   0.896E-04 -.349E+02 0.168E+02   -.828E-04 0.357E+02 -.177E+02   -.848E-06 -.793E+00 0.869E+00   0.104E-05 -.181E-02 0.682E-03
   0.303E-03 -.349E+02 -.168E+02   -.304E-03 0.357E+02 0.177E+02   -.223E-05 -.793E+00 -.869E+00   0.126E-05 -.183E-02 -.670E-03
   -.249E-04 0.346E+02 0.141E+02   0.228E-04 -.354E+02 -.150E+02   0.493E-06 0.832E+00 0.937E+00   -.131E-05 0.184E-02 0.324E-04
   -.170E-03 0.346E+02 -.141E+02   0.168E-03 -.354E+02 0.150E+02   0.121E-05 0.832E+00 -.937E+00   -.840E-06 0.183E-02 -.226E-04
   0.491E-04 -.353E+02 0.508E+01   -.531E-04 0.361E+02 -.408E+01   0.344E-06 -.839E+00 -.101E+01   0.171E-05 -.177E-02 0.572E-03
   -.210E-03 -.353E+02 -.508E+01   0.212E-03 0.361E+02 0.408E+01   0.254E-05 -.839E+00 0.101E+01   0.118E-05 -.177E-02 -.555E-03
   -.535E-04 0.394E+00 -.148E+02   0.572E-04 -.428E+00 0.179E+02   -.325E-05 0.328E-01 -.316E+01   -.113E-06 -.509E-03 0.323E-03
   0.102E-03 0.391E+00 0.148E+02   -.105E-03 -.425E+00 -.179E+02   0.341E-05 0.327E-01 0.316E+01   -.245E-07 -.342E-03 -.314E-03
   0.490E-04 0.208E+00 0.475E+01   -.505E-04 -.243E+00 -.484E+01   0.924E-06 0.328E-01 0.967E-01   0.780E-07 -.318E-03 0.370E-03
   -.636E-04 0.215E+00 -.475E+01   0.630E-04 -.250E+00 0.484E+01   0.818E-06 0.330E-01 -.966E-01   0.122E-06 -.489E-03 -.373E-03
   0.390E-04 -.911E+01 0.209E-02   -.388E-04 0.121E+02 -.217E-02   0.248E-06 -.302E+01 0.916E-04   -.473E-06 0.820E-03 -.102E-03
   0.158E-04 0.916E+01 -.129E-02   -.141E-04 -.122E+02 0.135E-02   -.226E-05 0.306E+01 -.654E-04   0.300E-06 -.753E-03 0.644E-04
   0.908E-05 -.490E+01 -.497E-02   -.140E-04 0.765E+01 0.529E-02   0.615E-05 -.274E+01 -.158E-03   -.369E-06 0.888E-03 0.991E-04
   -.840E-04 0.362E+01 -.215E-02   0.845E-04 -.635E+01 0.227E-02   -.891E-06 0.273E+01 -.850E-04   0.459E-06 -.797E-03 0.816E-04
   -.208E+00 0.893E+00 -.571E+01   0.224E+00 0.229E+01 0.901E+01   -.155E-01 -.318E+01 -.329E+01   0.131E-03 0.104E-02 0.554E-03
   -.206E+00 0.893E+00 0.571E+01   0.221E+00 0.229E+01 -.901E+01   -.155E-01 -.318E+01 0.329E+01   -.528E-04 0.106E-02 -.577E-03
   0.510E-01 -.644E+00 0.643E+01   -.302E-01 -.257E+01 -.656E+01   -.209E-01 0.322E+01 0.130E+00   -.426E-05 -.104E-02 0.439E-03
   0.506E-01 -.644E+00 -.643E+01   -.300E-01 -.257E+01 0.656E+01   -.208E-01 0.322E+01 -.130E+00   0.132E-03 -.105E-02 -.441E-03
   0.208E+00 0.893E+00 -.571E+01   -.223E+00 0.229E+01 0.901E+01   0.154E-01 -.318E+01 -.329E+01   -.129E-03 0.104E-02 0.555E-03
   0.206E+00 0.892E+00 0.571E+01   -.221E+00 0.229E+01 -.901E+01   0.155E-01 -.318E+01 0.329E+01   0.541E-04 0.106E-02 -.577E-03
   -.509E-01 -.644E+00 0.643E+01   0.300E-01 -.257E+01 -.656E+01   0.209E-01 0.322E+01 0.130E+00   0.266E-05 -.104E-02 0.439E-03
   -.504E-01 -.644E+00 -.643E+01   0.298E-01 -.257E+01 0.656E+01   0.208E-01 0.322E+01 -.130E+00   -.133E-03 -.105E-02 -.441E-03
   0.130E-03 0.207E+00 -.719E+00   -.131E-03 -.271E+00 0.382E+01   0.163E-06 0.643E-01 -.310E+01   -.653E-07 0.401E-03 0.599E-03
   0.639E-04 0.208E+00 0.719E+00   -.563E-04 -.272E+00 -.382E+01   -.789E-05 0.642E-01 0.310E+01   -.194E-06 0.245E-03 -.594E-03
   -.147E-03 0.456E+00 0.624E+01   0.157E-03 -.510E+00 -.631E+01   -.968E-05 0.547E-01 0.681E-01   0.255E-07 0.238E-03 0.347E-03
   -.334E-04 0.455E+00 -.624E+01   0.232E-04 -.509E+00 0.631E+01   0.105E-04 0.549E-01 -.682E-01   0.269E-06 0.399E-03 -.349E-03
   0.446E-04 0.512E+01 -.490E-03   -.414E-04 -.207E+01 0.355E-03   -.314E-05 -.304E+01 0.702E-04   -.474E-06 0.103E-02 0.964E-04
   -.806E-04 -.574E+01 -.318E-04   0.116E-03 0.277E+01 0.149E-03   -.382E-04 0.296E+01 -.673E-04   0.137E-06 -.101E-02 -.627E-04
   -.100E-04 0.584E+00 0.907E-03   0.568E-05 0.255E+01 -.716E-03   0.481E-05 -.312E+01 -.176E-03   -.231E-06 0.108E-02 -.866E-04
   -.807E-04 0.124E+00 -.467E-04   0.823E-04 -.320E+01 0.221E-03   -.166E-05 0.307E+01 -.113E-03   0.377E-06 -.108E-02 -.813E-04
 -----------------------------------------------------------------------------------------------
   0.116E-04 -.366E+00 0.487E-03   0.237E-14 0.124E-12 0.265E-13   -.118E-04 0.368E+00 -.481E-03   0.443E-06 0.945E-05 -.766E-05
 
 
 POSITION                                       TOTAL-FORCE (eV/Angst)
 -----------------------------------------------------------------------------------
      0.00000      7.56261      7.56549         0.000000      0.000646      0.005116
      0.00000      7.56261      3.91262        -0.000002      0.000621     -0.005072
      7.85917      3.91129      7.56071         0.000007      0.000638      0.004300
      7.85917      3.91129      3.91740        -0.000002      0.000603     -0.004331
      3.92959      7.56361      7.55958        -0.000003      0.001633      0.000916
      3.92959      7.56361      3.91853        -0.000001      0.001690     -0.001068
      3.92959      3.91071      0.09653        -0.000002      0.000277     -0.001855
      3.92959      3.91070      3.72951         0.000006      0.000414      0.001790
      0.00000      5.73730      0.05101         0.000000     -0.002214      0.004315
      7.85917      5.73731      3.77503         0.000000     -0.002068     -0.004319
      3.92959      5.73737      7.64829        -0.000001     -0.002232     -0.001302
      3.92959      5.73737      3.82982         0.000000     -0.002602      0.001272
      0.00000      0.04611      5.73906        -0.000000      0.003891     -0.000098
      7.85917      3.77837      5.73906        -0.000000     -0.003608      0.000058
      3.92959      0.03852      5.73905         0.000001      0.006165      0.000267
      3.92959      3.78822      1.91302         0.000000     -0.004302      0.000112
      1.96481      0.04769      0.05099        -0.000065      0.001522      0.002841
      1.96481      0.04769      3.77504        -0.000166      0.001520     -0.002841
      1.96497      3.77625      7.64729        -0.000032     -0.002227     -0.001824
      1.96497      3.77625      3.83082         0.000003     -0.002223      0.001818
      5.89436      0.04769      0.05099         0.000066      0.001524      0.002841
      5.89436      0.04770      3.77504         0.000168      0.001520     -0.002840
      5.89421      3.77626      7.64729         0.000031     -0.002228     -0.001822
      5.89421      3.77625      3.83082        -0.000005     -0.002223      0.001817
      7.85917      1.91292      0.06787        -0.000001      0.000535      0.004320
      0.00000      1.91291      3.75816        -0.000000      0.000490     -0.004322
      3.92959      1.91304      7.64955         0.000000      0.000893     -0.000468
      3.92959      1.91303      3.82856         0.000001      0.000992      0.000452
      0.00000      0.06603      1.91302        -0.000000      0.005216      0.000032
      0.00000      3.76043      1.91302        -0.000003     -0.005344     -0.000013
      3.92959      0.07237      1.91302         0.000000      0.008714     -0.000072
      3.92959      3.75316      5.73906         0.000000     -0.008232     -0.000020
 -----------------------------------------------------------------------------------
    total drift:                                0.000000      0.001855     -0.000001


--------------------------------------------------------------------------------------------------------



  FREE ENERGIE OF THE ION-ELECTRON SYSTEM (eV)
  ---------------------------------------------------
  free  energy   TOTEN  =      -213.61689966 eV

  energy  without entropy=     -213.61689966  energy(sigma->0) =     -213.61689966
 


--------------------------------------------------------------------------------------------------------


    POTLOK:  cpu time    0.9918: real time    0.9989


--------------------------------------------------------------------------------------------------------


 stress matrix after NEB project (eV)
     -0.02546     -0.00008     -0.00002
     -0.00008      0.03741     -0.00002
     -0.00002     -0.00002      0.03004
  FORCES: max atom, RMS     0.008714    0.004204
  FORCE total and by dimension    0.023783    0.008714
  Stress total and by dimension    0.054314    0.037410
 Quasi-Newton relaxation of ions (Broydens 2nd method)
  g(Force)  = 0.273E-04   g(Stress)= 0.445E-05

 Reset! Starting new Quasi-Newton update for ions 


--------------------------------------------------------------------------------------------------------


  
 reached required accuracy - stopping structural energy minimisation
 writing wavefunctions
     LOOP+:  cpu time  112.6339: real time  114.2182
    4ORBIT:  cpu time    0.0000: real time    0.0000
 


 total charge     
 
# of ion       s       p       d       tot
------------------------------------------
    1        0.317   6.462   1.751   8.530
    2        0.317   6.462   1.751   8.530
    3        0.318   6.464   1.755   8.537
    4        0.318   6.464   1.755   8.537
    5        0.318   6.465   1.758   8.541
    6        0.318   6.465   1.758   8.541
    7        0.319   6.466   1.762   8.547
    8        0.319   6.466   1.762   8.547
    9        1.569   3.471   0.000   5.041
   10        1.569   3.471   0.000   5.041
   11        1.569   3.473   0.000   5.042
   12        1.569   3.473   0.000   5.042
   13        1.569   3.471   0.000   5.040
   14        1.570   3.474   0.000   5.044
   15        1.570   3.474   0.000   5.044
   16        1.571   3.476   0.000   5.047
   17        1.729   4.382   0.000   6.111
   18        1.729   4.382   0.000   6.111
   19        1.729   4.383   0.000   6.112
   20        1.729   4.383   0.000   6.112
   21        1.729   4.382   0.000   6.111
   22        1.729   4.382   0.000   6.111
   23        1.729   4.383   0.000   6.112
   24        1.729   4.383   0.000   6.112
   25        1.730   4.379   0.000   6.109
   26        1.730   4.379   0.000   6.109
   27        1.730   4.381   0.000   6.111
   28        1.730   4.381   0.000   6.111
   29        1.730   4.379   0.000   6.109
   30        1.730   4.378   0.000   6.108
   31        1.729   4.378   0.000   6.108
   32        1.729   4.377   0.000   6.106
--------------------------------------------------
tot         42.769 149.596  14.053 206.418
 


 magnetization (x)
 
# of ion       s       p       d       tot
------------------------------------------
    1       -0.000  -0.000  -0.000  -0.000
    2        0.000  -0.000  -0.000  -0.000
    3       -0.000  -0.000  -0.000  -0.000
    4       -0.000  -0.000  -0.000  -0.000
    5       -0.000   0.000   0.000   0.000
    6        0.000   0.000   0.000   0.000
    7       -0.000   0.000   0.000   0.000
    8       -0.000   0.000   0.000   0.000
    9       -0.000   0.000   0.000   0.000
   10        0.000   0.000   0.000   0.000
   11        0.000  -0.000   0.000  -0.000
   12        0.000  -0.000   0.000  -0.000
   13       -0.000  -0.000   0.000  -0.000
   14       -0.000  -0.000   0.000  -0.000
   15       -0.000  -0.000   0.000  -0.000
   16       -0.000   0.000   0.000  -0.000
   17       -0.000   0.000   0.000   0.000
   18       -0.000  -0.000   0.000  -0.000
   19       -0.000   0.000   0.000  -0.000
   20       -0.000   0.000   0.000   0.000
   21       -0.000   0.000   0.000   0.000
   22       -0.000  -0.000   0.000  -0.000
   23       -0.000   0.000   0.000   0.000
   24       -0.000  -0.000   0.000  -0.000
   25        0.000  -0.000   0.000   0.000
   26        0.000   0.000   0.000   0.000
   27        0.000   0.000   0.000   0.000
   28        0.000  -0.000   0.000  -0.000
   29       -0.000  -0.000   0.000  -0.000
   30        0.000   0.000   0.000   0.000
   31        0.000  -0.000   0.000  -0.000
   32        0.000   0.000   0.000   0.000
--------------------------------------------------
tot         -0.000  -0.000   0.000  -0.000
 

 total amount of memory used by VASP MPI-rank0   106739. kBytes
=======================================================================

   base      :      30000. kBytes
   nonlr-proj:       8619. kBytes
   fftplans  :       8423. kBytes
   grid      :       8783. kBytes
   one-center:        124. kBytes
   wavefun   :      50790. kBytes
 
  
  
 General timing and accounting informations for this job:
 ========================================================
  
                  Total CPU time used (sec):      162.486
                            User time (sec):      155.133
                          System time (sec):        7.353
                         Elapsed time (sec):      174.591
  
                   Maximum memory used (kb):      227812.
                   Average memory used (kb):           0.
  
                          Minor page faults:        86443
                          Major page faults:            2
                 Voluntary context switches:        63374
