LTO                                     
           1
     7.756168   -0.000084    0.002039
    -0.000085    7.756410    0.003054
     0.002022    0.003067    7.665122
   Ti   O    F 
   8   8  16
Direct configuration=     1
   0.00099688  0.99995527  0.98089221
   0.98934191  0.98952374  0.50286727
   0.98480382  0.49993177  0.98863040
   0.00044560  0.51515687  0.51134096
   0.49950714  0.01517073  0.01268273
   0.51515241  0.99981361  0.48731400
   0.51060612  0.48954400  0.99711992
   0.49899875  0.49996084  0.51908984
   0.74912326  0.00112084  0.50013714
   0.75109224  0.50135785  0.00330507
   0.00070773  0.74890283  0.49672398
   0.49932952  0.24920368  0.99981989
   0.00154406  0.00272360  0.75336907
   0.00150937  0.49794995  0.74998549
   0.49899376  0.99854793  0.24999221
   0.49798154  0.50225701  0.74662095
   0.24829610  0.99525008  0.00011198
   0.25168064  0.00277630  0.50114263
   0.24839708  0.50306058  0.00582130
   0.25199992  0.49546991  0.49054648
   0.75248712  0.99491078  0.99985022
   0.74716378  0.49521550  0.48944828
   0.00431356  0.24742158  0.00924717
   0.00219607  0.25162396  0.49413603
   0.00360720  0.75225726  0.01080778
   0.49620028  0.25191943  0.50043270
   0.49786176  0.75175306  0.99890885
   0.49543294  0.74772467  0.49963290
   0.00360939  0.00382774  0.24440539
   0.00354417  0.49576664  0.25001425
   0.49617382  0.99557534  0.75002815
   0.49690205  0.50432666  0.25557475
