 vasp.5.4.4.18Apr17-6-g9f103f2a35 (build Jul 16 2019 12:12:28) complex          
  
 executed on             LinuxIFC date 2020.01.06  11:03:37
 running on   96 total cores
 distrk:  each k-point on   96 cores,    1 groups
 distr:  one band on NCORES_PER_BAND=   8 cores,   12 groups


--------------------------------------------------------------------------------------------------------


 INCAR:
 POTCAR:    PAW_PBE Li_sv 10Sep2004               
 POTCAR:    PAW_PBE Ti_pv 07Sep2000               
 POTCAR:    PAW_PBE O 08Apr2002                   
 POTCAR:    PAW_PBE F 08Apr2002                   
 POTCAR:    PAW_PBE Li_sv 10Sep2004               
   VRHFIN =Li: 1s2s2p                                                           
   LEXCH  = PE                                                                  
   EATOM  =   202.7858 eV,   14.9043 Ry                                         
                                                                                
   TITEL  = PAW_PBE Li_sv 10Sep2004                                             
   LULTRA =        F    use ultrasoft PP ?                                      
   IUNSCR =        0    unscreen: 0-lin 1-nonlin 2-no                           
   RPACOR =    0.000    partial core radius                                     
   POMASS =    7.010; ZVAL   =    3.000    mass and valenz                      
   RCORE  =    1.700    outmost cutoff radius                                   
   RWIGS  =    2.050; RWIGS  =    1.085    wigner-seitz radius (au A)           
   ENMAX  =  499.034; ENMIN  =  374.276 eV                                      
   ICORE  =        2    local potential                                         
   LCOR   =        T    correct aug charges                                     
   LPAW   =        T    paw PP                                                  
   EAUG   =  628.945                                                            
   RMAX   =    1.732    core radius for proj-oper                               
   RAUG   =    1.300    factor for augmentation sphere                          
   RDEP   =    1.728    radius for radial grids                                 
   RDEPT  =    1.329    core radius for aug-charge                              
                                                                                
   Atomic configuration                                                         
    4 entries                                                                   
     n  l   j            E        occ.                                          
     1  0  0.50       -51.8549   2.0000                                         
     2  0  0.50        -2.8742   1.0000                                         
     2  1  0.50        -1.3606   0.0000                                         
     3  2  1.50        -1.3606   0.0000                                         
   Description                                                                  
     l       E           TYP  RCUT    TYP  RCUT                                 
     0    -51.8548813     23  1.400                                             
     0     -2.8742052     23  1.700                                             
     1     -1.3605826     23  1.400                                             
     2     -1.3605826     23  1.400                                             
  local pseudopotential read in
  atomic valenz-charges read in
  non local Contribution for L=           0  read in
    real space projection operators read in
  non local Contribution for L=           0  read in
    real space projection operators read in
  non local Contribution for L=           1  read in
    real space projection operators read in
    PAW grid and wavefunctions read in
 
   number of l-projection  operators is LMAX  =           3
   number of lm-projection operators is LMMAX =           5
 
 POTCAR:    PAW_PBE Ti_pv 07Sep2000               
   VRHFIN =Ti: d3 s1                                                            
   LEXCH  = PE                                                                  
   EATOM  =  1042.5995 eV,   76.6289 Ry                                         
                                                                                
   TITEL  = PAW_PBE Ti_pv 07Sep2000                                             
   LULTRA =        F    use ultrasoft PP ?                                      
   IUNSCR =        1    unscreen: 0-lin 1-nonlin 2-no                           
   RPACOR =    2.200    partial core radius                                     
   POMASS =   47.880; ZVAL   =   10.000    mass and valenz                      
   RCORE  =    2.500    outmost cutoff radius                                   
   RWIGS  =    2.500; RWIGS  =    1.323    wigner-seitz radius (au A)           
   ENMAX  =  222.335; ENMIN  =  166.751 eV                                      
   RCLOC  =    1.701    cutoff for local pot                                    
   LCOR   =        T    correct aug charges                                     
   LPAW   =        T    paw PP                                                  
   EAUG   =  482.848                                                            
   DEXC   =    0.000                                                            
   RMAX   =    2.564    core radius for proj-oper                               
   RAUG   =    1.300    factor for augmentation sphere                          
   RDEP   =    2.538    radius for radial grids                                 
   RDEPT  =    1.952    core radius for aug-charge                              
                                                                                
   Atomic configuration                                                         
    8 entries                                                                   
     n  l   j            E        occ.                                          
     1  0  0.50     -4865.3608   2.0000                                         
     2  0  0.50      -533.1368   2.0000                                         
     2  1  1.50      -440.5031   6.0000                                         
     3  0  0.50       -59.3186   2.0000                                         
     3  1  1.50       -35.7012   6.0000                                         
     3  2  2.50        -1.9157   3.0000                                         
     4  0  0.50        -3.7291   1.0000                                         
     4  3  2.50        -1.3606   0.0000                                         
   Description                                                                  
     l       E           TYP  RCUT    TYP  RCUT                                 
     1    -35.7012140     23  2.300                                             
     1     -1.3605826     23  2.300                                             
     2     -1.9156996     23  2.500                                             
     2     -0.4063033     23  2.500                                             
     0     -3.7290856     23  2.500                                             
     0     20.4087390     23  2.500                                             
  local pseudopotential read in
  partial core-charges read in
  partial kinetic energy density read in
  atomic valenz-charges read in
  non local Contribution for L=           1  read in
    real space projection operators read in
  non local Contribution for L=           1  read in
    real space projection operators read in
  non local Contribution for L=           2  read in
    real space projection operators read in
  non local Contribution for L=           2  read in
    real space projection operators read in
  non local Contribution for L=           0  read in
    real space projection operators read in
  non local Contribution for L=           0  read in
    real space projection operators read in
    PAW grid and wavefunctions read in
 
   number of l-projection  operators is LMAX  =           6
   number of lm-projection operators is LMMAX =          18
 
 POTCAR:    PAW_PBE O 08Apr2002                   
   VRHFIN =O: s2p4                                                              
   LEXCH  = PE                                                                  
   EATOM  =   432.3788 eV,   31.7789 Ry                                         
                                                                                
   TITEL  = PAW_PBE O 08Apr2002                                                 
   LULTRA =        F    use ultrasoft PP ?                                      
   IUNSCR =        1    unscreen: 0-lin 1-nonlin 2-no                           
   RPACOR =    1.200    partial core radius                                     
   POMASS =   16.000; ZVAL   =    6.000    mass and valenz                      
   RCORE  =    1.520    outmost cutoff radius                                   
   RWIGS  =    1.550; RWIGS  =    0.820    wigner-seitz radius (au A)           
   ENMAX  =  400.000; ENMIN  =  300.000 eV                                      
   ICORE  =        2    local potential                                         
   LCOR   =        T    correct aug charges                                     
   LPAW   =        T    paw PP                                                  
   EAUG   =  605.392                                                            
   DEXC   =    0.000                                                            
   RMAX   =    1.553    core radius for proj-oper                               
   RAUG   =    1.300    factor for augmentation sphere                          
   RDEP   =    1.550    radius for radial grids                                 
   RDEPT  =    1.329    core radius for aug-charge                              
                                                                                
   Atomic configuration                                                         
    4 entries                                                                   
     n  l   j            E        occ.                                          
     1  0  0.50      -514.6923   2.0000                                         
     2  0  0.50       -23.9615   2.0000                                         
     2  1  0.50        -9.0305   4.0000                                         
     3  2  1.50        -9.5241   0.0000                                         
   Description                                                                  
     l       E           TYP  RCUT    TYP  RCUT                                 
     0    -23.9615318     23  1.200                                             
     0     -9.5240782     23  1.200                                             
     1     -9.0304911     23  1.520                                             
     1      8.1634956     23  1.520                                             
     2     -9.5240782      7  1.500                                             
  local pseudopotential read in
  partial core-charges read in
  partial kinetic energy density read in
  kinetic energy density of atom read in
  atomic valenz-charges read in
  non local Contribution for L=           0  read in
    real space projection operators read in
  non local Contribution for L=           0  read in
    real space projection operators read in
  non local Contribution for L=           1  read in
    real space projection operators read in
  non local Contribution for L=           1  read in
    real space projection operators read in
    PAW grid and wavefunctions read in
 
   number of l-projection  operators is LMAX  =           4
   number of lm-projection operators is LMMAX =           8
 
 POTCAR:    PAW_PBE F 08Apr2002                   
   VRHFIN =F: s2p5                                                              
   LEXCH  = PE                                                                  
   EATOM  =   659.6475 eV,   48.4827 Ry                                         
                                                                                
   TITEL  = PAW_PBE F 08Apr2002                                                 
   LULTRA =        F    use ultrasoft PP ?                                      
   IUNSCR =        1    unscreen: 0-lin 1-nonlin 2-no                           
   RPACOR =    1.200    partial core radius                                     
   POMASS =   18.998; ZVAL   =    7.000    mass and valenz                      
   RCORE  =    1.520    outmost cutoff radius                                   
   RWIGS  =    1.500; RWIGS  =    0.794    wigner-seitz radius (au A)           
   ENMAX  =  400.000; ENMIN  =  300.000 eV                                      
   ICORE  =        2    local potential                                         
   LCOR   =        T    correct aug charges                                     
   LPAW   =        T    paw PP                                                  
   EAUG   =  613.614                                                            
   RMAX   =    1.555    core radius for proj-oper                               
   RAUG   =    1.300    factor for augmentation sphere                          
   RDEP   =    1.539    radius for radial grids                                 
   RDEPT  =    1.299    core radius for aug-charge                              
                                                                                
   Atomic configuration                                                         
    4 entries                                                                   
     n  l   j            E        occ.                                          
     1  0  0.50      -663.3661   2.0000                                         
     2  0  0.50       -29.8995   2.0000                                         
     2  1  0.50       -11.1114   5.0000                                         
     3  2  1.50       -10.8847   0.0000                                         
   Description                                                                  
     l       E           TYP  RCUT    TYP  RCUT                                 
     0    -29.8995018     23  1.200                                             
     0     -9.5240782     23  1.200                                             
     1    -11.1113914     23  1.520                                             
     1      1.3605826     23  1.520                                             
     2    -10.8846608      7  1.500                                             
  local pseudopotential read in
  partial core-charges read in
  partial kinetic energy density read in
  atomic valenz-charges read in
  non local Contribution for L=           0  read in
    real space projection operators read in
  non local Contribution for L=           0  read in
    real space projection operators read in
  non local Contribution for L=           1  read in
    real space projection operators read in
  non local Contribution for L=           1  read in
    real space projection operators read in
    PAW grid and wavefunctions read in
 
   number of l-projection  operators is LMAX  =           4
   number of lm-projection operators is LMMAX =           8
 
 Optimization of the real space projectors (new method)

 maximal supplied QI-value         = 22.11
 optimisation between [QCUT,QGAM] = [ 11.28, 22.77] = [ 35.61,145.23] Ry 
 Optimized for a Real-space Cutoff    1.31 Angstroem

   l    n(q)    QCUT    max X(q) W(low)/X(q) W(high)/X(q)  e(spline) 
   0      9    11.276    10.506    0.19E-04    0.17E-04    0.32E-07
   0      9    11.276     8.367    0.38E-04    0.40E-04    0.65E-07
   1      8    11.276     8.983    0.55E-04    0.98E-04    0.20E-06
 Optimization of the real space projectors (new method)

 maximal supplied QI-value         = 15.12
 optimisation between [QCUT,QGAM] = [ 11.34, 22.83] = [ 36.00,145.93] Ry 
 Optimized for a Real-space Cutoff    1.56 Angstroem

   l    n(q)    QCUT    max X(q) W(low)/X(q) W(high)/X(q)  e(spline) 
   1     10    11.338     4.216    0.27E-04    0.12E-04    0.66E-07
   1     10    11.338     5.422    0.81E-04    0.24E-04    0.19E-06
   2     10    11.338    72.084    0.64E-04    0.21E-03    0.51E-06
   2     10    11.338    65.965    0.63E-04    0.21E-03    0.50E-06
   0     11    11.338    41.531    0.33E-04    0.54E-04    0.13E-06
   0     11    11.338    16.290    0.26E-04    0.41E-04    0.11E-06
 Optimization of the real space projectors (new method)

 maximal supplied QI-value         = 24.76
 optimisation between [QCUT,QGAM] = [ 11.39, 22.77] = [ 36.31,145.25] Ry 
 Optimized for a Real-space Cutoff    1.20 Angstroem

   l    n(q)    QCUT    max X(q) W(low)/X(q) W(high)/X(q)  e(spline) 
   0      8    11.387    20.381    0.89E-04    0.31E-03    0.27E-06
   0      8    11.387    15.268    0.93E-04    0.32E-03    0.29E-06
   1      8    11.387     5.964    0.53E-04    0.28E-03    0.29E-06
   1      8    11.387     5.382    0.37E-04    0.22E-03    0.26E-06
 Optimization of the real space projectors (new method)

 maximal supplied QI-value         = 24.76
 optimisation between [QCUT,QGAM] = [ 11.39, 22.77] = [ 36.31,145.25] Ry 
 Optimized for a Real-space Cutoff    1.20 Angstroem

   l    n(q)    QCUT    max X(q) W(low)/X(q) W(high)/X(q)  e(spline) 
   0      8    11.387    14.049    0.69E-04    0.23E-03    0.18E-06
   0      8    11.387     8.945    0.88E-04    0.30E-03    0.26E-06
   1      8    11.387     7.086    0.62E-04    0.27E-03    0.27E-06
   1      8    11.387     6.747    0.46E-04    0.23E-03    0.25E-06

 ----------------------------------------------------------------------------- 
|                                                                             |
|  ADVICE TO THIS USER RUNNING 'VASP/VAMP'   (HEAR YOUR MASTER'S VOICE ...):  |
|                                                                             |
|      You enforced a specific xc-type in the INCAR file,                     |
|      a different type was found on the POTCAR file                          |
|          I HOPE YOU KNOW, WHAT YOU ARE  DOING                               |
|                                                                             |
 ----------------------------------------------------------------------------- 

  PAW_PBE Li_sv 10Sep2004               :
 energy of atom  1       EATOM= -202.7858
 kinetic energy error for atom=    0.0143 (will be added to EATOM!!)
  PAW_PBE Ti_pv 07Sep2000               :
 energy of atom  2       EATOM=-1042.5995
 kinetic energy error for atom=    0.0024 (will be added to EATOM!!)
  PAW_PBE O 08Apr2002                   :
 energy of atom  3       EATOM= -432.3788
 kinetic energy error for atom=    0.0224 (will be added to EATOM!!)
  PAW_PBE F 08Apr2002                   :
 energy of atom  4       EATOM= -659.6475
 kinetic energy error for atom=    0.0354 (will be added to EATOM!!)
 
 
 POSCAR: config 50                               
  positions in direct lattice
  velocities in cartesian coordinates
 exchange correlation table for  LEXCH =       14
   RHO(1)=    0.500       N(1)  =     2000
   RHO(2)=  100.500       N(2)  =     4000

 VTST: version 3.2, (02/03/18)

 CHAIN: initializing optimizer
 
 OPT: Using VASP QUASI-newton optimizer
 CHAIN: Read ICHAIN            0
 
 POSCAR: config 50                               
  positions in direct lattice
  velocities in cartesian coordinates
 


--------------------------------------------------------------------------------------------------------


 ion  position               nearest neighbor table
   1  0.917  0.123  0.359-  74 1.95  67 1.96 219 2.06  10 2.85
   2  0.995  0.996  0.993- 118 1.86  68 1.87 103 1.89 171 2.02 212 2.03 130 2.08
   3  1.000  0.993  0.493- 119 1.81  67 1.88 172 1.94 193 1.97 213 2.00 131 2.00
   4  0.006  0.496  0.997-  89 1.84 117 1.86 138 1.93 132 1.98 214 2.02 194 2.02
   5  0.994  0.502  0.507-  66 1.83 104 1.85 223 1.93 215 1.94 173 2.02 137 2.03
   6  0.494  0.994  0.000- 101 1.83 121 1.84 140 1.95 133 1.97 216 2.01 174 2.03
   7  0.501  0.008  0.500- 112 1.77 191 1.90 134 1.91 139 1.92 175 1.94 225 2.02
   8  0.504  0.495  0.996-  70 1.88 120 1.88  90 1.89 192 2.03 135 2.03 217 2.05
   9  0.492  0.499  0.496- 102 1.80  69 1.86 224 1.97 218 1.98 136 2.01 176 2.05
  10  0.008  0.000  0.255-  91 1.80  67 1.91 227 1.94 130 1.96 219 1.98 197 2.08   1 2.85
  11  0.001  0.009  0.756-  68 1.80 113 1.83 177 1.94 198 1.98 228 2.04 131 2.07
  12  0.994  0.494  0.252- 107 1.83 122 1.85 137 1.92 132 1.97 220 2.00 178 2.03
  13  0.993  0.499  0.742-  66 1.82 108 1.82 226 1.93 221 1.97 138 2.03 179 2.04
  14  0.506  0.009  0.251- 114 1.81  92 1.84 133 1.92 139 1.97 195 2.00 231 2.05
  15  0.492  0.005  0.752- 105 1.81 115 1.83 140 1.93 134 2.00 232 2.01 180 2.03
  16  0.493  0.496  0.258-  69 1.82 106 1.84 229 1.96 222 2.00 135 2.02 181 2.04
  17  0.501  0.504  0.759-  70 1.80 116 1.87 182 1.95 196 1.97 230 2.03 136 2.07
  18  0.995  0.257  0.003- 117 1.82 110 1.88 141 1.96 146 1.98 183 2.01 212 2.02
  19  0.999  0.250  0.494-  74 1.93 142 2.00 223 2.01 184 2.01 213 2.02 202 2.03
  20  0.998  0.759  0.006- 118 1.81  71 1.85 203 1.95 185 1.97 148 2.04 214 2.06
  21  0.998  0.758  0.505-  72 1.83 119 1.84 204 1.94 186 1.96 215 2.01 147 2.02
  22  0.495  0.258  0.002- 120 1.80 109 1.85 150 1.96 143 1.98 187 2.03 216 2.07
  23  0.509  0.246  0.498-  93 1.80 112 1.90 144 1.93 149 1.94 224 1.97 199 1.99
  24  0.507  0.756  0.999-  94 1.82 121 1.84 152 1.93 145 1.99 217 2.01 200 2.02
  25  0.507  0.753  0.509-  73 1.79  95 1.83 218 1.95 225 1.96 201 2.01 151 2.07
  26  0.999  0.259  0.258- 122 1.79  74 1.83 188 1.96 209 1.98 141 2.01 219 2.09
  27  0.007  0.243  0.748- 113 1.81  96 1.82 142 1.96 146 1.97 226 2.04 210 2.06
  28  0.007  0.748  0.243-  71 1.81  97 1.83 220 1.93 227 1.99 147 2.05 211 2.06
  29  0.993  0.752  0.743- 111 1.83  72 1.84 228 1.93 221 1.97 189 2.02 148 2.02
  30  0.508  0.242  0.252-  98 1.82 114 1.83 143 1.93 149 1.96 229 2.00 205 2.03
  31  0.507  0.243  0.751-  99 1.84 115 1.85 150 1.93 144 1.98 206 2.02 230 2.02
  32  0.507  0.751  0.252- 100 1.79 151 1.92 231 1.94 145 1.94 222 1.94 207 2.00
  33  0.502  0.742  0.744- 116 1.80  73 1.84 190 1.93 208 1.97 152 2.02 232 2.06
  34  0.256  0.998  0.006- 101 1.85  75 1.86 246 1.93 233 1.96 171 2.01 157 2.03
  35  0.249  0.994  0.506- 128 1.83  76 1.84 172 1.95 191 1.98 234 2.01 156 2.03
  36  0.244  0.508  0.998- 123 1.82  89 1.84 159 1.93 153 1.97 192 2.02 245 2.03
  37  0.254  0.494  0.507-  77 1.86 127 1.87 102 1.88 173 2.02 158 2.05 235 2.05
  38  0.757  0.000  0.994- 103 1.79  81 1.86 236 1.95 249 1.96 174 2.05 154 2.06
  39  0.750  0.007  0.495- 124 1.83  80 1.84 193 1.93 175 1.98 155 1.99 250 2.02
  40  0.742  0.500  0.005-  90 1.80  78 1.87 237 1.96 247 1.96 161 2.03 194 2.05
  41  0.756  0.498  0.505- 104 1.84  79 1.85 248 1.95 238 1.98 176 2.02 160 2.03
  42  0.246  0.002  0.244-  75 1.82  91 1.88 239 1.93 252 1.96 195 2.03 156 2.03
  43  0.257  0.998  0.744-  76 1.84 105 1.84 253 1.93 240 1.96 177 2.02 157 2.03
  44  0.255  0.492  0.252- 129 1.83 106 1.83 158 1.93 153 1.97 178 2.04 241 2.04
  45  0.247  0.506  0.741-  77 1.79 125 1.84 179 1.95 196 1.97 251 2.02 159 2.06
  46  0.744  0.001  0.256-  92 1.84  80 1.86 256 1.94 242 1.97 154 1.98 197 2.00
  47  0.748  0.007  0.756-  81 1.82 126 1.83 180 1.94 198 1.97 257 2.04 155 2.06
  48  0.756  0.498  0.243-  78 1.81 107 1.85 243 1.95 254 1.97 181 2.02 160 2.04
  49  0.757  0.498  0.742- 108 1.83  79 1.83 255 1.94 244 1.98 182 2.03 161 2.04
  50  0.257  0.251  0.007- 109 1.83  82 1.86 245 1.93 233 1.97 168 2.02 183 2.06
  51  0.253  0.257  0.505- 127 1.81  83 1.86 184 1.94 199 1.97 167 2.04 234 2.06
  52  0.252  0.742  0.994- 123 1.82  86 1.83 200 1.94 185 1.96 162 2.04 246 2.04
  53  0.251  0.755  0.493-  85 1.83 128 1.86 201 1.95 186 1.97 235 1.99 163 2.04
  54  0.757  0.251  0.007- 110 1.80  84 1.86 236 1.94 247 1.94 170 2.03 187 2.04
  55  0.744  0.243  0.498- 124 1.83  93 1.85 202 1.95 169 1.96 164 1.96 248 2.01
  56  0.742  0.749  0.994-  94 1.82  88 1.83 237 1.94 249 1.95 203 2.02 165 2.04
  57  0.741  0.752  0.494-  95 1.81  87 1.86 250 1.94 238 1.95 166 2.01 204 2.03
  58  0.251  0.258  0.244- 129 1.82  82 1.83 205 1.97 188 2.01 167 2.02 239 2.04
  59  0.244  0.252  0.744-  83 1.83  96 1.85 251 1.93 240 1.98 206 2.04 168 2.04
  60  0.244  0.748  0.256-  97 1.83  85 1.84 241 1.93 252 1.98 162 2.02 207 2.06
  61  0.248  0.742  0.757- 125 1.81  86 1.84 189 1.94 208 1.97 163 2.04 253 2.04
  62  0.742  0.252  0.242-  84 1.79  98 1.83 254 1.93 242 1.96 209 2.04 169 2.09
  63  0.744  0.242  0.751- 126 1.82  99 1.84 170 1.94 164 1.99 210 2.01 255 2.04
  64  0.745  0.749  0.257-  87 1.81 100 1.90 243 1.93 256 1.95 211 1.98 165 2.02
  65  0.757  0.750  0.756- 111 1.82  88 1.84 257 1.93 244 1.97 190 2.03 166 2.05
  66  0.009  0.496  0.625-  13 1.82   5 1.83
  67  0.985  0.017  0.375-   3 1.88  10 1.91   1 1.96
  68  0.996  0.007  0.872-  11 1.80   2 1.87
  69  0.499  0.492  0.375-  16 1.82   9 1.86
  70  0.494  0.497  0.875-  17 1.80   8 1.88
  71  0.999  0.752  0.126-  28 1.81  20 1.85
  72  0.001  0.754  0.624-  21 1.83  29 1.84
  73  0.502  0.753  0.625-  25 1.79  33 1.84
  74  0.979  0.232  0.372-  26 1.83  19 1.93   1 1.95
  75  0.251  0.003  0.126-  42 1.82  34 1.86
  76  0.250  0.003  0.625-  43 1.84  35 1.84
  77  0.239  0.495  0.626-  45 1.79  37 1.86
  78  0.750  0.490  0.125-  48 1.81  40 1.87
  79  0.745  0.492  0.624-  49 1.83  41 1.85
  80  0.757  0.005  0.376-  39 1.84  46 1.86
  81  0.749  1.000  0.873-  47 1.82  38 1.86
  82  0.242  0.249  0.126-  58 1.83  50 1.86
  83  0.249  0.250  0.626-  59 1.83  51 1.86
  84  0.736  0.259  0.126-  62 1.79  54 1.86
  85  0.255  0.746  0.375-  53 1.83  60 1.84
  86  0.251  0.752  0.875-  52 1.83  61 1.84
  87  0.752  0.749  0.374-  64 1.81  57 1.86
  88  0.748  0.751  0.875-  56 1.83  65 1.84
  89  0.124  0.505  0.994-   4 1.84  36 1.84
  90  0.626  0.509  0.998-  40 1.80   8 1.89
  91  0.125  0.005  0.256-  10 1.80  42 1.88
  92  0.625  0.004  0.254-  46 1.84  14 1.84
  93  0.625  0.254  0.488-  23 1.80  55 1.85
  94  0.624  0.740  0.003-  56 1.82  24 1.82
  95  0.624  0.760  0.496-  57 1.81  25 1.83
  96  0.125  0.251  0.754-  27 1.82  59 1.85
  97  0.125  0.750  0.252-  60 1.83  28 1.83
  98  0.626  0.242  0.266-  30 1.82  62 1.83
  99  0.625  0.252  0.754-  31 1.84  63 1.84
 100  0.623  0.752  0.251-  32 1.79  64 1.90
 101  0.375  0.998  0.996-   6 1.83  34 1.85
 102  0.376  0.504  0.505-   9 1.80  37 1.88
 103  0.873  1.000  0.003-  38 1.79   2 1.89
 104  0.875  0.500  0.500-  41 1.84   5 1.85
 105  0.376  0.996  0.753-  15 1.81  43 1.84
 106  0.374  0.494  0.248-  44 1.83  16 1.84
 107  0.875  0.496  0.252-  12 1.83  48 1.85
 108  0.875  0.508  0.745-  13 1.82  49 1.83
 109  0.376  0.250  0.009-  50 1.83  22 1.85
 110  0.874  0.250  0.011-  54 1.80  18 1.88
 111  0.875  0.744  0.749-  65 1.82  29 1.83
 112  0.508  0.122  0.495-   7 1.77  23 1.90
 113  0.996  0.126  0.739-  27 1.81  11 1.83
 114  0.493  0.125  0.263-  14 1.81  30 1.83
 115  0.501  0.123  0.748-  15 1.83  31 1.85
 116  0.501  0.625  0.750-  33 1.80  17 1.87
 117  0.002  0.375  0.000-  18 1.82   4 1.86
 118  0.004  0.875  0.996-  20 1.81   2 1.86
 119  0.000  0.876  0.489-   3 1.81  21 1.84
 120  0.504  0.374  0.008-  22 1.80   8 1.88
 121  0.506  0.875  0.005-  24 1.84   6 1.84
 122  0.009  0.375  0.258-  26 1.79  12 1.85
 123  0.257  0.625  0.003-  52 1.82  36 1.82
 124  0.747  0.125  0.505-  39 1.83  55 1.83
 125  0.248  0.625  0.750-  61 1.81  45 1.84
 126  0.751  0.125  0.743-  63 1.82  47 1.83
 127  0.252  0.374  0.494-  51 1.81  37 1.87
 128  0.250  0.876  0.500-  35 1.83  53 1.86
 129  0.240  0.374  0.257-  58 1.82  44 1.83
 130  0.003  0.997  0.127-  10 1.96   2 2.08
 131  0.008  0.991  0.623-   3 2.00  11 2.07
 132  0.001  0.502  0.125-  12 1.97   4 1.98
 133  0.497  0.008  0.127-  14 1.92   6 1.97
 134  0.502  0.995  0.623-   7 1.91  15 2.00
 135  0.503  0.508  0.128-  16 2.02   8 2.03
 136  0.508  0.501  0.625-   9 2.01  17 2.07
 137  0.002  0.509  0.376-  12 1.92   5 2.03
 138  0.994  0.503  0.873-   4 1.93  13 2.03
 139  0.498  0.989  0.377-   7 1.92  14 1.97
 140  0.511  1.000  0.875-  15 1.93   6 1.95
 141  0.012  0.250  0.128-  18 1.96  26 2.01
 142  0.005  0.264  0.623-  27 1.96  19 2.00
 143  0.514  0.238  0.127-  30 1.93  22 1.98
 144  0.503  0.247  0.623-  23 1.93  31 1.98
 145  0.496  0.745  0.127-  32 1.94  24 1.99
 146  0.991  0.245  0.875-  27 1.97  18 1.98
 147  0.993  0.744  0.375-  21 2.02  28 2.05
 148  0.001  0.747  0.874-  29 2.02  20 2.04
 149  0.487  0.263  0.375-  23 1.94  30 1.96
 150  0.495  0.252  0.875-  31 1.93  22 1.96
 151  0.492  0.755  0.376-  32 1.92  25 2.07
 152  0.498  0.752  0.874-  24 1.93  33 2.02
 153  0.244  0.494  0.125-  44 1.97  36 1.97
 154  0.747  0.003  0.127-  46 1.98  38 2.06
 155  0.742  0.994  0.623-  39 1.99  47 2.06
 156  0.256  0.001  0.375-  35 2.03  42 2.03
 157  0.245  0.995  0.875-  43 2.03  34 2.03
 158  0.249  0.511  0.375-  44 1.93  37 2.05
 159  0.260  0.498  0.874-  36 1.93  45 2.06
 160  0.747  0.509  0.374-  41 2.03  48 2.04
 161  0.753  0.507  0.874-  40 2.03  49 2.04
 162  0.252  0.755  0.125-  60 2.02  52 2.04
 163  0.248  0.752  0.625-  61 2.04  53 2.04
 164  0.742  0.262  0.623-  55 1.96  63 1.99
 165  0.752  0.750  0.126-  64 2.02  56 2.04
 166  0.747  0.750  0.624-  57 2.01  65 2.05
 167  0.260  0.244  0.374-  58 2.02  51 2.04
 168  0.255  0.251  0.876-  50 2.02  59 2.04
 169  0.770  0.238  0.373-  55 1.96  62 2.09
 170  0.757  0.243  0.876-  63 1.94  54 2.03
 171  0.126  0.004  1.000-  34 2.01   2 2.02
 172  0.124  0.007  0.491-   3 1.94  35 1.95
 173  0.124  0.505  0.492-   5 2.02  37 2.02
 174  0.625  0.003  0.005-   6 2.03  38 2.05
 175  0.624  0.986  0.496-   7 1.94  39 1.98
 176  0.625  0.496  0.497-  41 2.02   9 2.05
 177  0.126  0.002  0.750-  11 1.94  43 2.02
 178  0.124  0.509  0.250-  12 2.03  44 2.04
 179  0.123  0.494  0.764-  45 1.95  13 2.04
 180  0.624  0.995  0.745-  47 1.94  15 2.03
 181  0.625  0.500  0.251-  48 2.02  16 2.04
 182  0.626  0.493  0.756-  17 1.95  49 2.03
 183  0.125  0.248  0.992-  18 2.01  50 2.06
 184  0.129  0.242  0.491-  51 1.94  19 2.01
 185  0.125  0.743  0.001-  52 1.96  20 1.97
 186  0.124  0.748  0.495-  21 1.96  53 1.97
 187  0.626  0.247  0.990-  22 2.03  54 2.04
 188  0.124  0.235  0.262-  26 1.96  58 2.01
 189  0.123  0.754  0.751-  61 1.94  29 2.02
 190  0.626  0.754  0.751-  33 1.93  65 2.03
 191  0.377  0.005  0.500-   7 1.90  35 1.98
 192  0.373  0.494  0.009-  36 2.02   8 2.03
 193  0.874  1.000  0.513-  39 1.93   3 1.97
 194  0.875  0.496  0.000-   4 2.02  40 2.05
 195  0.377  0.994  0.253-  14 2.00  42 2.03
 196  0.375  0.498  0.740-  17 1.97  45 1.97
 197  0.874  0.997  0.245-  46 2.00  10 2.08
 198  0.874  0.994  0.738-  47 1.97  11 1.98
 199  0.380  0.243  0.503-  51 1.97  23 1.99
 200  0.376  0.759  0.002-  52 1.94  24 2.02
 201  0.377  0.745  0.503-  53 1.95  25 2.01
 202  0.869  0.255  0.512-  55 1.95  19 2.03
 203  0.872  0.757  0.999-  20 1.95  56 2.02
 204  0.872  0.747  0.503-  21 1.94  57 2.03
 205  0.378  0.258  0.241-  58 1.97  30 2.03
 206  0.376  0.250  0.749-  31 2.02  59 2.04
 207  0.377  0.750  0.247-  32 2.00  60 2.06
 208  0.375  0.755  0.749-  33 1.97  61 1.97
 209  0.873  0.258  0.236-  26 1.98  62 2.04
 210  0.874  0.254  0.742-  63 2.01  27 2.06
 211  0.873  0.749  0.248-  64 1.98  28 2.06
 212  0.001  0.126  0.006-  18 2.02   2 2.03
 213  0.990  0.121  0.512-   3 2.00  19 2.02
 214  0.992  0.626  0.999-   4 2.02  20 2.06
 215  0.999  0.628  0.501-   5 1.94  21 2.01
 216  0.502  0.124  0.997-   6 2.01  22 2.07
 217  0.488  0.627  0.999-  24 2.01   8 2.05
 218  0.507  0.627  0.496-  25 1.95   9 1.98
 219  0.983  0.125  0.243-  10 1.98   1 2.06  26 2.09
 220  0.997  0.624  0.249-  28 1.93  12 2.00
 221  0.010  0.625  0.749-  13 1.97  29 1.97
 222  0.499  0.626  0.257-  32 1.94  16 2.00
 223  0.007  0.380  0.487-   5 1.93  19 2.01
 224  0.495  0.372  0.508-  23 1.97   9 1.97
 225  0.489  0.878  0.499-  25 1.96   7 2.02
 226  0.995  0.374  0.757-  13 1.93  27 2.04
 227  0.997  0.875  0.259-  10 1.94  28 1.99
 228  0.999  0.876  0.753-  29 1.93  11 2.04
 229  0.507  0.371  0.240-  16 1.96  30 2.00
 230  0.497  0.373  0.744-  31 2.02  17 2.03
 231  0.498  0.876  0.245-  32 1.94  14 2.05
 232  0.502  0.875  0.754-  15 2.01  33 2.06
 233  0.248  0.124  0.994-  34 1.96  50 1.97
 234  0.254  0.124  0.497-  35 2.01  51 2.06
 235  0.248  0.627  0.506-  53 1.99  37 2.05
 236  0.746  0.126  0.004-  54 1.94  38 1.95
 237  0.762  0.626  0.005-  56 1.94  40 1.96
 238  0.744  0.626  0.504-  57 1.95  41 1.98
 239  0.261  0.126  0.253-  42 1.93  58 2.04
 240  0.252  0.124  0.758-  43 1.96  59 1.98
 241  0.253  0.624  0.241-  60 1.93  44 2.04
 242  0.764  0.126  0.247-  62 1.96  46 1.97
 243  0.748  0.625  0.244-  64 1.93  48 1.95
 244  0.739  0.625  0.746-  65 1.97  49 1.98
 245  0.247  0.376  0.998-  50 1.93  36 2.03
 246  0.243  0.874  0.003-  34 1.93  52 2.04
 247  0.746  0.375  0.987-  54 1.94  40 1.96
 248  0.750  0.373  0.485-  41 1.95  55 2.01
 249  0.743  0.875  0.007-  56 1.95  38 1.96
 250  0.758  0.876  0.500-  57 1.94  39 2.02
 251  0.253  0.376  0.757-  59 1.93  45 2.02
 252  0.252  0.876  0.252-  42 1.96  60 1.98
 253  0.246  0.874  0.747-  43 1.93  61 2.04
 254  0.745  0.374  0.267-  62 1.93  48 1.97
 255  0.755  0.374  0.759-  49 1.94  63 2.04
 256  0.751  0.875  0.247-  46 1.94  64 1.95
 257  0.751  0.875  0.745-  65 1.93  47 2.04
 

IMPORTANT INFORMATION: All symmetrisations will be switched off!
NOSYMM: (Re-)initialisation of all symmetry stuff for point group C_1.

 
 
 KPOINTS: Title                                   

Automatic generation of k-mesh.
Space group operators:
 irot       det(A)        alpha          n_x          n_y          n_z        tau_x        tau_y        tau_z
    1     1.000000     0.000001     1.000000     0.000000     0.000000     0.000000     0.000000     0.000000
 
 Subroutine IBZKPT returns following result:
 ===========================================
 
 Found      4 irreducible k-points:
 
 Following reciprocal coordinates:
            Coordinates               Weight
  0.250000  0.250000  0.250000      2.000000
 -0.250000  0.250000  0.250000      2.000000
  0.250000 -0.250000  0.250000      2.000000
 -0.250000 -0.250000  0.250000      2.000000
 
 Following cartesian coordinates:
            Coordinates               Weight
  0.016206  0.016206  0.016206      2.000000
 -0.016206  0.016206  0.016206      2.000000
  0.016206 -0.016206  0.016206      2.000000
 -0.016206 -0.016206  0.016206      2.000000
 


--------------------------------------------------------------------------------------------------------




 Dimension of arrays:
   k-points           NKPTS =      4   k-points in BZ     NKDIM =      4   number of bands    NBANDS=   1164
   number of dos      NEDOS =   3001   number of ions     NIONS =    257
   non local maximal  LDIM  =      6   non local SUM 2l+1 LMDIM =     18
   total plane-waves  NPLWV = ******
   max r-space proj   IRMAX =   7595   max aug-charges    IRDMAX= 146383
   dimension x,y,z NGX =   120 NGY =  120 NGZ =  120
   dimension x,y,z NGXF=   240 NGYF=  240 NGZF=  240
   support grid    NGXF=   480 NGYF=  480 NGZF=  480
   ions per type =               1  64  64 128
   NGX,Y,Z   is equivalent  to a cutoff of  12.93, 12.93, 12.93 a.u.
   NGXF,Y,Z  is equivalent  to a cutoff of  25.86, 25.86, 25.86 a.u.

 SYSTEM =  LTO                                     
 POSCAR =  config 50                               

 Startparameter for this run:
   NWRITE =      2    write-flag & timer
   PREC   = accura    normal or accurate (medium, high low for compatibility)
   ISTART =      1    job   : 0-new  1-cont  2-samecut
   ICHARG =      0    charge: 1-file 2-atom 10-const
   ISPIN  =      2    spin polarized calculation?
   LNONCOLLINEAR =      F non collinear calculations
   LSORBIT =      F    spin-orbit coupling
   INIWAV =      1    electr: 0-lowe 1-rand  2-diag
   LASPH  =      T    aspherical Exc in radial PAW
   METAGGA=      F    non-selfconsistent MetaGGA calc.

 Electronic Relaxation 1
   ENCUT  =  500.0 eV  36.75 Ry    6.06 a.u.  28.13 28.13 28.13*2*pi/ulx,y,z
   ENINI  =  500.0     initial cutoff
   ENAUG  =  628.9 eV  augmentation charge cutoff
   NELM   =     60;   NELMIN=  2; NELMDL=  0     # of ELM steps 
   EDIFF  = 0.1E-05   stopping-criterion for ELM
   LREAL  =      T    real-space projection
   NLSPLINE    = F    spline interpolate recip. space projectors
   LCOMPAT=      F    compatible to vasp.4.4
   GGA_COMPAT  = T    GGA compatible to vasp.4.4-vasp.4.6
   LMAXPAW     = -100 max onsite density
   LMAXMIX     =    4 max onsite mixed and CHGCAR
   VOSKOWN=      0    Vosko Wilk Nusair interpolation
   ROPT   =   -0.00010  -0.00010  -0.00010  -0.00010
 Ionic relaxation
   EDIFFG = -.5E-01   stopping-criterion for IOM
   NSW    =    100    number of steps for IOM
   NBLOCK =      1;   KBLOCK =    100    inner block; outer block 
   IBRION =      1    ionic relax: 0-MD 1-quasi-New 2-CG
   NFREE  =      0    steps in history (QN), initial steepest desc. (CG)
   ISIF   =      2    stress and relaxation
   IWAVPR =     11    prediction:  0-non 1-charg 2-wave 3-comb
   ISYM   =      0    0-nonsym 1-usesym 2-fastsym
   LCORR  =      T    Harris-Foulkes like correction to forces

   POTIM  = 0.5000    time-step for ionic-motion
   TEIN   =    0.0    initial temperature
   TEBEG  =    0.0;   TEEND  =   0.0 temperature during run
   SMASS  =  -3.00    Nose mass-parameter (am)
   estimated Nose-frequenzy (Omega)   =  0.10E-29 period in steps =****** mass=  -0.544E-26a.u.
   SCALEE = 1.0000    scale energy and forces
   NPACO  =    256;   APACO  = 16.0  distance and # of slots for P.C.
   PSTRESS=    0.0 pullay stress

  Mass of Ions in am
   POMASS =   7.01 47.88 16.00 19.00
  Ionic Valenz
   ZVAL   =   3.00 10.00  6.00  7.00
  Atomic Wigner-Seitz radii
   RWIGS  =  -1.00 -1.00 -1.00 -1.00
  virtual crystal weights 
   VCA    =   1.00  1.00  1.00  1.00
   NELECT =    1923.0000    total number of electrons
   NUPDOWN=       1.0000    fix difference up-down

 DOS related values:
   EMIN   =  10.00;   EMAX   =-10.00  energy-range for DOS
   EFERMI =   0.00
   ISMEAR =     0;   SIGMA  =   0.01  broadening in eV -4-tet -1-fermi 0-gaus

 Electronic relaxation 2 (details)
   IALGO  =     38    algorithm
   LDIAG  =      T    sub-space diagonalisation (order eigenvalues)
   LSUBROT=      F    optimize rotation matrix (better conditioning)
   TURBO    =      0    0=normal 1=particle mesh
   IRESTART =      0    0=no restart 2=restart with 2 vectors
   NREBOOT  =      0    no. of reboots
   NMIN     =      0    reboot dimension
   EREF     =   0.00    reference energy to select bands
   IMIX   =      4    mixing-type and parameters
     AMIX     =   0.40;   BMIX     =  1.00
     AMIX_MAG =   1.60;   BMIX_MAG =  1.00
     AMIN     =   0.10
     WC   =   100.;   INIMIX=   1;  MIXPRE=   1;  MAXMIX= -45

 Intra band minimization:
   WEIMIN = 0.0010     energy-eigenvalue tresh-hold
   EBREAK =  0.21E-09  absolut break condition
   DEPER  =   0.30     relativ break condition  

   TIME   =   0.40     timestep for ELM

  volume/ion in A,a.u.               =      14.28        96.39
  Fermi-wavevector in a.u.,A,eV,Ry     =   1.319690  2.493853 23.695660  1.741582
  Thomas-Fermi vector in A             =   2.449570
 
 Write flags
   LWAVE        =      T    write WAVECAR
   LDOWNSAMPLE  =      F    k-point downsampling of WAVECAR
   LCHARG       =      T    write CHGCAR
   LVTOT        =      F    write LOCPOT, total local potential
   LVHAR        =      F    write LOCPOT, Hartree potential only
   LELF         =      F    write electronic localiz. function (ELF)
   LORBIT       =     11    0 simple, 1 ext, 2 COOP (PROOUT), +10 PAW based schemes


 Dipole corrections
   LMONO  =      F    monopole corrections only (constant potential shift)
   LDIPOL =      F    correct potential (dipole corrections)
   IDIPOL =      0    1-x, 2-y, 3-z, 4-all directions 
   EPSILON=  1.0000000 bulk dielectric constant

 LDA+U is selected, type is set to LDAUTYPE =  2
   angular momentum for each species LDAUL =    -1    2   -1   -1
   U (eV)           for each species LDAUU =   0.0  4.2  0.0  0.0
   J (eV)           for each species LDAUJ =   0.0  0.0  0.0  0.0
 Exchange correlation treatment:
   GGA     =    PS    GGA type
   LEXCH   =    14    internal setting for exchange type
   VOSKOWN=      0    Vosko Wilk Nusair interpolation
   LHFCALC =     F    Hartree Fock is set to
   LHFONE  =     F    Hartree Fock one center treatment
   AEXX    =    0.0000 exact exchange contribution

 Linear response parameters
   LEPSILON=     F    determine dielectric tensor
   LRPA    =     F    only Hartree local field effects (RPA)
   LNABLA  =     F    use nabla operator in PAW spheres
   LVEL    =     F    velocity operator in full k-point grid
   LINTERFAST=   F  fast interpolation
   KINTER  =     0    interpolate to denser k-point grid
   CSHIFT  =0.1000    complex shift for real part using Kramers Kronig
   OMEGAMAX=  -1.0    maximum frequency
   DEG_THRESHOLD= 0.2000000E-02 threshold for treating states as degnerate
   RTIME   =   -0.100 relaxation time in fs
  (WPLASMAI=    0.000 imaginary part of plasma frequency in eV, 0.658/RTIME)
   DFIELD  = 0.0000000 0.0000000 0.0000000 field for delta impulse in time
 
 Orbital magnetization related:
   ORBITALMAG=     F  switch on orbital magnetization
   LCHIMAG   =     F  perturbation theory with respect to B field
   DQ        =  0.001000  dq finite difference perturbation B field
   LLRAUG    =     F  two centre corrections for induced B field



--------------------------------------------------------------------------------------------------------


 quasi-Newton-method for relaxation of ions
 charge density and potential will be updated during run
 spin polarized calculation
 Variant of blocked Davidson
 Davidson routine will perform the subspace rotation
 perform sub-space diagonalisation
    after iterative eigenvector-optimisation
 modified Broyden-mixing scheme, WC =      100.0
 initial mixing is a Kerker type mixing with AMIX =  0.4000 and BMIX =      1.0000
 Hartree-type preconditioning will be used
 using additional bands          202
 real space projection scheme for non local part
 use partial core corrections
 calculate Harris-corrections to forces 
   (improved forces if not selfconsistent)
 use gradient corrections 
 use of overlap-Matrix (Vanderbilt PP)
 Gauss-broadening in eV      SIGMA  =   0.01


--------------------------------------------------------------------------------------------------------


  energy-cutoff  :      500.00
  volume of cell :     3671.03
      direct lattice vectors                 reciprocal lattice vectors
    15.426331000  0.000000000  0.000000000     0.064824228  0.000000000  0.000000000
     0.000000000 15.426331000  0.000000000     0.000000000  0.064824228  0.000000000
     0.000000000  0.000000000 15.426331000     0.000000000  0.000000000  0.064824228

  length of vectors
    15.426331000 15.426331000 15.426331000     0.064824228  0.064824228  0.064824228


 
 old parameters found on file WAVECAR:
  energy-cutoff  :      500.00
  volume of cell :     3671.03
      direct lattice vectors                 reciprocal lattice vectors
    15.426331000  0.000000000  0.000000000     0.064824228  0.000000000  0.000000000
     0.000000000 15.426331000  0.000000000     0.000000000  0.064824228  0.000000000
     0.000000000  0.000000000 15.426331000     0.000000000  0.000000000  0.064824228

  length of vectors

 
 k-points in units of 2pi/SCALE and weight: Title                                   
   0.01620606  0.01620606  0.01620606       0.250
  -0.01620606  0.01620606  0.01620606       0.250
   0.01620606 -0.01620606  0.01620606       0.250
  -0.01620606 -0.01620606  0.01620606       0.250
 
 k-points in reciprocal lattice and weights: Title                                   
   0.25000000  0.25000000  0.25000000       0.250
  -0.25000000  0.25000000  0.25000000       0.250
   0.25000000 -0.25000000  0.25000000       0.250
  -0.25000000 -0.25000000  0.25000000       0.250
 
 position of ions in fractional coordinates (direct lattice) 
   0.91670270  0.12275535  0.35853547
   0.99495702  0.99572339  0.99281064
   0.99959282  0.99297782  0.49314511
   0.00582629  0.49561522  0.99739872
   0.99445104  0.50238800  0.50715921
   0.49425300  0.99389610  0.00025329
   0.50050773  0.00799578  0.49970302
   0.50415087  0.49534727  0.99636517
   0.49188616  0.49897052  0.49568829
   0.00802779  0.00028969  0.25450294
   0.00074977  0.00874159  0.75550679
   0.99368751  0.49383866  0.25243563
   0.99271476  0.49876517  0.74169802
   0.50572600  0.00889183  0.25106579
   0.49247073  0.00494740  0.75166055
   0.49279719  0.49641348  0.25758524
   0.50087513  0.50397257  0.75869791
   0.99548207  0.25746880  0.00274525
   0.99881728  0.24981492  0.49421190
   0.99816356  0.75865838  0.00558051
   0.99766402  0.75782867  0.50525356
   0.49502582  0.25797497  0.00195205
   0.50895532  0.24550285  0.49844303
   0.50726507  0.75603418  0.99936820
   0.50654814  0.75260963  0.50920009
   0.99943324  0.25914406  0.25799755
   0.00665623  0.24289502  0.74838760
   0.00670340  0.74790454  0.24294187
   0.99270514  0.75166078  0.74300143
   0.50837402  0.24207153  0.25197040
   0.50678574  0.24280210  0.75105334
   0.50657043  0.75133753  0.25216088
   0.50162835  0.74182432  0.74385385
   0.25594835  0.99819513  0.00584306
   0.24933624  0.99395726  0.50623620
   0.24375375  0.50783049  0.99789935
   0.25418506  0.49421907  0.50696362
   0.75720633  0.00027981  0.99397156
   0.75035228  0.00702559  0.49484259
   0.74178558  0.50048380  0.00480254
   0.75567509  0.49762618  0.50500654
   0.24571202  0.00226452  0.24381638
   0.25690659  0.99787431  0.74384901
   0.25510975  0.49184964  0.25197652
   0.24693746  0.50598359  0.74140836
   0.74420884  0.00061338  0.25556505
   0.74838818  0.00664063  0.75578495
   0.75564995  0.49842444  0.24252063
   0.75721990  0.49780476  0.74210180
   0.25706472  0.25145681  0.00682510
   0.25271071  0.25673980  0.50548796
   0.25196636  0.74228447  0.99379943
   0.25141839  0.75529846  0.49303824
   0.75692429  0.25122595  0.00735436
   0.74407518  0.24337689  0.49767655
   0.74172287  0.74920700  0.99384067
   0.74119308  0.75176335  0.49383216
   0.25089507  0.25761034  0.24409698
   0.24395750  0.25150612  0.74412813
   0.24377318  0.74763048  0.25598326
   0.24784872  0.74166073  0.75678080
   0.74158554  0.25154115  0.24172755
   0.74415753  0.24215359  0.75117058
   0.74536387  0.74937438  0.25662933
   0.75734029  0.75041096  0.75647750
   0.00864278  0.49585692  0.62487298
   0.98533030  0.01674472  0.37477452
   0.99645902  0.00687841  0.87204110
   0.49860117  0.49226266  0.37537346
   0.49364450  0.49661065  0.87504595
   0.99903601  0.75219296  0.12564323
   0.00137653  0.75424470  0.62375689
   0.50180066  0.75290340  0.62498146
   0.97930650  0.23205590  0.37187843
   0.25128153  0.00266663  0.12601001
   0.24958986  0.00309457  0.62513188
   0.23875332  0.49501143  0.62630381
   0.74956283  0.48996825  0.12544584
   0.74516183  0.49151174  0.62399825
   0.75745882  0.00464914  0.37557433
   0.74893293  0.99953135  0.87345488
   0.24181819  0.24948894  0.12620567
   0.24917311  0.24993979  0.62581304
   0.73625062  0.25927020  0.12602962
   0.25478598  0.74644479  0.37467643
   0.25132297  0.75211492  0.87545415
   0.75212409  0.74889753  0.37386187
   0.74849236  0.75108638  0.87526023
   0.12440700  0.50525534  0.99427629
   0.62566347  0.50859144  0.99791840
   0.12483469  0.00452308  0.25636720
   0.62504013  0.00385379  0.25404816
   0.62469311  0.25371679  0.48823973
   0.62443157  0.74027774  0.00285664
   0.62412646  0.76047281  0.49556984
   0.12450154  0.25056283  0.75434021
   0.12515139  0.75027022  0.25228579
   0.62572974  0.24231901  0.26619938
   0.62539909  0.25190311  0.75415892
   0.62262321  0.75240154  0.25112029
   0.37545282  0.99761168  0.99587066
   0.37558784  0.50449298  0.50526860
   0.87294214  0.99985952  0.00287945
   0.87491548  0.50044892  0.50029675
   0.37564528  0.99627171  0.75308386
   0.37387351  0.49427425  0.24787569
   0.87528229  0.49572226  0.25152455
   0.87511091  0.50782790  0.74539717
   0.37576148  0.24975919  0.00868072
   0.87385954  0.25024025  0.01060353
   0.87475004  0.74371824  0.74871860
   0.50794527  0.12210643  0.49476297
   0.99599081  0.12622501  0.73872547
   0.49285116  0.12501680  0.26290589
   0.50087459  0.12337415  0.74802030
   0.50138393  0.62515662  0.75044705
   0.00155185  0.37496527  0.00013809
   0.00368982  0.87535697  0.99638947
   0.00019873  0.87598318  0.48946403
   0.50437519  0.37399707  0.00826662
   0.50595543  0.87521527  0.00460195
   0.00889444  0.37505707  0.25757525
   0.25725886  0.62508875  0.00287762
   0.74655930  0.12486690  0.50513459
   0.24802268  0.62467850  0.74973903
   0.75136806  0.12459688  0.74318812
   0.25176863  0.37366649  0.49397028
   0.25044739  0.87579030  0.49953410
   0.24035673  0.37423981  0.25688806
   0.00260362  0.99692881  0.12734936
   0.00810446  0.99143759  0.62269677
   0.00128121  0.50248475  0.12545546
   0.49749688  0.00788813  0.12687539
   0.50192859  0.99476195  0.62303232
   0.50268069  0.50840695  0.12761265
   0.50823497  0.50056597  0.62500087
   0.00236628  0.50888631  0.37583641
   0.99431693  0.50300342  0.87303272
   0.49811559  0.98873706  0.37662564
   0.51127079  0.99993592  0.87535469
   0.01195713  0.24961970  0.12846520
   0.00510299  0.26422473  0.62320431
   0.51416988  0.23784018  0.12717739
   0.50323735  0.24672858  0.62313006
   0.49614800  0.74489975  0.12709119
   0.99084571  0.24507031  0.87530564
   0.99345089  0.74415407  0.37482707
   0.00112821  0.74690506  0.87375656
   0.48716495  0.26291970  0.37549375
   0.49482452  0.25197784  0.87527694
   0.49222358  0.75519313  0.37568869
   0.49824740  0.75225444  0.87435487
   0.24386532  0.49394341  0.12495804
   0.74666102  0.00281798  0.12693760
   0.74182705  0.99444292  0.62276387
   0.25611413  0.00104537  0.37517931
   0.24540900  0.99470932  0.87478955
   0.24898046  0.51146117  0.37533301
   0.26017545  0.49833850  0.87405557
   0.74725234  0.50933713  0.37433601
   0.75334493  0.50665379  0.87413434
   0.25152055  0.75472771  0.12528203
   0.24834901  0.75193594  0.62525270
   0.74234886  0.26214826  0.62341770
   0.75191920  0.75030304  0.12577523
   0.74687152  0.75022501  0.62412607
   0.26032185  0.24365346  0.37395621
   0.25548787  0.25055075  0.87611055
   0.76961218  0.23813020  0.37330282
   0.75745013  0.24344924  0.87623176
   0.12563790  0.00396367  0.99989242
   0.12445260  0.00740471  0.49086105
   0.12438105  0.50541086  0.49220895
   0.62507268  0.00348674  0.00549281
   0.62391990  0.98572938  0.49592417
   0.62500176  0.49550583  0.49698370
   0.12639641  0.00158211  0.75039212
   0.12420748  0.50876695  0.24991908
   0.12317153  0.49402725  0.76363913
   0.62360939  0.99485714  0.74476992
   0.62494751  0.50010640  0.25087417
   0.62646451  0.49301522  0.75629589
   0.12465810  0.24773859  0.99206865
   0.12875322  0.24198050  0.49086623
   0.12488192  0.74295666  0.00062549
   0.12401410  0.74820735  0.49530117
   0.62593678  0.24713148  0.98985741
   0.12420706  0.23490173  0.26227315
   0.12310884  0.75381674  0.75116813
   0.62621213  0.75423024  0.75074567
   0.37719076  0.00466863  0.50044702
   0.37335009  0.49373823  0.00861432
   0.87386425  0.99952952  0.51309794
   0.87460457  0.49633290  0.00032715
   0.37691528  0.99447186  0.25293147
   0.37470989  0.49817012  0.74042567
   0.87358527  0.99744357  0.24468119
   0.87408916  0.99419696  0.73820031
   0.37977525  0.24332759  0.50313031
   0.37639465  0.75923230  0.00205527
   0.37692118  0.74482045  0.50293279
   0.86884022  0.25483481  0.51220642
   0.87211819  0.75674576  0.99899263
   0.87214619  0.74712595  0.50325698
   0.37839893  0.25815233  0.24116153
   0.37633999  0.24958515  0.74888202
   0.37682880  0.75033504  0.24712311
   0.37494184  0.75473935  0.74880612
   0.87324602  0.25841964  0.23596187
   0.87385553  0.25388376  0.74234092
   0.87338992  0.74925277  0.24839526
   0.00136084  0.12643165  0.00597364
   0.98973069  0.12059757  0.51227831
   0.99183973  0.62565378  0.99913730
   0.99945902  0.62789493  0.50083869
   0.50210145  0.12423308  0.99717243
   0.48800840  0.62733106  0.99902182
   0.50708242  0.62665264  0.49614566
   0.98267131  0.12528615  0.24270967
   0.99684738  0.62354655  0.24931930
   0.01035049  0.62505008  0.74914546
   0.49947463  0.62594757  0.25699710
   0.00687241  0.37956317  0.48716958
   0.49529796  0.37180254  0.50819522
   0.48918632  0.87781849  0.49903358
   0.99523776  0.37437906  0.75706539
   0.99658970  0.87534263  0.25929131
   0.99927622  0.87633814  0.75309123
   0.50651670  0.37131712  0.23971333
   0.49686316  0.37295901  0.74444627
   0.49839977  0.87640550  0.24505353
   0.50227088  0.87505744  0.75358929
   0.24834131  0.12448095  0.99439796
   0.25379668  0.12359061  0.49721805
   0.24775565  0.62707665  0.50583092
   0.74579805  0.12598070  0.00396809
   0.76246706  0.62551754  0.00494829
   0.74437336  0.62559096  0.50382855
   0.26078277  0.12601376  0.25304228
   0.25214141  0.12435873  0.75757044
   0.25277146  0.62357589  0.24101212
   0.76411876  0.12647706  0.24675857
   0.74787499  0.62479877  0.24388195
   0.73908922  0.62473605  0.74561652
   0.24663956  0.37595033  0.99767443
   0.24256820  0.87387279  0.00331375
   0.74606249  0.37483037  0.98660380
   0.75022204  0.37293742  0.48485390
   0.74273080  0.87496378  0.00668411
   0.75785002  0.87638924  0.49990996
   0.25349872  0.37586661  0.75715371
   0.25215810  0.87565064  0.25155150
   0.24598577  0.87360323  0.74692286
   0.74529385  0.37389799  0.26730042
   0.75476334  0.37355309  0.75946273
   0.75139257  0.87546515  0.24660115
   0.75142264  0.87512446  0.74523449
 
 position of ions in cartesian coordinates  (Angst):
  14.14135923  1.89366472  5.53088690
  15.34853634 15.36035854 15.31542552
  15.42004966 15.31800460  7.60741973
   0.08987827  7.64552436 15.38620286
  15.34073089  7.75000352  7.82360588
   7.62451044 15.33217025  0.00390738
   7.72099791  0.12334562  7.70858416
   7.77719825  7.64139093 15.37025896
   7.58799867  7.69728438  7.64665159
   0.12383932  0.00446878  3.92604657
   0.01156613  0.13485072 11.65469775
  15.32895244  7.61811856  3.89415558
  15.31394652  7.69411656 11.44167916
   7.80149672  0.13716837  3.87302391
   7.59701653  0.07632020 11.59536445
   7.60205263  7.65783867  3.97359517
   7.72666554  7.77444763 11.70392513
  15.35663599  3.97179893  0.04234911
  15.40808593  3.85372762  7.62387628
  15.39800150 11.70331536  0.08608675
  15.39029534 11.69051593  7.79420866
   7.63643212  3.97960727  0.03011290
   7.85131320  3.78720826  7.68914723
   7.82523885 11.66283358 15.41658466
   7.81417929 11.61000527  7.85508911
  15.41758790  3.99764199  3.97995559
   0.10268124  3.74697893 11.54487490
   0.10340885 11.53742306  3.74770172
  15.31379800 11.59536800 11.46178604
   7.84234590  3.73427548  3.88697880
   7.81784460  3.74554562 11.58599748
   7.81452310 11.59038139  3.88991722
   7.73828502 11.44362757 11.47493572
   3.94834396 15.39848847  0.09013700
   3.84634338 15.33311376  7.80936711
   3.76022607  7.83396120 15.39392569
   3.92114291  7.62398696  7.82058856
  11.68091546  0.00431649 15.33333424
  11.57518266  0.10837913  7.63360555
  11.44302988  7.72062873  0.07408554
  11.65729414  7.67654621  7.79039808
   3.79043500  0.03493316  3.76119219
   3.96312611 15.39353946 11.47486099
   3.93540750  7.58743540  3.88707325
   3.80933905  7.80547027 11.43721070
  11.48041192  0.00946223  3.94243105
  11.54488378  0.10244056 11.65898878
  11.65690632  7.68886037  3.74120351
  11.68112477  7.67930094 11.44790807
   3.96556539  3.87905598  0.10528626
   3.89839901  3.96055316  7.79782462
   3.88691642 11.45072600 15.33067894
   3.87846326 11.65148410  7.60577102
  11.67656469  3.87549461  0.11345073
  11.47834999  3.75441251  7.67732319
  11.44206253 11.55751516 15.33131517
  11.43388984 11.59695025  7.61801837
   3.87039046  3.97398243  3.76552077
   3.76336920  3.87981661 11.47916684
   3.76052573 11.53319525  3.94888249
   3.82339633 11.44110398 11.67435105
  11.43994397  3.88035706  3.72896922
  11.47962038  3.73554149 11.58780594
  11.49822978 11.56009722  3.95884892
  11.68298195 11.57608783 11.66967233
   0.13332635  7.64925296  9.63949743
  15.20003135  0.25830963  5.78139585
  15.37170662  0.10610869 13.45239468
   7.69158662  7.59380680  5.79063531
   7.61512349  7.66088023 13.49874850
  15.41146017 11.60357754  1.93821399
   0.02123485 11.63522840  9.62228032
   7.74094311 11.61453713  9.64117081
  15.10710623  3.57977111  5.73671973
   3.87635211  0.04113632  1.94387212
   3.85025582  0.04773787  9.64349136
   3.68308779  7.63621021  9.66156981
  11.56300435  7.55841233  1.93516908
  11.49511302  7.58222279  9.62600358
  11.68481046  0.07171917  5.79373398
  11.55328721 15.41910143 13.47420406
   3.73036749  3.84869892  1.94689040
   3.84382680  3.85565392  9.65399911
  11.35764577  3.99958793  1.94417464
   3.93041286 11.51490439  5.77988257
   3.87699136 11.60237376 13.50504550
  11.60251523 11.55274115  5.76731691
  11.54649083 11.58650715 13.50205404
   1.91914350  7.79423608 15.33803521
   9.65169175  7.84569984 15.39421960
   1.92574128  0.06977454  3.95480525
   9.64207588  0.05944977  3.91903102
   9.63672274  3.91391921  7.53174770
   9.63268811 11.41976951  0.04406742
   9.62798129 11.73130535  7.64482435
   1.92060195  3.86526510 11.63670173
   1.93062677 11.57391670  3.89184409
   9.65271405  3.73809319  4.10647976
   9.64761333  3.88594075 11.63390505
   9.60479174 11.60679521  3.87386465
   5.79185949 15.38948794 15.36263040
   5.79394229  7.78247575  7.79444070
  13.46629435 15.42416396  0.04441932
  13.49673585  7.72009076  7.71774329
   5.79482845 15.36881713 11.61732091
   5.76749653  7.62483817  3.82381237
  13.50239426  7.64717563  3.88010102
  13.49975049  7.83392121 11.49874345
   5.79662092  3.85286794  0.13391166
  13.48044645  3.86028896  0.16357364
  13.49418371 11.47284379 11.54998101
   7.83573186  1.88365423  7.63237741
  15.36448388  1.94718886 11.39582366
   7.60288513  1.92855061  4.05567331
   7.72665716  1.90321041 11.53920881
   7.73451446  9.64387298 11.57664459
   0.02393942  5.78433834  0.00213026
   0.05692036 13.50354633 15.37063370
   0.00306567 13.51320649  7.55063417
   7.78065857  5.76940259  0.12752364
   7.80503601 13.50136050  0.07099114
   0.13720860  5.78575457  3.97344103
   3.96856028  9.64282603  0.04439119
  11.51667091  1.92623816  7.79237340
   3.82608002  9.63649729 11.56572236
  11.59085247  1.92207279 11.46466593
   3.88386622  5.76430302  7.62014906
   3.86348439 13.51023109  7.70597839
   3.70782243  5.77314716  3.96284018
   0.04016433 15.37895376  1.96453339
   0.12502210 15.29424443  9.60592647
   0.01976443  7.75149613  1.93531749
   7.67455149  0.12168488  1.95722177
   7.74291661 15.34552715  9.61110279
   7.75451874  7.84285390  1.96859501
   7.84020094  7.72189638  9.64147027
   0.03650297  7.85024859  5.79777685
  15.33866201  7.75949732 13.46769165
   7.68409602 15.25258509  5.80995183
   7.88703246 15.42534247 13.50351113
   0.18445470  3.85071605  1.98174668
   0.07872049  4.07601820  9.61375603
   7.93175477  3.66900132  1.96188049
   7.76310591  3.80611678  9.61261049
   7.65374328 11.49107012  1.96055081
  15.28511389  3.78053575 13.50275460
  15.32530230 11.47956696  5.78220650
   0.01740421 11.52200474 13.47885794
   7.51516781  4.05588633  5.79249088
   7.63332687  3.88709362 13.50231178
   7.59320383 11.64985925  5.79549814
   7.68612934 11.60452597 13.48808757
   3.76194707  7.61973457  1.92764409
  11.51824012  0.04347116  1.95818151
  11.44366959 15.34060557  9.60696161
   3.95090130  0.01612627  5.78764026
   3.78576040 15.34471523 13.49479317
   3.84085500  7.88996933  5.79001119
   4.01355260  7.68753469 13.48347058
  11.52736197  7.85720315  5.77463126
  11.62134831  7.81580905 13.48468567
   3.88003931 11.64267943  1.93264214
   3.83111405 11.59961262  9.64535504
  11.45171919  4.04398582  9.61704778
  11.59935447 11.57442305  1.94025037
  11.52148731 11.57321934  9.62797535
   4.01581099  3.75867897  5.76877227
   3.94124039  3.86507879 13.51517130
  11.87229222  3.67347531  5.75869292
  11.68467647  3.75552851 13.51704123
   1.93813189  0.06114496 15.42467138
   1.91984704  0.11422748  7.57218496
   1.91874323  7.79663516  7.59297812
   9.64257808  0.05378762  0.08473392
   9.62479485 15.20618763  7.65029039
   9.64148402  7.64383691  7.66663513
   1.94983285  0.02440612 11.57579716
   1.91606571  7.84840735  3.85533439
   1.90008483  7.62102788 11.78015003
   9.62000494 15.34699557 11.48906736
   9.64064719  7.71480685  3.87006802
   9.66404891  7.60541600 11.66687072
   1.92301712  3.82169752 15.30397941
   1.98618977  3.73287137  7.57226493
   1.92646981 11.46109532  0.00964906
   1.91308260 11.54209417  7.64067982
   9.65590802  3.81233197 15.26986804
   1.91605923  3.62367177  4.04591245
   1.89911770 11.62862656 11.58776821
   9.66015554 11.63500539 11.58125124
   5.81866948  0.07201984  7.72006130
   5.75942213  7.61656942  0.13288734
  13.48051912 15.41907321  7.91521865
  13.49193957  7.65659554  0.00504680
   5.81441982 15.34105216  3.90180459
   5.78039887  7.68493713 11.42205140
  13.47621546 15.38689466  3.77453304
  13.48398873 15.33681134 11.38772239
   5.85853876  3.75365194  7.76145469
   5.80638842 11.71216879  0.03170521
   5.81451092 11.48984680  7.75840771
  13.40301681  3.93116613  7.90146580
  13.45358383 11.67381060 15.41079097
  13.45401585 11.52541217  7.76340870
   5.83730708  3.98234335  3.72023762
   5.80554522  3.85018317 11.55250199
   5.81308587 11.57491673  3.81220291
   5.78397698 11.64285905 11.55133111
  13.47098216  3.98646692  3.64002584
  13.48038470  3.91649487 11.45159671
  13.47320205 11.55822121  3.83182742
   0.02099271  1.95037652  0.09215137
  15.26791330  1.86037810  7.90257475
  15.30044801  9.65154225 15.41302271
  15.41798571  9.68611504  7.72610346
   7.74558313  1.91646064 15.38271201
   7.52817908  9.67741658 15.41124123
   7.82242133  9.66695101  7.65370719
  15.15901293  1.93270557  3.74411970
  15.37769770  9.61903551  3.84608199
   0.15967005  9.64222937 11.55656586
   7.70506097  9.65607436  3.96452230
   0.10601611  5.85526705  7.51523926
   7.64063030  5.73554906  7.83958760
   7.54635015 13.54151864  7.69825714
  15.35286712  5.77529533 11.67874134
  15.37372251 13.50332513  3.99991352
  15.41516575 13.51868224 11.61743466
   7.81369427  5.72806086  3.69789714
   7.66477562  5.75338920 11.48407456
   7.68847981 13.51972128  3.78027682
   7.74819680 13.49892572 11.62511777
   3.83099529  1.92028429 15.33991213
   3.91515164  1.90654969  7.67025029
   3.82196065  9.67349195  7.80311518
  11.50492765  1.94341992  0.06121309
  11.76206926  9.64944062  0.07633399
  11.48294981  9.65057314  7.77222599
   4.02292140  1.94392996  3.90351389
   3.88961680  1.91839893 11.68653232
   3.89933628  9.61948802  3.71793269
  11.78754891  1.95107700  3.80657934
  11.53696714  9.63835259  3.76220365
  11.40143500  9.63738503 11.50212722
   3.80474346  5.79953417 15.39045603
   3.74193737 13.48065093  0.05111894
  11.50900692  5.78225743 15.21967677
  11.57317359  5.75305604  7.47951668
  11.45761122 13.49748085  0.10311135
  11.69084519 13.51947046  7.71177651
   3.91055517  5.79824278 11.68010381
   3.88987426 13.50807661  3.88051666
   3.79465793 13.47649254 11.52227934
  11.49714964  5.76787411  4.12346476
  11.64322915  5.76255363 11.71572340
  11.59123050 13.50521516  3.80415102
  11.59169440 13.49995956 11.49623388
 


--------------------------------------------------------------------------------------------------------


 k-point  1 :   0.2500 0.2500 0.2500  plane waves:   93161
 k-point  2 :  -0.2500 0.2500 0.2500  plane waves:   93161
 k-point  3 :   0.2500-0.2500 0.2500  plane waves:   93161
 k-point  4 :  -0.2500-0.2500 0.2500  plane waves:   93161

 maximum and minimum number of plane-waves per node :     11686    11606

 maximum number of plane-waves:     93161
 maximum index in each direction: 
   IXMAX=   28   IYMAX=   28   IZMAX=   27
   IXMIN=  -28   IYMIN=  -28   IZMIN=  -28


 real space projection operators:
  total allocation   :     105563.54 KBytes
  max/ min on nodes  :      13243.85      13164.81


 parallel 3D FFT for wavefunctions:
    minimum data exchange during FFTs selected (reduces bandwidth)
 parallel 3D FFT for charge:
    minimum data exchange during FFTs selected (reduces bandwidth)


 total amount of memory used by VASP MPI-rank0   291483. kBytes
=======================================================================

   base      :      30000. kBytes
   nonlr-proj:      49448. kBytes
   fftplans  :      27976. kBytes
   grid      :      34041. kBytes
   one-center:       1026. kBytes
   wavefun   :     148992. kBytes
 
     INWAV:  cpu time   52.0358: real time   53.1238
 Broyden mixing: mesh for mixing (old mesh)
   NGX = 57   NGY = 57   NGZ = 57
  (NGX  =240   NGY  =240   NGZ  =240)
  gives a total of 185193 points

 charge density for first step will be calculated from the start-wavefunctions


--------------------------------------------------------------------------------------------------------


 Maximum index for non-local projection operator          968
 Maximum index for augmentation-charges         3290 (set IRDMAX)


--------------------------------------------------------------------------------------------------------


 initial charge from wavefunction
 First call to EWALD:  gamma=   0.115
 Maximum number of real-space cells 3x 3x 3
 Maximum number of reciprocal cells 3x 3x 3

    FEWALD:  cpu time    0.0174: real time    0.0174


--------------------------------------- Iteration      1(   1)  ---------------------------------------


    POTLOK:  cpu time    0.2727: real time    0.2886
    SETDIJ:  cpu time    1.3928: real time    1.3938
     EDDAV:  cpu time  133.7372: real time  134.6598
       DOS:  cpu time    0.0029: real time    0.0029
    CHARGE:  cpu time    5.3025: real time    5.3062
    MIXING:  cpu time    0.0200: real time    0.0203
    --------------------------------------------
      LOOP:  cpu time  140.7281: real time  141.6717

 eigenvalue-minimisations  : 23124
 total energy-change (2. order) :-0.1861312E+04  (-0.3636292E+03)
 number of electron    1923.0000027 magnetization       1.0000000
 augmentation part      505.0355813 magnetization       0.9643978

 Broyden mixing:
  rms(total) = 0.86652E+01    rms(broyden)= 0.86621E+01
  rms(prec ) = 0.13485E+02
  weight for this iteration     100.00

 Free energy of the ion-electron system (eV)
  ---------------------------------------------------
  alpha Z        PSCENC =      6118.73324990
  Ewald energy   TEWEN  =   -103257.37215332
  -Hartree energ DENC   =    -65349.18598488
  -exchange      EXHF   =         0.00000000
  -V(xc)+E(xc)   XCENC  =      8959.91291266
  PAW double counting   =    198406.18360773  -199402.16592137
  entropy T*S    EENTRO =        -0.00429897
  eigenvalues    EBANDS =    -25914.66595984
  atomic energy  EATOM  =    178577.25249613
  Solvation  Ediel_sol  =         0.00000000
  ---------------------------------------------------
  free energy    TOTEN  =     -1861.31205196 eV

  energy without entropy =    -1861.30775298  energy(sigma->0) =    -1861.30990247


--------------------------------------------------------------------------------------------------------




--------------------------------------- Iteration      1(   2)  ---------------------------------------


    POTLOK:  cpu time    0.2986: real time    0.3012
    SETDIJ:  cpu time    1.4414: real time    1.4427
     EDDAV:  cpu time  150.6069: real time  151.6971
       DOS:  cpu time    0.0031: real time    0.0031
    CHARGE:  cpu time    5.2951: real time    5.3003
    MIXING:  cpu time    0.0224: real time    0.0224
    --------------------------------------------
      LOOP:  cpu time  157.6676: real time  158.7668

 eigenvalue-minimisations  : 26904
 total energy-change (2. order) :-0.7522865E+02  (-0.3878417E+03)
 number of electron    1923.0000027 magnetization       1.0000000
 augmentation part      508.4912993 magnetization       0.6625864

 Broyden mixing:
  rms(total) = 0.12080E+02    rms(broyden)= 0.12076E+02
  rms(prec ) = 0.17673E+02
  weight for this iteration     100.00

 eigenvalues of (default mixing * dielectric matrix)
  average eigenvalue GAMMA=   0.3730
  0.3730

 Free energy of the ion-electron system (eV)
  ---------------------------------------------------
  alpha Z        PSCENC =      6118.73324990
  Ewald energy   TEWEN  =   -103257.37215332
  -Hartree energ DENC   =    -65462.11077120
  -exchange      EXHF   =         0.00000000
  -V(xc)+E(xc)   XCENC  =      8959.02264510
  PAW double counting   =    200159.65859782  -201125.65960174
  entropy T*S    EENTRO =        -0.00114483
  eigenvalues    EBANDS =    -25906.06402430
  atomic energy  EATOM  =    178577.25249613
  Solvation  Ediel_sol  =         0.00000000
  ---------------------------------------------------
  free energy    TOTEN  =     -1936.54070644 eV

  energy without entropy =    -1936.53956161  energy(sigma->0) =    -1936.54013403


--------------------------------------------------------------------------------------------------------




--------------------------------------- Iteration      1(   3)  ---------------------------------------


    POTLOK:  cpu time    0.3130: real time    0.3153
    SETDIJ:  cpu time    1.4338: real time    1.4350
     EDDAV:  cpu time  153.0127: real time  153.9318
       DOS:  cpu time    0.0018: real time    0.0018
    CHARGE:  cpu time    5.3100: real time    5.3146
    MIXING:  cpu time    0.0184: real time    0.0184
    --------------------------------------------
      LOOP:  cpu time  160.0896: real time  161.0168

 eigenvalue-minimisations  : 27324
 total energy-change (2. order) : 0.7654555E+02  (-0.1359843E+03)
 number of electron    1923.0000027 magnetization       1.0000000
 augmentation part      491.9994511 magnetization       0.6266720

 Broyden mixing:
  rms(total) = 0.58828E+01    rms(broyden)= 0.58805E+01
  rms(prec ) = 0.67726E+01
  weight for this iteration     100.00

 eigenvalues of (default mixing * dielectric matrix)
  average eigenvalue GAMMA=   0.4477
  0.4477  0.4477

 Free energy of the ion-electron system (eV)
  ---------------------------------------------------
  alpha Z        PSCENC =      6118.73324990
  Ewald energy   TEWEN  =   -103257.37215332
  -Hartree energ DENC   =    -65546.83976554
  -exchange      EXHF   =         0.00000000
  -V(xc)+E(xc)   XCENC  =      8961.37608592
  PAW double counting   =    200477.17140712  -201436.98990720
  entropy T*S    EENTRO =        -0.00000000
  eigenvalues    EBANDS =    -25753.32657130
  atomic energy  EATOM  =    178577.25249613
  Solvation  Ediel_sol  =         0.00000000
  ---------------------------------------------------
  free energy    TOTEN  =     -1859.99515829 eV

  energy without entropy =    -1859.99515829  energy(sigma->0) =    -1859.99515829


--------------------------------------------------------------------------------------------------------




--------------------------------------- Iteration      1(   4)  ---------------------------------------


    POTLOK:  cpu time    0.3005: real time    0.3027
    SETDIJ:  cpu time    1.4701: real time    1.4712
     EDDAV:  cpu time  144.6148: real time  145.4388
       DOS:  cpu time    0.0017: real time    0.0017
    CHARGE:  cpu time    5.3652: real time    5.3716
    MIXING:  cpu time    0.0119: real time    0.0119
    --------------------------------------------
      LOOP:  cpu time  151.7642: real time  152.5979

 eigenvalue-minimisations  : 25632
 total energy-change (2. order) : 0.4854015E+02  (-0.3705809E+02)
 number of electron    1923.0000027 magnetization       1.0000000
 augmentation part      493.6663060 magnetization       0.6148248

 Broyden mixing:
  rms(total) = 0.42370E+01    rms(broyden)= 0.42362E+01
  rms(prec ) = 0.49294E+01
  weight for this iteration     100.00

 eigenvalues of (default mixing * dielectric matrix)
  average eigenvalue GAMMA=   0.5844
  0.6619  0.6619  0.4294

 Free energy of the ion-electron system (eV)
  ---------------------------------------------------
  alpha Z        PSCENC =      6118.73324990
  Ewald energy   TEWEN  =   -103257.37215332
  -Hartree energ DENC   =    -65493.74902070
  -exchange      EXHF   =         0.00000000
  -V(xc)+E(xc)   XCENC  =      8967.48066230
  PAW double counting   =    200578.67432190  -201556.77259688
  entropy T*S    EENTRO =        -0.00000000
  eigenvalues    EBANDS =    -25745.70196582
  atomic energy  EATOM  =    178577.25249613
  Solvation  Ediel_sol  =         0.00000000
  ---------------------------------------------------
  free energy    TOTEN  =     -1811.45500648 eV

  energy without entropy =    -1811.45500648  energy(sigma->0) =    -1811.45500648


--------------------------------------------------------------------------------------------------------




--------------------------------------- Iteration      1(   5)  ---------------------------------------


    POTLOK:  cpu time    0.2682: real time    0.2704
    SETDIJ:  cpu time    1.4346: real time    1.4360
     EDDAV:  cpu time  148.9730: real time  149.7371
       DOS:  cpu time    0.0018: real time    0.0018
    CHARGE:  cpu time    5.2128: real time    5.3082
    MIXING:  cpu time    0.0148: real time    0.0148
    --------------------------------------------
      LOOP:  cpu time  155.9053: real time  156.7682

 eigenvalue-minimisations  : 26496
 total energy-change (2. order) : 0.3780276E+02  (-0.1168311E+02)
 number of electron    1923.0000027 magnetization       1.0000000
 augmentation part      494.1994377 magnetization       0.6078282

 Broyden mixing:
  rms(total) = 0.23021E+01    rms(broyden)= 0.23016E+01
  rms(prec ) = 0.26906E+01
  weight for this iteration     100.00

 eigenvalues of (default mixing * dielectric matrix)
  average eigenvalue GAMMA=   0.6779
  0.8738  0.8738  0.4820  0.4820

 Free energy of the ion-electron system (eV)
  ---------------------------------------------------
  alpha Z        PSCENC =      6118.73324990
  Ewald energy   TEWEN  =   -103257.37215332
  -Hartree energ DENC   =    -65506.62221086
  -exchange      EXHF   =         0.00000000
  -V(xc)+E(xc)   XCENC  =      8973.70285915
  PAW double counting   =    200019.48098510  -201013.59475714
  entropy T*S    EENTRO =        -0.00000000
  eigenvalues    EBANDS =    -25685.23271273
  atomic energy  EATOM  =    178577.25249613
  Solvation  Ediel_sol  =         0.00000000
  ---------------------------------------------------
  free energy    TOTEN  =     -1773.65224377 eV

  energy without entropy =    -1773.65224377  energy(sigma->0) =    -1773.65224377


--------------------------------------------------------------------------------------------------------




--------------------------------------- Iteration      1(   6)  ---------------------------------------


    POTLOK:  cpu time    0.2925: real time    0.3160
    SETDIJ:  cpu time    1.3903: real time    1.4308
     EDDAV:  cpu time  152.1867: real time  152.8679
       DOS:  cpu time    0.0030: real time    0.0032
    CHARGE:  cpu time    5.2184: real time    5.3235
    MIXING:  cpu time    0.0153: real time    0.0156
    --------------------------------------------
      LOOP:  cpu time  159.1061: real time  159.9570

 eigenvalue-minimisations  : 27072
 total energy-change (2. order) : 0.1250365E+02  (-0.4899438E+01)
 number of electron    1923.0000027 magnetization       1.0000000
 augmentation part      495.4142282 magnetization       0.5870601

 Broyden mixing:
  rms(total) = 0.14962E+01    rms(broyden)= 0.14960E+01
  rms(prec ) = 0.16224E+01
  weight for this iteration     100.00

 eigenvalues of (default mixing * dielectric matrix)
  average eigenvalue GAMMA=   0.7086
  0.9688  0.9688  0.4376  0.5840  0.5840

 Free energy of the ion-electron system (eV)
  ---------------------------------------------------
  alpha Z        PSCENC =      6118.73324990
  Ewald energy   TEWEN  =   -103257.37215332
  -Hartree energ DENC   =    -65445.16154034
  -exchange      EXHF   =         0.00000000
  -V(xc)+E(xc)   XCENC  =      8973.48466662
  PAW double counting   =    199543.69684047  -200545.91738296
  entropy T*S    EENTRO =        -0.00000000
  eigenvalues    EBANDS =    -25725.86476883
  atomic energy  EATOM  =    178577.25249613
  Solvation  Ediel_sol  =         0.00000000
  ---------------------------------------------------
  free energy    TOTEN  =     -1761.14859233 eV

  energy without entropy =    -1761.14859233  energy(sigma->0) =    -1761.14859233


--------------------------------------------------------------------------------------------------------




--------------------------------------- Iteration      1(   7)  ---------------------------------------


    POTLOK:  cpu time    0.2800: real time    0.2902
    SETDIJ:  cpu time    1.3989: real time    1.4224
     EDDAV:  cpu time  151.3982: real time  152.1254
       DOS:  cpu time    0.0018: real time    0.0018
    CHARGE:  cpu time    5.1783: real time    5.2885
    MIXING:  cpu time    0.0146: real time    0.0179
    --------------------------------------------
      LOOP:  cpu time  158.2718: real time  159.1462

 eigenvalue-minimisations  : 27036
 total energy-change (2. order) : 0.1343066E+01  (-0.8843101E+00)
 number of electron    1923.0000027 magnetization       1.0000000
 augmentation part      496.1480300 magnetization       0.5875441

 Broyden mixing:
  rms(total) = 0.10534E+01    rms(broyden)= 0.10529E+01
  rms(prec ) = 0.11469E+01
  weight for this iteration     100.00

 eigenvalues of (default mixing * dielectric matrix)
  average eigenvalue GAMMA=   0.8881
  1.4402  1.4402  0.7106  0.7106  0.4831  0.5437

 Free energy of the ion-electron system (eV)
  ---------------------------------------------------
  alpha Z        PSCENC =      6118.73324990
  Ewald energy   TEWEN  =   -103257.37215332
  -Hartree energ DENC   =    -65410.02518087
  -exchange      EXHF   =         0.00000000
  -V(xc)+E(xc)   XCENC  =      8972.15654964
  PAW double counting   =    199265.07705832  -200268.46568915
  entropy T*S    EENTRO =        -0.00000000
  eigenvalues    EBANDS =    -25757.16185657
  atomic energy  EATOM  =    178577.25249613
  Solvation  Ediel_sol  =         0.00000000
  ---------------------------------------------------
  free energy    TOTEN  =     -1759.80552591 eV

  energy without entropy =    -1759.80552591  energy(sigma->0) =    -1759.80552591


--------------------------------------------------------------------------------------------------------




--------------------------------------- Iteration      1(   8)  ---------------------------------------


    POTLOK:  cpu time    0.2824: real time    0.2947
    SETDIJ:  cpu time    1.4125: real time    1.4302
     EDDAV:  cpu time  150.3148: real time  151.1857
       DOS:  cpu time    0.0019: real time    0.0019
    CHARGE:  cpu time    5.2222: real time    5.2952
    MIXING:  cpu time    0.0188: real time    0.0222
    --------------------------------------------
      LOOP:  cpu time  157.2525: real time  158.2300

 eigenvalue-minimisations  : 26856
 total energy-change (2. order) : 0.4645055E+00  (-0.6779961E+00)
[...]
   81        1.574   3.462   0.000   5.036
   82        1.575   3.460   0.000   5.035
   83        1.574   3.460   0.000   5.034
   84        1.576   3.470   0.000   5.046
   85        1.575   3.463   0.000   5.038
   86        1.575   3.466   0.000   5.041
   87        1.576   3.464   0.000   5.039
   88        1.575   3.466   0.000   5.040
   89        1.575   3.462   0.000   5.036
   90        1.575   3.457   0.000   5.033
   91        1.575   3.461   0.000   5.036
   92        1.574   3.463   0.000   5.037
   93        1.578   3.470   0.000   5.047
   94        1.577   3.472   0.000   5.049
   95        1.576   3.476   0.000   5.052
   96        1.575   3.463   0.000   5.038
   97        1.575   3.467   0.000   5.041
   98        1.576   3.470   0.000   5.046
   99        1.575   3.464   0.000   5.039
  100        1.576   3.459   0.000   5.035
  101        1.574   3.459   0.000   5.034
  102        1.575   3.460   0.000   5.035
  103        1.576   3.460   0.000   5.035
  104        1.574   3.461   0.000   5.035
  105        1.576   3.473   0.000   5.049
  106        1.575   3.463   0.000   5.038
  107        1.575   3.463   0.000   5.037
  108        1.576   3.473   0.000   5.049
  109        1.574   3.461   0.000   5.036
  110        1.575   3.458   0.000   5.033
  111        1.576   3.473   0.000   5.049
  112        1.577   3.464   0.000   5.042
  113        1.576   3.472   0.000   5.049
  114        1.577   3.474   0.000   5.051
  115        1.574   3.465   0.000   5.040
  116        1.575   3.463   0.000   5.038
  117        1.575   3.461   0.000   5.036
  118        1.576   3.463   0.000   5.038
  119        1.577   3.474   0.000   5.051
  120        1.575   3.460   0.000   5.035
  121        1.575   3.463   0.000   5.037
  122        1.577   3.474   0.000   5.050
  123        1.577   3.474   0.000   5.050
  124        1.576   3.471   0.000   5.046
  125        1.576   3.475   0.000   5.051
  126        1.576   3.470   0.000   5.046
  127        1.574   3.460   0.000   5.034
  128        1.574   3.461   0.000   5.035
  129        1.576   3.470   0.000   5.047
  130        1.737   4.368   0.000   6.105
  131        1.737   4.368   0.000   6.105
  132        1.737   4.380   0.000   6.117
  133        1.738   4.388   0.000   6.126
  134        1.738   4.385   0.000   6.123
  135        1.737   4.368   0.000   6.105
  136        1.736   4.367   0.000   6.103
  137        1.739   4.380   0.000   6.119
  138        1.738   4.380   0.000   6.118
  139        1.739   4.388   0.000   6.128
  140        1.739   4.388   0.000   6.127
  141        1.738   4.377   0.000   6.115
  142        1.737   4.384   0.000   6.122
  143        1.738   4.384   0.000   6.122
  144        1.738   4.386   0.000   6.124
  145        1.738   4.382   0.000   6.120
  146        1.737   4.378   0.000   6.115
  147        1.737   4.368   0.000   6.105
  148        1.736   4.368   0.000   6.104
  149        1.739   4.383   0.000   6.122
  150        1.738   4.387   0.000   6.125
  151        1.738   4.375   0.000   6.114
  152        1.738   4.380   0.000   6.118
  153        1.737   4.381   0.000   6.119
  154        1.737   4.371   0.000   6.108
  155        1.737   4.372   0.000   6.109
  156        1.737   4.370   0.000   6.106
  157        1.737   4.368   0.000   6.105
  158        1.738   4.375   0.000   6.113
  159        1.738   4.375   0.000   6.113
  160        1.737   4.368   0.000   6.104
  161        1.736   4.368   0.000   6.105
  162        1.736   4.369   0.000   6.106
  163        1.736   4.367   0.000   6.103
  164        1.737   4.377   0.000   6.115
  165        1.737   4.369   0.000   6.106
  166        1.736   4.369   0.000   6.106
  167        1.737   4.369   0.000   6.106
  168        1.737   4.369   0.000   6.105
  169        1.738   4.372   0.000   6.109
  170        1.738   4.378   0.000   6.116
  171        1.737   4.370   0.000   6.107
  172        1.738   4.386   0.000   6.124
  173        1.737   4.371   0.000   6.108
  174        1.737   4.369   0.000   6.106
  175        1.738   4.384   0.000   6.123
  176        1.737   4.367   0.000   6.104
  177        1.738   4.380   0.000   6.118
  178        1.737   4.369   0.000   6.105
  179        1.738   4.375   0.000   6.113
  180        1.738   4.380   0.000   6.118
  181        1.736   4.369   0.000   6.106
  182        1.738   4.377   0.000   6.115
  183        1.737   4.367   0.000   6.103
  184        1.736   4.383   0.000   6.120
  185        1.737   4.382   0.000   6.119
  186        1.738   4.382   0.000   6.119
  187        1.737   4.368   0.000   6.105
  188        1.737   4.375   0.000   6.113
  189        1.738   4.381   0.000   6.120
  190        1.738   4.381   0.000   6.119
  191        1.739   4.388   0.000   6.127
  192        1.737   4.369   0.000   6.106
  193        1.739   4.387   0.000   6.126
  194        1.737   4.368   0.000   6.104
  195        1.737   4.373   0.000   6.110
  196        1.737   4.380   0.000   6.118
  197        1.737   4.370   0.000   6.108
  198        1.737   4.379   0.000   6.117
  199        1.738   4.380   0.000   6.118
  200        1.738   4.380   0.000   6.118
  201        1.738   4.381   0.000   6.119
  202        1.738   4.382   0.000   6.120
  203        1.738   4.380   0.000   6.118
  204        1.738   4.378   0.000   6.116
  205        1.737   4.375   0.000   6.112
  206        1.737   4.369   0.000   6.105
  207        1.737   4.369   0.000   6.106
  208        1.737   4.381   0.000   6.118
  209        1.737   4.376   0.000   6.113
  210        1.737   4.368   0.000   6.105
  211        1.737   4.371   0.000   6.108
  212        1.737   4.369   0.000   6.105
  213        1.737   4.380   0.000   6.117
  214        1.736   4.367   0.000   6.103
  215        1.738   4.382   0.000   6.121
  216        1.736   4.368   0.000   6.104
  217        1.737   4.367   0.000   6.103
  218        1.737   4.381   0.000   6.118
  219        1.738   4.382   0.000   6.120
  220        1.739   4.384   0.000   6.123
  221        1.738   4.380   0.000   6.118
  222        1.737   4.380   0.000   6.117
  223        1.737   4.384   0.000   6.122
  224        1.738   4.382   0.000   6.120
  225        1.738   4.382   0.000   6.120
  226        1.738   4.378   0.000   6.116
  227        1.738   4.382   0.000   6.119
  228        1.738   4.377   0.000   6.115
  229        1.738   4.379   0.000   6.116
  230        1.737   4.369   0.000   6.106
  231        1.738   4.376   0.000   6.114
  232        1.737   4.369   0.000   6.106
  233        1.738   4.381   0.000   6.118
  234        1.737   4.370   0.000   6.107
  235        1.737   4.370   0.000   6.107
  236        1.738   4.388   0.000   6.126
  237        1.739   4.385   0.000   6.124
  238        1.737   4.381   0.000   6.118
  239        1.738   4.377   0.000   6.116
  240        1.737   4.380   0.000   6.118
  241        1.738   4.377   0.000   6.115
  242        1.738   4.386   0.000   6.124
  243        1.738   4.388   0.000   6.126
  244        1.738   4.379   0.000   6.117
  245        1.738   4.378   0.000   6.116
  246        1.738   4.377   0.000   6.116
  247        1.738   4.385   0.000   6.123
  248        1.738   4.378   0.000   6.117
  249        1.738   4.386   0.000   6.124
  250        1.738   4.380   0.000   6.118
  251        1.738   4.380   0.000   6.118
  252        1.737   4.381   0.000   6.118
  253        1.738   4.379   0.000   6.117
  254        1.739   4.385   0.000   6.124
  255        1.738   4.377   0.000   6.115
  256        1.738   4.386   0.000   6.125
  257        1.738   4.379   0.000   6.117
--------------------------------------------------
tot        345.5271195.453 112.4551653.435
 


 magnetization (x)
 
# of ion       s       p       d       tot
------------------------------------------
    1       -0.000  -0.000   0.000  -0.000
    2        0.000  -0.000   0.000   0.000
    3       -0.000  -0.000   0.005   0.005
    4        0.000  -0.000  -0.000  -0.000
    5       -0.000   0.000   0.006   0.006
    6       -0.000  -0.000  -0.000  -0.000
    7        0.000   0.000   0.000   0.000
    8        0.000  -0.000   0.000   0.000
    9        0.000   0.000   0.000   0.000
   10       -0.000  -0.000  -0.000  -0.000
   11       -0.000  -0.000   0.000   0.000
   12        0.000  -0.000  -0.000  -0.000
   13       -0.000  -0.000  -0.000  -0.000
   14       -0.000  -0.000  -0.000  -0.000
   15       -0.000  -0.000   0.000   0.000
   16       -0.000  -0.000  -0.000  -0.000
   17        0.000  -0.000   0.000   0.000
   18       -0.000  -0.000  -0.000  -0.000
   19        0.005   0.006   0.921   0.932
   20        0.000  -0.000  -0.000  -0.000
   21       -0.000  -0.000   0.000   0.000
   22       -0.000  -0.000  -0.000  -0.000
   23       -0.000   0.000   0.000   0.000
   24        0.000   0.000   0.000   0.000
   25        0.000   0.000   0.000   0.000
   26       -0.000  -0.000  -0.002  -0.003
   27       -0.000  -0.000  -0.000  -0.000
   28        0.000   0.000   0.000   0.000
   29       -0.000  -0.000  -0.000  -0.000
   30       -0.000  -0.000   0.000  -0.000
   31       -0.000  -0.000  -0.000  -0.000
   32        0.000   0.000   0.000   0.000
   33        0.000  -0.000   0.000   0.000
   34       -0.000   0.000   0.000   0.000
   35        0.000   0.000   0.000   0.000
   36        0.000   0.000   0.000   0.000
   37        0.000   0.000   0.001   0.001
   38       -0.000  -0.000  -0.000  -0.000
   39        0.000   0.000   0.003   0.003
   40       -0.000  -0.000   0.000  -0.000
   41        0.000   0.000   0.002   0.002
   42       -0.000  -0.000   0.000   0.000
   43       -0.000  -0.000   0.000   0.000
   44       -0.000  -0.000   0.000   0.000
   45       -0.000  -0.000  -0.000  -0.000
   46       -0.000  -0.000  -0.000  -0.000
   47       -0.000  -0.000   0.000   0.000
   48       -0.000  -0.000   0.000   0.000
   49       -0.000  -0.000  -0.000  -0.000
   50       -0.000  -0.000  -0.000  -0.000
   51       -0.000  -0.000   0.004   0.004
   52        0.000  -0.000   0.000   0.000
   53        0.000   0.000   0.000   0.000
   54       -0.000  -0.000  -0.000  -0.000
   55       -0.000  -0.000   0.007   0.007
   56       -0.000  -0.000  -0.000  -0.000
   57        0.000   0.000   0.000   0.000
   58       -0.000   0.000   0.000   0.000
   59       -0.000  -0.000  -0.000  -0.000
   60       -0.000  -0.000  -0.000  -0.000
   61        0.000   0.000   0.000   0.000
   62        0.000   0.000   0.000   0.000
   63       -0.000  -0.000   0.000   0.000
   64       -0.000  -0.000  -0.000  -0.000
   65       -0.000  -0.000  -0.000  -0.000
   66       -0.000  -0.000   0.000  -0.000
   67       -0.000  -0.000   0.000  -0.000
   68       -0.000  -0.000   0.000  -0.000
   69       -0.000  -0.000   0.000  -0.000
   70        0.000  -0.000   0.000  -0.000
   71       -0.000  -0.000   0.000  -0.000
   72       -0.000  -0.000   0.000  -0.000
   73        0.000  -0.000   0.000  -0.000
   74       -0.001  -0.015   0.000  -0.016
   75       -0.000  -0.000   0.000  -0.000
   76       -0.000  -0.000   0.000  -0.000
   77       -0.000  -0.000   0.000  -0.000
   78       -0.000  -0.000   0.000  -0.000
   79       -0.000  -0.000   0.000  -0.000
   80       -0.000  -0.000   0.000  -0.000
   81       -0.000  -0.000   0.000  -0.000
   82       -0.000  -0.000   0.000  -0.000
   83       -0.000  -0.000   0.000  -0.000
   84       -0.000  -0.000   0.000  -0.000
   85       -0.000  -0.000   0.000  -0.000
   86        0.000  -0.000   0.000  -0.000
   87       -0.000  -0.000   0.000  -0.000
   88        0.000   0.000   0.000   0.000
   89       -0.000   0.000   0.000  -0.000
   90        0.000  -0.000   0.000  -0.000
   91       -0.000  -0.000   0.000  -0.000
   92       -0.000  -0.000   0.000  -0.000
   93       -0.000  -0.001   0.000  -0.001
   94       -0.000  -0.000   0.000  -0.000
   95       -0.000  -0.000   0.000  -0.000
   96       -0.000  -0.000   0.000  -0.000
   97       -0.000   0.000   0.000   0.000
   98       -0.000  -0.000   0.000  -0.000
   99       -0.000  -0.000   0.000  -0.000
  100       -0.000  -0.000   0.000  -0.000
  101       -0.000   0.000   0.000   0.000
  102       -0.000  -0.000   0.000  -0.000
  103       -0.000  -0.000   0.000  -0.000
  104       -0.000  -0.001   0.000  -0.001
  105       -0.000  -0.000   0.000  -0.000
  106       -0.000  -0.000   0.000  -0.000
  107        0.000   0.000   0.000   0.000
  108        0.000  -0.000   0.000  -0.000
  109       -0.000  -0.000   0.000  -0.000
  110        0.000   0.000   0.000   0.000
  111       -0.000  -0.000   0.000  -0.000
  112       -0.000  -0.000   0.000  -0.000
  113       -0.000  -0.000   0.000  -0.000
  114       -0.000  -0.000   0.000  -0.000
  115        0.000  -0.000   0.000  -0.000
  116        0.000  -0.000   0.000  -0.000
  117        0.000   0.000   0.000   0.000
  118       -0.000  -0.000   0.000  -0.000
  119       -0.000  -0.000   0.000  -0.000
  120        0.000   0.000   0.000   0.000
  121       -0.000  -0.000   0.000  -0.000
  122        0.000  -0.000   0.000  -0.000
  123        0.000  -0.000   0.000  -0.000
  124       -0.000  -0.001   0.000  -0.001
  125       -0.000  -0.000   0.000  -0.000
  126       -0.000  -0.000   0.000  -0.000
  127       -0.000  -0.000   0.000  -0.000
  128       -0.000  -0.000   0.000  -0.000
  129       -0.000  -0.000   0.000  -0.000
  130       -0.000  -0.000   0.000  -0.000
  131       -0.000  -0.000   0.000  -0.000
  132       -0.000  -0.000   0.000  -0.000
  133       -0.000   0.000   0.000   0.000
  134       -0.000  -0.000   0.000  -0.000
  135       -0.000  -0.000   0.000  -0.000
  136       -0.000  -0.000   0.000  -0.000
  137       -0.000  -0.000   0.000  -0.000
  138       -0.000  -0.000   0.000  -0.000
  139       -0.000  -0.000   0.000  -0.000
  140       -0.000  -0.000   0.000  -0.000
  141       -0.000  -0.000   0.000  -0.000
  142       -0.000  -0.006   0.000  -0.006
  143        0.000   0.000   0.000   0.000
  144       -0.000  -0.000   0.000  -0.000
  145        0.000   0.000   0.000   0.000
  146       -0.000  -0.000   0.000  -0.000
  147       -0.000  -0.000   0.000  -0.000
  148       -0.000  -0.000   0.000  -0.000
  149       -0.000  -0.000   0.000  -0.000
  150       -0.000  -0.000   0.000  -0.000
  151       -0.000   0.000   0.000   0.000
  152        0.000  -0.000   0.000  -0.000
  153       -0.000   0.000   0.000  -0.000
  154       -0.000  -0.000   0.000  -0.000
  155       -0.000  -0.000   0.000  -0.000
  156       -0.000  -0.000   0.000  -0.000
  157       -0.000  -0.000   0.000  -0.000
  158       -0.000  -0.000   0.000  -0.000
  159        0.000  -0.000   0.000  -0.000
  160       -0.000  -0.000   0.000  -0.000
  161       -0.000  -0.000   0.000  -0.000
  162       -0.000  -0.000   0.000  -0.000
  163       -0.000  -0.000   0.000  -0.000
  164       -0.000  -0.000   0.000  -0.000
  165       -0.000   0.000   0.000   0.000
  166       -0.000  -0.000   0.000  -0.000
  167       -0.000  -0.000   0.000  -0.000
  168       -0.000  -0.000   0.000  -0.000
  169       -0.000  -0.000   0.000  -0.000
  170       -0.000  -0.000   0.000  -0.000
  171       -0.000  -0.000   0.000  -0.000
  172        0.000   0.000   0.000   0.000
  173        0.000   0.000   0.000   0.000
  174       -0.000  -0.000   0.000  -0.000
  175       -0.000  -0.000   0.000  -0.000
  176       -0.000   0.000   0.000   0.000
  177       -0.000  -0.000   0.000  -0.000
  178       -0.000   0.000   0.000   0.000
  179       -0.000  -0.000   0.000  -0.000
  180       -0.000  -0.000   0.000  -0.000
  181       -0.000  -0.000   0.000  -0.000
  182       -0.000  -0.000   0.000  -0.000
  183       -0.000  -0.000   0.000  -0.000
  184       -0.000   0.003   0.000   0.003
  185       -0.000   0.000   0.000   0.000
  186       -0.000  -0.000   0.000  -0.000
  187       -0.000  -0.000   0.000  -0.000
  188       -0.000  -0.000   0.000  -0.000
  189       -0.000  -0.000   0.000  -0.000
  190        0.000   0.000   0.000   0.000
  191        0.000   0.000   0.000   0.000
  192       -0.000  -0.000   0.000  -0.000
  193        0.000  -0.000   0.000  -0.000
  194        0.000   0.000   0.000   0.000
  195       -0.000  -0.000   0.000  -0.000
  196        0.000  -0.000   0.000  -0.000
  197        0.000  -0.000   0.000  -0.000
  198       -0.000  -0.000   0.000  -0.000
  199        0.000  -0.000   0.000  -0.000
  200        0.000  -0.000   0.000  -0.000
  201       -0.000   0.000   0.000   0.000
  202       -0.000   0.002   0.000   0.001
  203       -0.000   0.000   0.000  -0.000
  204       -0.000  -0.000   0.000  -0.000
  205       -0.000  -0.000   0.000  -0.000
  206       -0.000  -0.000   0.000  -0.000
  207       -0.000  -0.000   0.000  -0.000
  208        0.000  -0.000   0.000  -0.000
  209       -0.000  -0.000   0.000  -0.000
  210       -0.000  -0.000   0.000  -0.000
  211       -0.000   0.000   0.000   0.000
  212       -0.000  -0.000   0.000  -0.000
  213       -0.000   0.003   0.000   0.002
  214       -0.000  -0.000   0.000  -0.000
  215        0.000  -0.000   0.000  -0.000
  216        0.000  -0.000   0.000  -0.000
  217        0.000  -0.000   0.000  -0.000
  218        0.000   0.000   0.000   0.000
  219       -0.000  -0.000   0.000  -0.000
  220        0.000  -0.000   0.000  -0.000
  221       -0.000  -0.000   0.000  -0.000
  222        0.000   0.000   0.000   0.000
  223       -0.000   0.003   0.000   0.002
  224       -0.000  -0.000   0.000  -0.000
  225       -0.000  -0.000   0.000  -0.000
  226       -0.000  -0.000   0.000  -0.000
  227       -0.000  -0.000   0.000  -0.000
  228       -0.000  -0.000   0.000  -0.000
  229        0.000  -0.000   0.000  -0.000
  230       -0.000  -0.000   0.000  -0.000
  231        0.000   0.000   0.000   0.000
  232       -0.000  -0.000   0.000  -0.000
  233       -0.000   0.000   0.000   0.000
  234        0.000   0.000   0.000   0.000
  235        0.000   0.000   0.000   0.000
  236       -0.000  -0.000   0.000  -0.000
  237       -0.000   0.000   0.000   0.000
  238        0.000   0.000   0.000   0.000
  239       -0.000   0.000   0.000   0.000
  240       -0.000  -0.000   0.000  -0.000
  241       -0.000  -0.000   0.000  -0.000
  242       -0.000  -0.000   0.000  -0.000
  243        0.000   0.000   0.000   0.000
  244       -0.000  -0.000   0.000  -0.000
  245       -0.000  -0.000   0.000  -0.000
  246       -0.000  -0.000   0.000  -0.000
  247       -0.000   0.000   0.000   0.000
  248        0.000  -0.000   0.000  -0.000
  249       -0.000   0.000   0.000   0.000
  250       -0.000   0.000   0.000   0.000
  251       -0.000  -0.000   0.000  -0.000
  252       -0.000   0.000   0.000   0.000
  253       -0.000  -0.000   0.000  -0.000
  254       -0.000  -0.000   0.000  -0.000
  255       -0.000  -0.000   0.000  -0.000
  256        0.000  -0.000   0.000  -0.000
  257       -0.000  -0.000   0.000  -0.000
--------------------------------------------------
tot          0.002  -0.010   0.948   0.940
 

 total amount of memory used by VASP MPI-rank0   291483. kBytes
=======================================================================

   base      :      30000. kBytes
   nonlr-proj:      49448. kBytes
   fftplans  :      27976. kBytes
   grid      :      34041. kBytes
   one-center:       1026. kBytes
   wavefun   :     148992. kBytes
 
  
  
 General timing and accounting informations for this job:
 ========================================================
  
                  Total CPU time used (sec):     5415.295
                            User time (sec):     4996.265
                          System time (sec):      419.030
                         Elapsed time (sec):     5460.819
  
                   Maximum memory used (kb):      626468.
                   Average memory used (kb):           0.
  
                          Minor page faults:       546315
                          Major page faults:            2
                 Voluntary context switches:        36759
