 vasp.5.4.4.18Apr17-6-g9f103f2a35 (build Apr 30 2017 20:10:35) complex          
  
 executed on             LinuxIFC date 2017.08.02  22:20:53
 running on   64 total cores
 distrk:  each k-point on   64 cores,    1 groups
 distr:  one band on NCORES_PER_BAND=   8 cores,    8 groups


--------------------------------------------------------------------------------------------------------


 INCAR:
 POTCAR:   PAW_PBE Ti_pv 07Sep2000                
 POTCAR:   PAW_PBE O 08Apr2002                    
 POTCAR:    PAW_PBE F 08Apr2002                   
 POTCAR:   PAW_PBE Ti_pv 07Sep2000                
   VRHFIN =Ti: d3 s1                                                            
   LEXCH  = PE                                                                  
   EATOM  =  1042.3781 eV,   76.6126 Ry                                         
                                                                                
   TITEL  = PAW_PBE Ti_pv 07Sep2000                                             
   LULTRA =        F    use ultrasoft PP ?                                      
   IUNSCR =        1    unscreen: 0-lin 1-nonlin 2-no                           
   RPACOR =    2.200    partial core radius                                     
   POMASS =   47.880; ZVAL   =   10.000    mass and valenz                      
   RCORE  =    2.500    outmost cutoff radius                                   
   RWIGS  =    2.500; RWIGS  =    1.323    wigner-seitz radius (au A)           
   ENMAX  =  222.338; ENMIN  =  166.753 eV                                      
   RCLOC  =    1.701    cutoff for local pot                                    
   LCOR   =        T    correct aug charges                                     
   LPAW   =        T    paw PP                                                  
   EAUG   =  482.848                                                            
   DEXC   =    -.008                                                            
   RMAX   =    3.092    core radius for proj-oper                               
   RAUG   =    1.300    factor for augmentation sphere                          
   RDEP   =    2.538    radius for radial grids                                 
   QCUT   =   -4.042; QGAM   =    8.085    optimization parameters              
                                                                                
   Description                                                                  
     l     E      TYP  RCUT    TYP  RCUT                                        
     1   .000     23  2.300                                                     
     1  -.100     23  2.300                                                     
     2   .000     23  2.500                                                     
     2   .000     23  2.500                                                     
     0   .000     23  2.500                                                     
     0  1.500     23  2.500                                                     
     3   .000      7   .000                                                     
  local pseudopotential read in
  partial core-charges read in
  atomic valenz-charges read in
  non local Contribution for L=           1  read in
    real space projection operators read in
  non local Contribution for L=           1  read in
    real space projection operators read in
  non local Contribution for L=           2  read in
    real space projection operators read in
  non local Contribution for L=           2  read in
    real space projection operators read in
  non local Contribution for L=           0  read in
    real space projection operators read in
  non local Contribution for L=           0  read in
    real space projection operators read in
    PAW grid and wavefunctions read in
 
   number of l-projection  operators is LMAX  =           6
   number of lm-projection operators is LMMAX =          18
 
 POTCAR:   PAW_PBE O 08Apr2002                    
   VRHFIN =O: s2p4                                                              
   LEXCH  = PE                                                                  
   EATOM  =   432.3788 eV,   31.7789 Ry                                         
                                                                                
   TITEL  = PAW_PBE O 08Apr2002                                                 
   LULTRA =        F    use ultrasoft PP ?                                      
   IUNSCR =        0    unscreen: 0-lin 1-nonlin 2-no                           
   RPACOR =     .000    partial core radius                                     
   POMASS =   16.000; ZVAL   =    6.000    mass and valenz                      
   RCORE  =    1.520    outmost cutoff radius                                   
   RWIGS  =    1.550; RWIGS  =     .820    wigner-seitz radius (au A)           
   ENMAX  =  400.000; ENMIN  =  300.000 eV                                      
   ICORE  =        2    local potential                                         
   LCOR   =        T    correct aug charges                                     
   LPAW   =        T    paw PP                                                  
   EAUG   =  605.392                                                            
   DEXC   =     .000                                                            
   RMAX   =    2.264    core radius for proj-oper                               
   RAUG   =    1.300    factor for augmentation sphere                          
   RDEP   =    1.550    radius for radial grids                                 
   QCUT   =   -5.520; QGAM   =   11.041    optimization parameters              
                                                                                
   Description                                                                  
     l     E      TYP  RCUT    TYP  RCUT                                        
     0   .000     23  1.200                                                     
     0  -.700     23  1.200                                                     
     1   .000     23  1.520                                                     
     1   .600     23  1.520                                                     
     2   .000      7  1.500                                                     
  local pseudopotential read in
  atomic valenz-charges read in
  non local Contribution for L=           0  read in
    real space projection operators read in
  non local Contribution for L=           0  read in
    real space projection operators read in
  non local Contribution for L=           1  read in
    real space projection operators read in
  non local Contribution for L=           1  read in
    real space projection operators read in
    PAW grid and wavefunctions read in
 
   number of l-projection  operators is LMAX  =           4
   number of lm-projection operators is LMMAX =           8
 
 POTCAR:    PAW_PBE F 08Apr2002                   
   VRHFIN =F: s2p5                                                              
   LEXCH  = PE                                                                  
   EATOM  =   659.6475 eV,   48.4827 Ry                                         
                                                                                
   TITEL  = PAW_PBE F 08Apr2002                                                 
   LULTRA =        F    use ultrasoft PP ?                                      
   IUNSCR =        1    unscreen: 0-lin 1-nonlin 2-no                           
   RPACOR =    1.200    partial core radius                                     
   POMASS =   18.998; ZVAL   =    7.000    mass and valenz                      
   RCORE  =    1.520    outmost cutoff radius                                   
   RWIGS  =    1.500; RWIGS  =    0.794    wigner-seitz radius (au A)           
   ENMAX  =  400.000; ENMIN  =  300.000 eV                                      
   ICORE  =        2    local potential                                         
   LCOR   =        T    correct aug charges                                     
   LPAW   =        T    paw PP                                                  
   EAUG   =  613.614                                                            
   RMAX   =    1.555    core radius for proj-oper                               
   RAUG   =    1.300    factor for augmentation sphere                          
   RDEP   =    1.539    radius for radial grids                                 
   RDEPT  =    1.299    core radius for aug-charge                              
                                                                                
   Atomic configuration                                                         
    4 entries                                                                   
     n  l   j            E        occ.                                          
     1  0  0.50      -663.3661   2.0000                                         
     2  0  0.50       -29.8995   2.0000                                         
     2  1  0.50       -11.1114   5.0000                                         
     3  2  1.50       -10.8847   0.0000                                         
   Description                                                                  
     l       E           TYP  RCUT    TYP  RCUT                                 
     0    -29.8995018     23  1.200                                             
     0     -9.5240782     23  1.200                                             
     1    -11.1113914     23  1.520                                             
     1      1.3605826     23  1.520                                             
     2    -10.8846608      7  1.500                                             
  local pseudopotential read in
  partial core-charges read in
  partial kinetic energy density read in
  atomic valenz-charges read in
  non local Contribution for L=           0  read in
    real space projection operators read in
  non local Contribution for L=           0  read in
    real space projection operators read in
  non local Contribution for L=           1  read in
    real space projection operators read in
  non local Contribution for L=           1  read in
    real space projection operators read in
    PAW grid and wavefunctions read in
 
   number of l-projection  operators is LMAX  =           4
   number of lm-projection operators is LMMAX =           8
 
 Optimization of the real space projectors (new method)

 maximal supplied QI-value         = 15.12
 optimisation between [QCUT,QGAM] = [ 13.45, 27.06] = [ 50.69,205.06] Ry 
 Optimized for a Real-space Cutoff    1.49 Angstroem

   l    n(q)    QCUT    max X(q) W(low)/X(q) W(high)/X(q)  e(spline) 
   1     12    13.455     4.841    0.13E-05    0.83E-06    0.56E-07
   1     12    13.455     5.701    0.32E-04    0.25E-04    0.17E-06
   2     11    13.455     4.569    0.64E-05    0.34E-05    0.50E-07
   2     11    13.455    32.276    0.49E-04    0.38E-04    0.46E-06
   0     12    13.455    30.046    0.17E-04    0.41E-05    0.51E-07
   0     12    13.455    45.433    0.12E-04    0.27E-04    0.38E-06
 Optimization of the real space projectors (new method)

 maximal supplied QI-value         = 24.76
 optimisation between [QCUT,QGAM] = [ 13.37, 26.98] = [ 50.04,203.89] Ry 
 Optimized for a Real-space Cutoff    1.17 Angstroem

   l    n(q)    QCUT    max X(q) W(low)/X(q) W(high)/X(q)  e(spline) 
   0      9    13.368     4.192    0.20E-04    0.58E-05    0.56E-07
   0      9    13.368     8.473    0.60E-04    0.52E-04    0.21E-06
   1      9    13.368     2.474    0.22E-04    0.17E-04    0.28E-07
   1      9    13.368     3.912    0.94E-04    0.97E-04    0.20E-06
 Optimization of the real space projectors (new method)

 maximal supplied QI-value         = 24.76
 optimisation between [QCUT,QGAM] = [ 13.37, 26.98] = [ 50.04,203.89] Ry 
 Optimized for a Real-space Cutoff    1.17 Angstroem

   l    n(q)    QCUT    max X(q) W(low)/X(q) W(high)/X(q)  e(spline) 
   0      9    13.368    14.049    0.39E-04    0.34E-04    0.16E-06
   0      9    13.368     8.945    0.54E-04    0.47E-04    0.20E-06
   1      9    13.368     7.086    0.99E-04    0.10E-03    0.23E-06
   1      9    13.368     6.747    0.86E-04    0.89E-04    0.21E-06

 ----------------------------------------------------------------------------- 
|                                                                             |
|  ADVICE TO THIS USER RUNNING 'VASP/VAMP'   (HEAR YOUR MASTER'S VOICE ...):  |
|                                                                             |
|      You enforced a specific xc-type in the INCAR file,                     |
|      a different type was found on the POTCAR file                          |
|          I HOPE YOU KNOW, WHAT YOU ARE  DOING                               |
|                                                                             |
 ----------------------------------------------------------------------------- 

 PAW_PBE Ti_pv 07Sep2000                :
 energy of atom  1       EATOM=-1042.3781
 kinetic energy error for atom=    0.0006 (will be added to EATOM!!)
 PAW_PBE O 08Apr2002                    :
 energy of atom  2       EATOM= -432.3788
 kinetic energy error for atom=    0.0091 (will be added to EATOM!!)
  PAW_PBE F 08Apr2002                   :
 energy of atom  3       EATOM= -659.6475
 kinetic energy error for atom=    0.0140 (will be added to EATOM!!)
 
 
 POSCAR: TiOF2 2x2x2 config 1999                 
  positions in direct lattice
  velocities in cartesian coordinates
 exchange correlation table for  LEXCH =       14
   RHO(1)=    0.500       N(1)  =     2000
   RHO(2)=  100.500       N(2)  =     4000

 VTST: version 3.1, (03/28/14)

 CHAIN: initializing optimizer
 
 OPT: Using VASP QUASI-newton optimizer
 CHAIN: Read ICHAIN            0
 
 POSCAR: TiOF2 2x2x2 config 1999                 
  positions in direct lattice
  velocities in cartesian coordinates
 


--------------------------------------------------------------------------------------------------------


 ion  position               nearest neighbor table
   1  1.000  0.000  1.000-  17 1.90  20 1.90  29 1.96  30 1.96  23 2.02  25 2.02
   2  0.000  0.000  0.500-  18 1.86  21 1.86  30 1.88  29 1.88  26 1.88  24 1.89
   3  0.000  0.500  1.000-  32 1.85  31 1.85  19 1.87  22 1.87  25 1.91  23 1.91
   4  0.000  0.501  0.500-  10 1.83   9 1.83  31 1.99  32 1.99  26 2.04  24 2.05
   5  0.500  0.002  0.000-  13 1.87  14 1.87  27 1.95  28 1.97  17 2.01  20 2.01
   6  0.500  0.986  0.500-  12 1.82  14 1.98  13 1.98  11 2.03  21 2.05  18 2.05
   7  0.500  0.500  1.000-  16 1.85  15 1.85  27 1.96  28 1.98  22 2.04  19 2.04
   8  0.500  0.505  0.500-  12 1.96  16 1.99  15 1.99  11 2.05   9 2.08  10 2.08
   9  0.234  0.503  0.500-   4 1.83   8 2.08
  10  0.766  0.503  0.500-   4 1.83   8 2.08
  11  0.500  0.245  0.500-   6 2.03   8 2.05
  12  0.500  0.755  0.500-   6 1.82   8 1.96
  13  0.500  0.005  0.243-   5 1.87   6 1.98
  14  0.500  0.005  0.757-   5 1.87   6 1.98
  15  0.500  0.495  0.241-   7 1.85   8 1.99
  16  0.500  0.495  0.759-   7 1.85   8 1.99
  17  0.243  1.000  1.000-   1 1.90   5 2.01
  18  0.238  0.999  0.500-   2 1.86   6 2.05
  19  0.239  0.500  0.000-   3 1.87   7 2.04
  20  0.757  1.000  1.000-   1 1.90   5 2.01
  21  0.762  0.999  0.500-   2 1.86   6 2.05
  22  0.761  0.500  1.000-   3 1.87   7 2.04
  23  1.000  0.258  0.000-   3 1.91   1 2.02
  24  0.000  0.240  0.500-   2 1.89   4 2.05
  25  0.000  0.743  1.000-   3 1.91   1 2.02
  26  0.000  0.761  0.500-   2 1.88   4 2.04
  27  0.500  0.250  1.000-   5 1.95   7 1.96
  28  0.500  0.752  1.000-   5 1.97   7 1.98
  29  1.000  0.000  0.256-   2 1.88   1 1.96
  30  0.000  0.000  0.744-   2 1.88   1 1.96
  31  1.000  0.500  0.241-   3 1.85   4 1.99
  32  0.000  0.500  0.759-   3 1.85   4 1.99
 

IMPORTANT INFORMATION: All symmetrisations will be switched off!
NOSYMM: (Re-)initialisation of all symmetry stuff for point group C_1.

 
 
 KPOINTS: Title                                   

Automatic generation of k-mesh.
Space group operators:
 irot       det(A)        alpha          n_x          n_y          n_z        tau_x        tau_y        tau_z
    1     1.000000     0.000000     1.000000     0.000000     0.000000     0.000000     0.000000     0.000000
 
 Subroutine IBZKPT returns following result:
 ===========================================
 
 Found      4 irreducible k-points:
 
 Following reciprocal coordinates:
            Coordinates               Weight
  0.250000  0.250000  0.250000      2.000000
 -0.250000  0.250000  0.250000      2.000000
  0.250000 -0.250000  0.250000      2.000000
 -0.250000 -0.250000  0.250000      2.000000
 
 Following cartesian coordinates:
            Coordinates               Weight
  0.031999  0.031803  0.032568      2.000000
 -0.032001  0.031803  0.032568      2.000000
  0.031999 -0.031804  0.032569      2.000000
 -0.032001 -0.031804  0.032570      2.000000
 


--------------------------------------------------------------------------------------------------------




 Dimension of arrays:
   k-points           NKPTS =      4   k-points in BZ     NKDIM =      4   number of bands    NBANDS=    160
   number of dos      NEDOS =   3001   number of ions     NIONS =     32
   non local maximal  LDIM  =      6   non local SUM 2l+1 LMDIM =     18
   total plane-waves  NPLWV = 343000
   max r-space proj   IRMAX =  10089   max aug-charges    IRDMAX= 226166
   dimension x,y,z NGX =    70 NGY =   70 NGZ =   70
   dimension x,y,z NGXF=   140 NGYF=  140 NGZF=  140
   support grid    NGXF=   280 NGYF=  280 NGZF=  280
   ions per type =               8   8  16
   NGX,Y,Z   is equivalent  to a cutoff of  14.90, 14.80, 15.16 a.u.
   NGXF,Y,Z  is equivalent  to a cutoff of  29.79, 29.61, 30.32 a.u.

 SYSTEM =  LTO                                     
 POSCAR =  TiOF2 2x2x2 config 1999                 

 Startparameter for this run:
   NWRITE =      2    write-flag & timer
   PREC   = accura    normal or accurate (medium, high low for compatibility)
   ISTART =      1    job   : 0-new  1-cont  2-samecut
   ICHARG =      0    charge: 1-file 2-atom 10-const
   ISPIN  =      2    spin polarized calculation?
   LNONCOLLINEAR =      F non collinear calculations
   LSORBIT =      F    spin-orbit coupling
   INIWAV =      1    electr: 0-lowe 1-rand  2-diag
   LASPH  =      T    aspherical Exc in radial PAW
   METAGGA=      F    non-selfconsistent MetaGGA calc.

 Electronic Relaxation 1
   ENCUT  =  700.0 eV  51.45 Ry    7.17 a.u.  16.85 16.96 16.56*2*pi/ulx,y,z
   ENINI  =  700.0     initial cutoff
   ENAUG  =  613.6 eV  augmentation charge cutoff
   NELM   =     60;   NELMIN=  2; NELMDL=  0     # of ELM steps 
   EDIFF  = 0.1E-05   stopping-criterion for ELM
   LREAL  =      T    real-space projection
   NLSPLINE    = F    spline interpolate recip. space projectors
   LCOMPAT=      F    compatible to vasp.4.4
   GGA_COMPAT  = T    GGA compatible to vasp.4.4-vasp.4.6
   LMAXPAW     = -100 max onsite density
   LMAXMIX     =    4 max onsite mixed and CHGCAR
   VOSKOWN=      0    Vosko Wilk Nusair interpolation
   ROPT   =   -0.00010  -0.00010  -0.00010
 Ionic relaxation
   EDIFFG = -.1E-01   stopping-criterion for IOM
   NSW    =    100    number of steps for IOM
   NBLOCK =      1;   KBLOCK =    100    inner block; outer block 
   IBRION =      1    ionic relax: 0-MD 1-quasi-New 2-CG
   NFREE  =      0    steps in history (QN), initial steepest desc. (CG)
   ISIF   =      3    stress and relaxation
   IWAVPR =     11    prediction:  0-non 1-charg 2-wave 3-comb
   ISYM   =      0    0-nonsym 1-usesym 2-fastsym
   LCORR  =      T    Harris-Foulkes like correction to forces

   POTIM  = 0.5000    time-step for ionic-motion
   TEIN   =    0.0    initial temperature
   TEBEG  =    0.0;   TEEND  =   0.0 temperature during run
   SMASS  =  -3.00    Nose mass-parameter (am)
   estimated Nose-frequenzy (Omega)   =  0.10E-29 period in steps =****** mass=  -0.139E-26a.u.
   SCALEE = 1.0000    scale energy and forces
   NPACO  =    256;   APACO  = 16.0  distance and # of slots for P.C.
   PSTRESS=    0.0 pullay stress

  Mass of Ions in am
   POMASS =  47.88 16.00 19.00
  Ionic Valenz
   ZVAL   =  10.00  6.00  7.00
  Atomic Wigner-Seitz radii
   RWIGS  =  -1.00 -1.00 -1.00
  virtual crystal weights 
   VCA    =   1.00  1.00  1.00
   NELECT =     240.0000    total number of electrons
   NUPDOWN=      -1.0000    fix difference up-down

 DOS related values:
   EMIN   =  10.00;   EMAX   =-10.00  energy-range for DOS
   EFERMI =   0.00
   ISMEAR =     0;   SIGMA  =   0.01  broadening in eV -4-tet -1-fermi 0-gaus

 Electronic relaxation 2 (details)
   IALGO  =     38    algorithm
   LDIAG  =      T    sub-space diagonalisation (order eigenvalues)
   LSUBROT=      F    optimize rotation matrix (better conditioning)
   TURBO    =      0    0=normal 1=particle mesh
   IRESTART =      0    0=no restart 2=restart with 2 vectors
   NREBOOT  =      0    no. of reboots
   NMIN     =      0    reboot dimension
   EREF     =   0.00    reference energy to select bands
   IMIX   =      4    mixing-type and parameters
     AMIX     =   0.40;   BMIX     =  1.00
     AMIX_MAG =   1.60;   BMIX_MAG =  1.00
     AMIN     =   0.10
     WC   =   100.;   INIMIX=   1;  MIXPRE=   1;  MAXMIX= -45

 Intra band minimization:
   WEIMIN = 0.0010     energy-eigenvalue tresh-hold
   EBREAK =  0.16E-08  absolut break condition
   DEPER  =   0.30     relativ break condition  

   TIME   =   0.40     timestep for ELM

  volume/ion in A,a.u.               =      14.73        99.41
  Fermi-wavevector in a.u.,A,eV,Ry     =   1.307216  2.470281 23.249831  1.708814
  Thomas-Fermi vector in A             =   2.437966
 
 Write flags
   LWAVE        =      T    write WAVECAR
   LDOWNSAMPLE  =      F    k-point downsampling of WAVECAR
   LCHARG       =      T    write CHGCAR
   LVTOT        =      F    write LOCPOT, total local potential
   LVHAR        =      F    write LOCPOT, Hartree potential only
   LELF         =      F    write electronic localiz. function (ELF)
   LORBIT       =     11    0 simple, 1 ext, 2 COOP (PROOUT), +10 PAW based schemes


 Dipole corrections
   LMONO  =      F    monopole corrections only (constant potential shift)
   LDIPOL =      F    correct potential (dipole corrections)
   IDIPOL =      0    1-x, 2-y, 3-z, 4-all directions 
   EPSILON=  1.0000000 bulk dielectric constant

 LDA+U is selected, type is set to LDAUTYPE =  2
   angular momentum for each species LDAUL =     2   -1   -1
   U (eV)           for each species LDAUU =   4.2  0.0  0.0
   J (eV)           for each species LDAUJ =   0.0  0.0  0.0
 Exchange correlation treatment:
   GGA     =    PS    GGA type
   LEXCH   =    14    internal setting for exchange type
   VOSKOWN=      0    Vosko Wilk Nusair interpolation
   LHFCALC =     F    Hartree Fock is set to
   LHFONE  =     F    Hartree Fock one center treatment
   AEXX    =    0.0000 exact exchange contribution

 Linear response parameters
   LEPSILON=     F    determine dielectric tensor
   LRPA    =     F    only Hartree local field effects (RPA)
   LNABLA  =     F    use nabla operator in PAW spheres
   LVEL    =     F    velocity operator in full k-point grid
   LINTERFAST=   F  fast interpolation
   KINTER  =     0    interpolate to denser k-point grid
   CSHIFT  =0.1000    complex shift for real part using Kramers Kronig
   OMEGAMAX=  -1.0    maximum frequency
   DEG_THRESHOLD= 0.2000000E-02 threshold for treating states as degnerate
   RTIME   =   -0.100 relaxation time in fs
  (WPLASMAI=    0.000 imaginary part of plasma frequency in eV, 0.658/RTIME)
   DFIELD  = 0.0000000 0.0000000 0.0000000 field for delta impulse in time
 
 Orbital magnetization related:
   ORBITALMAG=     F  switch on orbital magnetization
   LCHIMAG   =     F  perturbation theory with respect to B field
   DQ        =  0.001000  dq finite difference perturbation B field
   LLRAUG    =     F  two centre corrections for induced B field



--------------------------------------------------------------------------------------------------------


 quasi-Newton-method for relaxation of ions
 charge density and potential will be updated during run
 spin polarized calculation
 Variant of blocked Davidson
 Davidson routine will perform the subspace rotation
 perform sub-space diagonalisation
    after iterative eigenvector-optimisation
 modified Broyden-mixing scheme, WC =      100.0
 initial mixing is a Kerker type mixing with AMIX =  0.4000 and BMIX =      1.0000
 Hartree-type preconditioning will be used
 using additional bands           40
 real space projection scheme for non local part
 use partial core corrections
 calculate Harris-corrections to forces 
   (improved forces if not selfconsistent)
 use gradient corrections 
 use of overlap-Matrix (Vanderbilt PP)
 Gauss-broadening in eV      SIGMA  =   0.01


--------------------------------------------------------------------------------------------------------


  energy-cutoff  :      700.00
  volume of cell :      471.40
      direct lattice vectors                 reciprocal lattice vectors
     7.812493352  0.000008623  0.000168432     0.128000109 -0.000000117 -0.000001710
     0.000007166  7.860721094  0.000150861    -0.000000140  0.127214792 -0.000002453
     0.000102560  0.000147994  7.676112776    -0.000002809 -0.000002500  0.130274272

  length of vectors
     7.812493354  7.860721096  7.676112778     0.128000109  0.127214792  0.130274272


 
 old parameters found on file WAVECAR:
  energy-cutoff  :      700.00
  volume of cell :      438.28
      direct lattice vectors                 reciprocal lattice vectors
     7.596000000  0.000000000  0.000000000     0.131648236  0.000000000  0.000000000
     0.000000000  7.596000000  0.000000000     0.000000000  0.131648236  0.000000000
     0.000000000  0.000000000  7.596000000     0.000000000  0.000000000  0.131648236

  length of vectors

 
 k-points in units of 2pi/SCALE and weight: Title                                   
   0.03199929  0.03180304  0.03256753       0.250
  -0.03200076  0.03180310  0.03256838       0.250
   0.03199936 -0.03180435  0.03256875       0.250
  -0.03200069 -0.03180429  0.03256961       0.250
 
 k-points in reciprocal lattice and weights: Title                                   
   0.25000000  0.25000000  0.25000000       0.250
  -0.25000000  0.25000000  0.25000000       0.250
   0.25000000 -0.25000000  0.25000000       0.250
  -0.25000000 -0.25000000  0.25000000       0.250
 
 position of ions in fractional coordinates (direct lattice) 
   0.99999960  0.00002082  0.99999619
   0.00000096  0.00033643  0.49999686
   0.00000179  0.50001555  0.99999495
   0.00000011  0.50059998  0.50000106
   0.49999905  0.00224450  0.00007647
   0.49999968  0.98567952  0.50009320
   0.50000068  0.49952698  0.99999718
   0.49999526  0.50544735  0.50000516
   0.23432325  0.50300900  0.50000121
   0.76567931  0.50300872  0.50000463
   0.50000054  0.24454893  0.50000262
   0.50000040  0.75462882  0.49999070
   0.49999954  0.00538587  0.24328216
   0.49999881  0.00541263  0.75664875
   0.50000267  0.49521022  0.24052968
   0.49999842  0.49523191  0.75947565
   0.24315208  0.99971478  0.99999180
   0.23772484  0.99859831  0.49997857
   0.23923433  0.50047480  0.00000646
   0.75684637  0.99971801  0.99998174
   0.76227439  0.99859848  0.49999683
   0.76076676  0.50047618  0.99999485
   0.99999910  0.25750244  0.00000327
   0.00000125  0.24035478  0.49999906
   0.00000053  0.74250889  0.99999832
   0.00000071  0.76067502  0.50000114
   0.49999686  0.24985876  0.99997661
   0.50000129  0.75151511  0.99997930
   0.99998721  0.00027248  0.25564831
   0.00001163  0.00026172  0.74434324
   0.99999834  0.49957932  0.24099158
   0.00000424  0.49958369  0.75901248
 
 position of ions in cartesian coordinates  (Angst):
   7.81259282  0.00032028  7.67625197
   0.00005875  0.00271861  3.83803237
   0.00012014  3.93063077  7.67614943
   0.00005571  3.93515080  3.83814001
   3.90623925  0.01764773  0.00067155
   3.90630250  7.74823008  3.83900470
   3.90635815  3.92679457  7.67625070
   3.90626458  3.97325893  3.83825647
   1.83070370  3.95408950  3.83818103
   5.98191942  3.95409187  3.83829675
   3.90630395  1.92240926  3.83819760
   3.90630650  5.93200497  3.83818305
   3.90626809  0.04237717  1.86754631
   3.90631500  0.04266349  5.80820618
   3.90629574  3.89274937  1.84649186
   3.90631580  3.89299661  5.82997965
   1.89973371  7.85862912  7.67624159
   1.85728217  7.84977885  3.83808256
   1.86902019  3.93409491  0.00016538
   5.91296693  7.85865897  7.67625091
   5.95532203  7.84978471  3.83831110
   5.94359137  3.93425818  7.67627688
   7.81248815  2.02416352  0.00023235
   0.00006275  1.88943589  3.83808544
   0.00011206  5.83680327  7.67621193
   0.00006230  5.97952816  3.83817987
   3.90632650  1.96422230  7.67605516
   3.90636473  5.90760295  7.67615144
   7.81241965  0.00218834  1.96255370
   0.00016719  0.00216748  5.71366267
   7.81250869  3.92709801  1.85012232
   0.00011456  3.92720038  5.82634078
 


--------------------------------------------------------------------------------------------------------


 k-point  1 :   0.2500 0.2500 0.2500  plane waves:   19825
 k-point  2 :  -0.2500 0.2500 0.2500  plane waves:   19825
 k-point  3 :   0.2500-0.2500 0.2500  plane waves:   19826
 k-point  4 :  -0.2500-0.2500 0.2500  plane waves:   19825

 maximum and minimum number of plane-waves per node :      2501     2452

 maximum number of plane-waves:     19826
 maximum index in each direction: 
   IXMAX=   17   IYMAX=   17   IZMAX=   16
   IXMIN=  -17   IYMIN=  -17   IZMIN=  -16


 real space projection operators:
  total allocation   :      18175.72 KBytes
  max/ min on nodes  :       2412.34       1892.58


 parallel 3D FFT for wavefunctions:
    minimum data exchange during FFTs selected (reduces bandwidth)
 parallel 3D FFT for charge:
    minimum data exchange during FFTs selected (reduces bandwidth)


 total amount of memory used by VASP MPI-rank0    62223. kBytes
=======================================================================

   base      :      30000. kBytes
   nonlr-proj:       8421. kBytes
   fftplans  :       8424. kBytes
   grid      :       8783. kBytes
   one-center:        124. kBytes
   wavefun   :       6471. kBytes
 
     INWAV:  cpu time    4.2694: real time   45.9354
 Broyden mixing: mesh for mixing (old mesh)
   NGX = 33   NGY = 33   NGZ = 33
  (NGX  =140   NGY  =140   NGZ  =140)
  gives a total of  35937 points

 charge density for first step will be calculated from the start-wavefunctions


--------------------------------------------------------------------------------------------------------


 Maximum index for non-local projection operator         1339
 Maximum index for augmentation-charges         6993 (set IRDMAX)


--------------------------------------------------------------------------------------------------------


 initial charge from wavefunction
 First call to EWALD:  gamma=   0.228
 Maximum number of real-space cells 3x 3x 3
 Maximum number of reciprocal cells 3x 3x 3

    FEWALD:  cpu time    0.0050: real time    0.0035


--------------------------------------- Iteration      1(   1)  ---------------------------------------


    POTLOK:  cpu time    1.8197: real time    1.8935
    SETDIJ:  cpu time    0.8299: real time    0.8379
     EDDAV:  cpu time    3.5215: real time    3.5991
       DOS:  cpu time    0.0010: real time    0.0008
    CHARGE:  cpu time    0.3679: real time    0.3754
    MIXING:  cpu time    0.0020: real time    0.0019
    --------------------------------------------
      LOOP:  cpu time    6.5420: real time    6.7085

 eigenvalue-minimisations  :  2560
 total energy-change (2. order) :-0.2066435E+03  (-0.9421780E-01)
 number of electron     240.0000003 magnetization      -2.0000000
 augmentation part       62.0278432 magnetization      -0.7823376

 Broyden mixing:
  rms(total) = 0.94746E-02    rms(broyden)= 0.88496E-02
  rms(prec ) = 0.94163E-02
  weight for this iteration     100.00

 Free energy of the ion-electron system (eV)
  ---------------------------------------------------
  alpha Z        PSCENC =       742.81507554
  Ewald energy   TEWEN  =    -12580.79078543
  -Hartree energ DENC   =     -8404.76675459
  -exchange      EXHF   =         0.00000000
  -V(xc)+E(xc)   XCENC  =      1118.90442560
  PAW double counting   =     17967.48560420   -18087.69032261
  entropy T*S    EENTRO =        -0.00000000
  eigenvalues    EBANDS =     -3264.95399484
  atomic energy  EATOM  =     22302.35321627
  Solvation  Ediel_sol  =         0.00000000
  ---------------------------------------------------
  free energy    TOTEN  =      -206.64353586 eV

  energy without entropy =     -206.64353586  energy(sigma->0) =     -206.64353586


--------------------------------------------------------------------------------------------------------




--------------------------------------- Iteration      1(   2)  ---------------------------------------


    POTLOK:  cpu time    0.4699: real time    1.4080
    SETDIJ:  cpu time    0.8409: real time    0.8389
     EDDAV:  cpu time    3.9234: real time    3.9222
       DOS:  cpu time    0.0020: real time    0.0012
    CHARGE:  cpu time    0.3809: real time    0.3796
    MIXING:  cpu time    0.0020: real time    0.0021
    --------------------------------------------
      LOOP:  cpu time    5.6191: real time    6.5521

 eigenvalue-minimisations  :  3008
 total energy-change (2. order) :-0.1391110E-03  (-0.5351766E-05)
 number of electron     240.0000003 magnetization      -2.0000000
 augmentation part       62.0288677 magnetization      -0.7823256

 Broyden mixing:
  rms(total) = 0.53139E-02    rms(broyden)= 0.52711E-02
  rms(prec ) = 0.56322E-02
  weight for this iteration     100.00

 eigenvalues of (default mixing * dielectric matrix)
  average eigenvalue GAMMA=   2.0350
  2.0350

 Free energy of the ion-electron system (eV)
  ---------------------------------------------------
  alpha Z        PSCENC =       742.81507554
  Ewald energy   TEWEN  =    -12580.79078543
  -Hartree energ DENC   =     -8404.67447559
  -exchange      EXHF   =         0.00000000
  -V(xc)+E(xc)   XCENC  =      1118.89931167
  PAW double counting   =     17968.51216280   -18088.69632467
  entropy T*S    EENTRO =        -0.00000000
  eigenvalues    EBANDS =     -3265.06185556
  atomic energy  EATOM  =     22302.35321627
  Solvation  Ediel_sol  =         0.00000000
  ---------------------------------------------------
  free energy    TOTEN  =      -206.64367497 eV

  energy without entropy =     -206.64367497  energy(sigma->0) =     -206.64367497


--------------------------------------------------------------------------------------------------------




--------------------------------------- Iteration      1(   3)  ---------------------------------------


    POTLOK:  cpu time    0.2010: real time    1.1270
    SETDIJ:  cpu time    0.8399: real time    0.8389
     EDDAV:  cpu time    4.4693: real time    4.4671
       DOS:  cpu time    0.0010: real time    0.0009
    CHARGE:  cpu time    0.3799: real time    0.3777
    MIXING:  cpu time    0.0020: real time    0.0022
    --------------------------------------------
      LOOP:  cpu time    5.8931: real time    6.8138

 eigenvalue-minimisations  :  3536
 total energy-change (2. order) :-0.1535078E-03  (-0.3697610E-05)
 number of electron     240.0000003 magnetization      -2.0000000
 augmentation part       62.0297216 magnetization      -0.7823356

 Broyden mixing:
  rms(total) = 0.22917E-02    rms(broyden)= 0.22876E-02
  rms(prec ) = 0.31938E-02
  weight for this iteration     100.00

 eigenvalues of (default mixing * dielectric matrix)
  average eigenvalue GAMMA=   1.5032
  2.4206  0.5857

 Free energy of the ion-electron system (eV)
  ---------------------------------------------------
  alpha Z        PSCENC =       742.81507554
  Ewald energy   TEWEN  =    -12580.79078543
  -Hartree energ DENC   =     -8404.69643081
  -exchange      EXHF   =         0.00000000
  -V(xc)+E(xc)   XCENC  =      1118.90159416
  PAW double counting   =     17969.58546345   -18089.75418593
  entropy T*S    EENTRO =        -0.00000000
  eigenvalues    EBANDS =     -3265.05777571
  atomic energy  EATOM  =     22302.35321627
  Solvation  Ediel_sol  =         0.00000000
  ---------------------------------------------------
  free energy    TOTEN  =      -206.64382848 eV

  energy without entropy =     -206.64382848  energy(sigma->0) =     -206.64382848


--------------------------------------------------------------------------------------------------------




--------------------------------------- Iteration      1(   4)  ---------------------------------------


    POTLOK:  cpu time    0.2770: real time    1.7815
    SETDIJ:  cpu time    0.8399: real time    0.8380
     EDDAV:  cpu time    4.1964: real time    4.1948
       DOS:  cpu time    0.0000: real time    0.0008
    CHARGE:  cpu time    0.3809: real time    0.3790
    MIXING:  cpu time    0.0030: real time    0.0024
    --------------------------------------------
      LOOP:  cpu time    5.6971: real time    7.1966

 eigenvalue-minimisations  :  3328
 total energy-change (2. order) :-0.1756172E-04  (-0.1448484E-05)
 number of electron     240.0000003 magnetization      -2.0000000
 augmentation part       62.0293856 magnetization      -0.7823498

 Broyden mixing:
  rms(total) = 0.41217E-03    rms(broyden)= 0.41108E-03
  rms(prec ) = 0.53824E-03
  weight for this iteration     100.00

 eigenvalues of (default mixing * dielectric matrix)
  average eigenvalue GAMMA=   1.3120
  2.4720  0.9100  0.5540

 Free energy of the ion-electron system (eV)
  ---------------------------------------------------
  alpha Z        PSCENC =       742.81507554
  Ewald energy   TEWEN  =    -12580.79078543
  -Hartree energ DENC   =     -8404.73002964
  -exchange      EXHF   =         0.00000000
  -V(xc)+E(xc)   XCENC  =      1118.90328447
  PAW double counting   =     17970.00978839   -18090.17137765
  entropy T*S    EENTRO =        -0.00000000
  eigenvalues    EBANDS =     -3265.03301799
  atomic energy  EATOM  =     22302.35321627
  Solvation  Ediel_sol  =         0.00000000
  ---------------------------------------------------
  free energy    TOTEN  =      -206.64384604 eV

  energy without entropy =     -206.64384604  energy(sigma->0) =     -206.64384604


--------------------------------------------------------------------------------------------------------




--------------------------------------- Iteration      1(   5)  ---------------------------------------


    POTLOK:  cpu time    0.1480: real time    1.3749
    SETDIJ:  cpu time    0.8419: real time    0.8399
     EDDAV:  cpu time    3.1875: real time    3.1863
       DOS:  cpu time    0.0010: real time    0.2384
    --------------------------------------------
      LOOP:  cpu time    4.1784: real time    5.6395

 eigenvalue-minimisations  :  2048
 total energy-change (2. order) :-0.5862057E-06  (-0.1875676E-06)
 number of electron     240.0000003 magnetization      -2.0000000
 augmentation part       62.0293856 magnetization      -0.7823498

 Free energy of the ion-electron system (eV)
  ---------------------------------------------------
  alpha Z        PSCENC =       742.81507554
  Ewald energy   TEWEN  =    -12580.79078543
  -Hartree energ DENC   =     -8404.74879782
  -exchange      EXHF   =         0.00000000
  -V(xc)+E(xc)   XCENC  =      1118.90449067
  PAW double counting   =     17969.98757224   -18090.14916376
  entropy T*S    EENTRO =        -0.00000000
  eigenvalues    EBANDS =     -3265.01545433
  atomic energy  EATOM  =     22302.35321627
  Solvation  Ediel_sol  =         0.00000000
  ---------------------------------------------------
  free energy    TOTEN  =      -206.64384663 eV

  energy without entropy =     -206.64384663  energy(sigma->0) =     -206.64384663


--------------------------------------------------------------------------------------------------------




 average (electrostatic) potential at core
  the test charge radii are     1.0397  0.7215  0.7167
  (the norm of the test charge is              1.0000)
       1 -58.4643       2 -60.5540       3 -60.7732       4 -57.9589       5 -58.4760
       6 -57.6246       7 -58.1654       8 -57.4324       9 -72.6017      10 -72.6017
      11 -73.3563      12 -72.6939      13 -73.0337      14 -73.0321      15 -72.8297
      16 -72.8295      17 -79.9828      18 -79.9008      19 -80.1840      20 -79.9827
      21 -79.9006      22 -80.1839      23 -80.4681      24 -80.0021      25 -80.4679
      26 -79.9816      27 -79.0481      28 -78.9854      29 -80.6312      30 -80.6313
      31 -80.4515      32 -80.4523
 
 
 
 E-fermi :   0.4011     XC(G=0):  -8.8885     alpha+bet : -7.4958


 spin component 1

 k-point     1 :       0.2500    0.2500    0.2500
  band No.  band energies     occupation 
      1     -36.7343      1.00000
      2     -36.7136      1.00000
      3     -36.6766      1.00000
      4     -36.5751      1.00000
      5     -36.4634      1.00000
      6     -36.4429      1.00000
      7     -35.0427      1.00000
      8     -34.6107      1.00000
      9     -34.5298      1.00000
     10     -34.3209      1.00000
     11     -34.2792      1.00000
     12     -34.2249      1.00000
     13     -34.1537      1.00000
     14     -34.0128      1.00000
     15     -33.7778      1.00000
     16     -33.7332      1.00000
     17     -33.7081      1.00000
     18     -33.6910      1.00000
     19     -33.4737      1.00000
     20     -33.4339      1.00000
     21     -33.3633      1.00000
     22     -33.2061      1.00000
     23     -33.1975      1.00000
     24     -33.1849      1.00000
     25     -24.5362      1.00000
     26     -24.4131      1.00000
     27     -24.1970      1.00000
     28     -24.0315      1.00000
     29     -23.9591      1.00000
     30     -23.8984      1.00000
     31     -23.8374      1.00000
     32     -23.7914      1.00000
     33     -23.7844      1.00000
     34     -23.6395      1.00000
     35     -23.5706      1.00000
     36     -23.4214      1.00000
     37     -23.3997      1.00000
     38     -23.2596      1.00000
     39     -22.8035      1.00000
     40     -22.4795      1.00000
     41     -15.7561      1.00000
     42     -15.5872      1.00000
     43     -15.3124      1.00000
     44     -15.2265      1.00000
     45     -15.0811      1.00000
     46     -14.8723      1.00000
     47     -14.6955      1.00000
     48     -14.6344      1.00000
     49      -8.0303      1.00000
     50      -7.8604      1.00000
     51      -7.7047      1.00000
     52      -7.5186      1.00000
     53      -7.3016      1.00000
     54      -7.2015      1.00000
     55      -7.1884      1.00000
     56      -6.7575      1.00000
     57      -6.6684      1.00000
     58      -6.6564      1.00000
     59      -6.5104      1.00000
     60      -6.5046      1.00000
     61      -6.4452      1.00000
     62      -6.3641      1.00000
     63      -6.3045      1.00000
     64      -6.2617      1.00000
     65      -6.2473      1.00000
     66      -6.1670      1.00000
     67      -6.1185      1.00000
     68      -5.9615      1.00000
     69      -5.8971      1.00000
     70      -5.6841      1.00000
     71      -5.6296      1.00000
     72      -5.5483      1.00000
     73      -5.3034      1.00000
     74      -5.2773      1.00000
     75      -5.2287      1.00000
     76      -5.1752      1.00000
     77      -5.1090      1.00000
     78      -4.9772      1.00000
     79      -4.9100      1.00000
     80      -4.8908      1.00000
     81      -4.8133      1.00000
     82      -4.7961      1.00000
     83      -4.7259      1.00000
     84      -4.6956      1.00000
     85      -4.6345      1.00000
     86      -4.6290      1.00000
     87      -4.5903      1.00000
     88      -4.5223      1.00000
     89      -4.4710      1.00000
     90      -4.3701      1.00000
     91      -4.3319      1.00000
     92      -4.3039      1.00000
     93      -4.1086      1.00000
     94      -3.9166      1.00000
     95      -3.8742      1.00000
     96      -3.7554      1.00000
     97      -3.5534      1.00000
     98      -3.4020      1.00000
     99      -3.1374      1.00000
    100      -3.0209      1.00000
    101      -1.8754      1.00000
    102      -1.6532      1.00000
    103      -1.5626      1.00000
    104      -1.5091      1.00000
    105      -1.4651      1.00000
    106      -1.3413      1.00000
    107      -1.2860      1.00000
    108      -1.1740      1.00000
    109      -0.9903      1.00000
    110      -0.7443      1.00000
    111      -0.5954      1.00000
    112      -0.5557      1.00000
    113      -0.4286      1.00000
    114      -0.3973      1.00000
    115      -0.2220      1.00000
    116      -0.2115      1.00000
    117       0.2204      1.00000
    118       0.3331      1.00000
    119       0.3532      1.00000
    120       0.9083      0.00000
    121       1.1939      0.00000
    122       1.2164      0.00000
    123       1.3578      0.00000
    124       1.4594      0.00000
    125       1.4857      0.00000
    126       1.5706      0.00000
    127       2.6202      0.00000
    128       2.7096      0.00000
    129       2.9121      0.00000
    130       2.9300      0.00000
    131       3.0542      0.00000
    132       3.0596      0.00000
    133       3.1587      0.00000
    134       3.1960      0.00000
    135       3.2568      0.00000
    136       3.2927      0.00000
    137       3.3592      0.00000
    138       3.3932      0.00000
    139       3.5093      0.00000
    140       3.8494      0.00000
    141       3.9044      0.00000
    142       4.0739      0.00000
    143       4.1126      0.00000
    144       4.1684      0.00000
    145       4.2993      0.00000
    146       4.3242      0.00000
    147       4.5198      0.00000
    148       4.6814      0.00000
    149       4.8583      0.00000
    150       4.8953      0.00000
    151       4.9053      0.00000
    152       5.1015      0.00000
    153       5.1884      0.00000
    154       5.2130      0.00000
    155       5.2768      0.00000
    156       5.4711      0.00000
    157       5.7641      0.00000
    158       6.1662      0.00000
    159       6.6524      0.00000
    160       6.9283      0.00000

 k-point     2 :      -0.2500    0.2500    0.2500
  band No.  band energies     occupation 
      1     -36.7343      1.00000
      2     -36.7136      1.00000
      3     -36.6766      1.00000
      4     -36.5751      1.00000
      5     -36.4634      1.00000
      6     -36.4429      1.00000
      7     -35.0427      1.00000
      8     -34.6107      1.00000
      9     -34.5298      1.00000
     10     -34.3209      1.00000
     11     -34.2792      1.00000
     12     -34.2249      1.00000
     13     -34.1537      1.00000
     14     -34.0128      1.00000
     15     -33.7778      1.00000
     16     -33.7332      1.00000
     17     -33.7081      1.00000
     18     -33.6910      1.00000
     19     -33.4737      1.00000
     20     -33.4339      1.00000
     21     -33.3633      1.00000
     22     -33.2061      1.00000
     23     -33.1975      1.00000
     24     -33.1849      1.00000
     25     -24.5362      1.00000
     26     -24.4131      1.00000
     27     -24.1970      1.00000
     28     -24.0315      1.00000
     29     -23.9591      1.00000
     30     -23.8984      1.00000
     31     -23.8374      1.00000
     32     -23.7914      1.00000
     33     -23.7844      1.00000
     34     -23.6395      1.00000
     35     -23.5706      1.00000
     36     -23.4214      1.00000
     37     -23.3997      1.00000
     38     -23.2596      1.00000
     39     -22.8035      1.00000
     40     -22.4795      1.00000
     41     -15.7561      1.00000
     42     -15.5872      1.00000
     43     -15.3124      1.00000
     44     -15.2265      1.00000
     45     -15.0811      1.00000
     46     -14.8723      1.00000
     47     -14.6956      1.00000
     48     -14.6344      1.00000
     49      -8.0303      1.00000
     50      -7.8604      1.00000
     51      -7.7047      1.00000
     52      -7.5186      1.00000
     53      -7.3016      1.00000
     54      -7.2015      1.00000
     55      -7.1884      1.00000
     56      -6.7575      1.00000
     57      -6.6684      1.00000
     58      -6.6564      1.00000
     59      -6.5104      1.00000
     60      -6.5046      1.00000
     61      -6.4452      1.00000
     62      -6.3641      1.00000
     63      -6.3045      1.00000
     64      -6.2617      1.00000
     65      -6.2473      1.00000
     66      -6.1670      1.00000
     67      -6.1185      1.00000
     68      -5.9615      1.00000
     69      -5.8971      1.00000
     70      -5.6841      1.00000
     71      -5.6296      1.00000
     72      -5.5483      1.00000
     73      -5.3034      1.00000
     74      -5.2773      1.00000
     75      -5.2287      1.00000
     76      -5.1752      1.00000
     77      -5.1090      1.00000
     78      -4.9772      1.00000
     79      -4.9101      1.00000
     80      -4.8908      1.00000
     81      -4.8133      1.00000
     82      -4.7961      1.00000
     83      -4.7258      1.00000
     84      -4.6956      1.00000
     85      -4.6345      1.00000
     86      -4.6290      1.00000
     87      -4.5903      1.00000
     88      -4.5223      1.00000
     89      -4.4710      1.00000
     90      -4.3701      1.00000
     91      -4.3319      1.00000
     92      -4.3039      1.00000
     93      -4.1086      1.00000
     94      -3.9166      1.00000
     95      -3.8742      1.00000
     96      -3.7554      1.00000
     97      -3.5534      1.00000
     98      -3.4020      1.00000
     99      -3.1374      1.00000
    100      -3.0209      1.00000
    101      -1.8754      1.00000
    102      -1.6532      1.00000
    103      -1.5625      1.00000
    104      -1.5091      1.00000
    105      -1.4651      1.00000
    106      -1.3413      1.00000
    107      -1.2860      1.00000
    108      -1.1740      1.00000
    109      -0.9903      1.00000
    110      -0.7443      1.00000
    111      -0.5954      1.00000
    112      -0.5558      1.00000
    113      -0.4285      1.00000
    114      -0.3972      1.00000
    115      -0.2220      1.00000
    116      -0.2115      1.00000
    117       0.2203      1.00000
    118       0.3331      1.00000
    119       0.3532      1.00000
    120       0.9083      0.00000
    121       1.1939      0.00000
    122       1.2164      0.00000
    123       1.3578      0.00000
    124       1.4594      0.00000
    125       1.4857      0.00000
    126       1.5706      0.00000
    127       2.6202      0.00000
    128       2.7096      0.00000
    129       2.9121      0.00000
    130       2.9300      0.00000
    131       3.0542      0.00000
    132       3.0596      0.00000
    133       3.1587      0.00000
    134       3.1960      0.00000
    135       3.2568      0.00000
    136       3.2927      0.00000
    137       3.3592      0.00000
    138       3.3932      0.00000
    139       3.5093      0.00000
    140       3.8494      0.00000
    141       3.9044      0.00000
    142       4.0739      0.00000
    143       4.1126      0.00000
    144       4.1684      0.00000
    145       4.2992      0.00000
    146       4.3242      0.00000
    147       4.5198      0.00000
    148       4.6814      0.00000
    149       4.8583      0.00000
    150       4.8953      0.00000
    151       4.9053      0.00000
    152       5.1015      0.00000
    153       5.1884      0.00000
    154       5.2130      0.00000
    155       5.2768      0.00000
    156       5.4711      0.00000
    157       5.7641      0.00000
    158       6.1662      0.00000
    159       6.6524      0.00000
    160       6.9283      0.00000

 k-point     3 :       0.2500   -0.2500    0.2500
  band No.  band energies     occupation 
      1     -36.7343      1.00000
      2     -36.7136      1.00000
      3     -36.6766      1.00000
      4     -36.5751      1.00000
      5     -36.4634      1.00000
      6     -36.4429      1.00000
      7     -35.0427      1.00000
      8     -34.6107      1.00000
      9     -34.5298      1.00000
     10     -34.3209      1.00000
     11     -34.2792      1.00000
     12     -34.2249      1.00000
     13     -34.1537      1.00000
     14     -34.0128      1.00000
     15     -33.7778      1.00000
     16     -33.7332      1.00000
     17     -33.7081      1.00000
     18     -33.6910      1.00000
     19     -33.4737      1.00000
     20     -33.4339      1.00000
     21     -33.3633      1.00000
     22     -33.2061      1.00000
     23     -33.1975      1.00000
     24     -33.1849      1.00000
     25     -24.5362      1.00000
     26     -24.4131      1.00000
     27     -24.1970      1.00000
     28     -24.0315      1.00000
     29     -23.9591      1.00000
     30     -23.8984      1.00000
     31     -23.8374      1.00000
     32     -23.7914      1.00000
     33     -23.7844      1.00000
     34     -23.6395      1.00000
     35     -23.5706      1.00000
     36     -23.4214      1.00000
     37     -23.3997      1.00000
     38     -23.2596      1.00000
     39     -22.8035      1.00000
     40     -22.4795      1.00000
     41     -15.7560      1.00000
     42     -15.5872      1.00000
     43     -15.3124      1.00000
     44     -15.2265      1.00000
     45     -15.0811      1.00000
     46     -14.8723      1.00000
     47     -14.6956      1.00000
     48     -14.6344      1.00000
     49      -8.0303      1.00000
     50      -7.8604      1.00000
     51      -7.7047      1.00000
     52      -7.5186      1.00000
     53      -7.3016      1.00000
     54      -7.2015      1.00000
     55      -7.1884      1.00000
     56      -6.7574      1.00000
     57      -6.6684      1.00000
     58      -6.6564      1.00000
     59      -6.5104      1.00000
     60      -6.5046      1.00000
     61      -6.4452      1.00000
     62      -6.3641      1.00000
     63      -6.3045      1.00000
     64      -6.2617      1.00000
     65      -6.2473      1.00000
     66      -6.1670      1.00000
     67      -6.1185      1.00000
     68      -5.9615      1.00000
     69      -5.8971      1.00000
     70      -5.6841      1.00000
     71      -5.6296      1.00000
     72      -5.5483      1.00000
     73      -5.3033      1.00000
     74      -5.2773      1.00000
     75      -5.2286      1.00000
     76      -5.1752      1.00000
     77      -5.1090      1.00000
     78      -4.9772      1.00000
     79      -4.9101      1.00000
     80      -4.8908      1.00000
     81      -4.8134      1.00000
     82      -4.7961      1.00000
     83      -4.7258      1.00000
     84      -4.6956      1.00000
     85      -4.6345      1.00000
     86      -4.6290      1.00000
     87      -4.5903      1.00000
     88      -4.5223      1.00000
     89      -4.4710      1.00000
     90      -4.3701      1.00000
     91      -4.3320      1.00000
     92      -4.3039      1.00000
     93      -4.1086      1.00000
     94      -3.9166      1.00000
     95      -3.8743      1.00000
     96      -3.7554      1.00000
     97      -3.5533      1.00000
     98      -3.4020      1.00000
     99      -3.1374      1.00000
    100      -3.0210      1.00000
    101      -1.8755      1.00000
    102      -1.6534      1.00000
    103      -1.5626      1.00000
    104      -1.5089      1.00000
    105      -1.4651      1.00000
    106      -1.3411      1.00000
    107      -1.2860      1.00000
    108      -1.1740      1.00000
    109      -0.9903      1.00000
    110      -0.7442      1.00000
    111      -0.5953      1.00000
    112      -0.5557      1.00000
    113      -0.4286      1.00000
    114      -0.3973      1.00000
    115      -0.2225      1.00000
    116      -0.2115      1.00000
    117       0.2204      1.00000
    118       0.3335      1.00000
    119       0.3531      1.00000
    120       0.9081      0.00000
    121       1.1939      0.00000
    122       1.2164      0.00000
    123       1.3578      0.00000
    124       1.4594      0.00000
    125       1.4857      0.00000
    126       1.5706      0.00000
    127       2.6202      0.00000
    128       2.7096      0.00000
    129       2.9121      0.00000
    130       2.9300      0.00000
    131       3.0542      0.00000
    132       3.0596      0.00000
    133       3.1587      0.00000
    134       3.1959      0.00000
    135       3.2568      0.00000
    136       3.2928      0.00000
    137       3.3592      0.00000
    138       3.3932      0.00000
    139       3.5092      0.00000
    140       3.8495      0.00000
    141       3.9044      0.00000
    142       4.0739      0.00000
    143       4.1126      0.00000
    144       4.1684      0.00000
    145       4.2992      0.00000
    146       4.3242      0.00000
    147       4.5200      0.00000
    148       4.6814      0.00000
    149       4.8583      0.00000
    150       4.8953      0.00000
    151       4.9054      0.00000
    152       5.1014      0.00000
    153       5.1883      0.00000
    154       5.2130      0.00000
    155       5.2768      0.00000
    156       5.4710      0.00000
    157       5.7641      0.00000
    158       6.1662      0.00000
    159       6.6524      0.00000
    160       6.9283      0.00000

 k-point     4 :      -0.2500   -0.2500    0.2500
  band No.  band energies     occupation 
      1     -36.7343      1.00000
      2     -36.7136      1.00000
      3     -36.6766      1.00000
      4     -36.5751      1.00000
      5     -36.4634      1.00000
      6     -36.4429      1.00000
      7     -35.0427      1.00000
      8     -34.6107      1.00000
      9     -34.5298      1.00000
     10     -34.3209      1.00000
     11     -34.2792      1.00000
     12     -34.2249      1.00000
     13     -34.1537      1.00000
     14     -34.0128      1.00000
     15     -33.7778      1.00000
     16     -33.7332      1.00000
     17     -33.7081      1.00000
     18     -33.6910      1.00000
     19     -33.4737      1.00000
     20     -33.4339      1.00000
     21     -33.3633      1.00000
     22     -33.2061      1.00000
     23     -33.1975      1.00000
     24     -33.1849      1.00000
     25     -24.5362      1.00000
     26     -24.4131      1.00000
     27     -24.1970      1.00000
     28     -24.0315      1.00000
     29     -23.9591      1.00000
     30     -23.8984      1.00000
     31     -23.8374      1.00000
     32     -23.7914      1.00000
     33     -23.7844      1.00000
     34     -23.6395      1.00000
     35     -23.5706      1.00000
     36     -23.4214      1.00000
     37     -23.3997      1.00000
     38     -23.2596      1.00000
     39     -22.8035      1.00000
     40     -22.4795      1.00000
     41     -15.7560      1.00000
     42     -15.5872      1.00000
     43     -15.3124      1.00000
     44     -15.2265      1.00000
     45     -15.0811      1.00000
     46     -14.8723      1.00000
     47     -14.6956      1.00000
     48     -14.6344      1.00000
     49      -8.0303      1.00000
     50      -7.8604      1.00000
     51      -7.7047      1.00000
     52      -7.5186      1.00000
     53      -7.3016      1.00000
     54      -7.2015      1.00000
     55      -7.1883      1.00000
     56      -6.7574      1.00000
     57      -6.6684      1.00000
     58      -6.6564      1.00000
     59      -6.5104      1.00000
     60      -6.5046      1.00000
     61      -6.4452      1.00000
     62      -6.3641      1.00000
     63      -6.3045      1.00000
     64      -6.2617      1.00000
     65      -6.2473      1.00000
     66      -6.1670      1.00000
     67      -6.1185      1.00000
     68      -5.9615      1.00000
     69      -5.8971      1.00000
     70      -5.6841      1.00000
     71      -5.6296      1.00000
     72      -5.5483      1.00000
     73      -5.3033      1.00000
     74      -5.2773      1.00000
     75      -5.2286      1.00000
     76      -5.1752      1.00000
     77      -5.1090      1.00000
     78      -4.9772      1.00000
     79      -4.9101      1.00000
     80      -4.8908      1.00000
     81      -4.8134      1.00000
     82      -4.7961      1.00000
     83      -4.7258      1.00000
     84      -4.6956      1.00000
     85      -4.6345      1.00000
     86      -4.6290      1.00000
     87      -4.5903      1.00000
     88      -4.5223      1.00000
     89      -4.4710      1.00000
     90      -4.3700      1.00000
     91      -4.3319      1.00000
     92      -4.3039      1.00000
     93      -4.1086      1.00000
     94      -3.9166      1.00000
     95      -3.8743      1.00000
     96      -3.7554      1.00000
     97      -3.5533      1.00000
     98      -3.4020      1.00000
     99      -3.1374      1.00000
    100      -3.0210      1.00000
    101      -1.8755      1.00000
    102      -1.6534      1.00000
    103      -1.5625      1.00000
    104      -1.5089      1.00000
    105      -1.4651      1.00000
    106      -1.3411      1.00000
    107      -1.2860      1.00000
    108      -1.1740      1.00000
    109      -0.9903      1.00000
    110      -0.7442      1.00000
    111      -0.5953      1.00000
    112      -0.5558      1.00000
    113      -0.4285      1.00000
    114      -0.3973      1.00000
    115      -0.2225      1.00000
    116      -0.2115      1.00000
    117       0.2203      1.00000
    118       0.3335      1.00000
    119       0.3531      1.00000
    120       0.9081      0.00000
    121       1.1939      0.00000
    122       1.2164      0.00000
    123       1.3578      0.00000
    124       1.4594      0.00000
    125       1.4857      0.00000
    126       1.5706      0.00000
    127       2.6202      0.00000
    128       2.7096      0.00000
    129       2.9121      0.00000
    130       2.9300      0.00000
    131       3.0542      0.00000
    132       3.0596      0.00000
    133       3.1587      0.00000
    134       3.1959      0.00000
    135       3.2568      0.00000
    136       3.2928      0.00000
    137       3.3592      0.00000
    138       3.3932      0.00000
    139       3.5092      0.00000
    140       3.8495      0.00000
    141       3.9044      0.00000
    142       4.0738      0.00000
    143       4.1126      0.00000
    144       4.1684      0.00000
    145       4.2991      0.00000
    146       4.3242      0.00000
    147       4.5200      0.00000
    148       4.6814      0.00000
    149       4.8583      0.00000
    150       4.8953      0.00000
    151       4.9054      0.00000
    152       5.1014      0.00000
    153       5.1883      0.00000
    154       5.2130      0.00000
    155       5.2768      0.00000
    156       5.4710      0.00000
    157       5.7641      0.00000
    158       6.1662      0.00000
    159       6.6524      0.00000
    160       6.9283      0.00000

 spin component 2

 k-point     1 :       0.2500    0.2500    0.2500
  band No.  band energies     occupation 
      1     -36.7552      1.00000
      2     -36.7334      1.00000
      3     -36.6812      1.00000
      4     -36.5994      1.00000
      5     -36.4649      1.00000
      6     -36.4641      1.00000
      7     -35.3848      1.00000
      8     -34.8560      1.00000
      9     -34.8224      1.00000
     10     -34.6064      1.00000
     11     -34.5342      1.00000
     12     -34.3095      1.00000
     13     -34.2765      1.00000
     14     -34.2231      1.00000
     15     -34.1499      1.00000
     16     -34.0148      1.00000
     17     -33.7455      1.00000
     18     -33.6995      1.00000
     19     -33.4679      1.00000
     20     -33.4024      1.00000
     21     -33.3208      1.00000
     22     -33.1624      1.00000
     23     -33.1619      1.00000
     24     -33.1574      1.00000
     25     -24.5510      1.00000
     26     -24.4194      1.00000
     27     -24.2036      1.00000
     28     -24.0545      1.00000
     29     -23.9607      1.00000
     30     -23.9133      1.00000
     31     -23.8399      1.00000
     32     -23.7920      1.00000
     33     -23.7754      1.00000
     34     -23.6398      1.00000
     35     -23.5702      1.00000
     36     -23.4112      1.00000
     37     -23.4014      1.00000
     38     -23.2591      1.00000
     39     -22.8148      1.00000
     40     -22.4918      1.00000
     41     -16.1342      1.00000
     42     -15.7943      1.00000
     43     -15.6190      1.00000
     44     -15.3281      1.00000
     45     -15.2641      1.00000
     46     -15.0747      1.00000
     47     -14.9745      1.00000
     48     -14.6658      1.00000
     49      -8.0786      1.00000
     50      -7.8625      1.00000
     51      -7.7353      1.00000
     52      -7.5192      1.00000
     53      -7.3040      1.00000
     54      -7.2293      1.00000
     55      -7.2012      1.00000
     56      -6.8559      1.00000
     57      -6.7777      1.00000
     58      -6.6906      1.00000
     59      -6.5172      1.00000
     60      -6.5163      1.00000
     61      -6.4543      1.00000
     62      -6.3668      1.00000
     63      -6.3052      1.00000
     64      -6.2861      1.00000
     65      -6.2682      1.00000
     66      -6.1699      1.00000
     67      -6.1373      1.00000
     68      -5.9588      1.00000
     69      -5.8966      1.00000
     70      -5.8067      1.00000
     71      -5.6395      1.00000
     72      -5.5554      1.00000
     73      -5.3256      1.00000
     74      -5.2818      1.00000
     75      -5.2346      1.00000
     76      -5.1764      1.00000
     77      -5.1241      1.00000
     78      -4.9752      1.00000
     79      -4.9307      1.00000
     80      -4.8876      1.00000
     81      -4.8396      1.00000
     82      -4.7961      1.00000
     83      -4.7327      1.00000
     84      -4.6976      1.00000
     85      -4.6390      1.00000
     86      -4.6289      1.00000
     87      -4.5953      1.00000
     88      -4.5182      1.00000
     89      -4.4759      1.00000
     90      -4.4011      1.00000
     91      -4.3388      1.00000
     92      -4.3168      1.00000
     93      -4.1110      1.00000
     94      -3.9222      1.00000
     95      -3.9028      1.00000
     96      -3.7583      1.00000
     97      -3.6157      1.00000
     98      -3.4735      1.00000
     99      -3.2374      1.00000
    100      -3.0720      1.00000
    101      -2.4785      1.00000
    102      -1.7967      1.00000
    103      -1.6810      1.00000
    104      -1.5912      1.00000
    105      -1.5497      1.00000
    106      -1.4614      1.00000
    107      -1.3407      1.00000
    108      -1.2209      1.00000
    109      -1.1662      1.00000
    110      -0.9668      1.00000
    111      -0.8189      1.00000
    112      -0.7601      1.00000
    113      -0.6649      1.00000
    114      -0.5872      1.00000
    115      -0.5061      1.00000
    116      -0.4559      1.00000
    117      -0.3977      1.00000
    118      -0.2467      1.00000
    119       0.1815      1.00000
    120       0.1963      1.00000
    121       0.2841      1.00000
    122       1.1883      0.00000
    123       1.1926      0.00000
    124       1.3513      0.00000
    125       1.4063      0.00000
    126       1.4219      0.00000
    127       1.5723      0.00000
    128       2.3299      0.00000
    129       2.4979      0.00000
    130       2.6186      0.00000
    131       2.8423      0.00000
    132       2.8632      0.00000
    133       2.9971      0.00000
    134       3.1451      0.00000
    135       3.1567      0.00000
    136       3.2068      0.00000
    137       3.2495      0.00000
    138       3.3488      0.00000
    139       3.3863      0.00000
    140       3.5440      0.00000
    141       3.7150      0.00000
    142       3.8292      0.00000
    143       4.0792      0.00000
    144       4.1768      0.00000
    145       4.1927      0.00000
    146       4.3308      0.00000
    147       4.4901      0.00000
    148       4.5632      0.00000
    149       4.8269      0.00000
    150       4.9056      0.00000
    151       4.9333      0.00000
    152       5.0300      0.00000
    153       5.0988      0.00000
    154       5.1754      0.00000
    155       5.2454      0.00000
    156       5.3598      0.00000
    157       5.7476      0.00000
    158       6.1507      0.00000
    159       6.6219      0.00000
    160       6.9239      0.00000

 k-point     2 :      -0.2500    0.2500    0.2500
  band No.  band energies     occupation 
      1     -36.7552      1.00000
      2     -36.7334      1.00000
      3     -36.6812      1.00000
      4     -36.5994      1.00000
      5     -36.4649      1.00000
      6     -36.4641      1.00000
      7     -35.3848      1.00000
      8     -34.8560      1.00000
      9     -34.8224      1.00000
     10     -34.6064      1.00000
     11     -34.5342      1.00000
     12     -34.3095      1.00000
     13     -34.2765      1.00000
     14     -34.2231      1.00000
     15     -34.1499      1.00000
     16     -34.0148      1.00000
     17     -33.7455      1.00000
     18     -33.6995      1.00000
     19     -33.4679      1.00000
     20     -33.4024      1.00000
     21     -33.3208      1.00000
     22     -33.1624      1.00000
     23     -33.1619      1.00000
     24     -33.1574      1.00000
     25     -24.5510      1.00000
     26     -24.4194      1.00000
     27     -24.2036      1.00000
     28     -24.0545      1.00000
     29     -23.9607      1.00000
     30     -23.9133      1.00000
     31     -23.8399      1.00000
     32     -23.7920      1.00000
     33     -23.7754      1.00000
     34     -23.6398      1.00000
     35     -23.5702      1.00000
     36     -23.4112      1.00000
     37     -23.4014      1.00000
     38     -23.2591      1.00000
     39     -22.8148      1.00000
     40     -22.4918      1.00000
     41     -16.1342      1.00000
     42     -15.7943      1.00000
     43     -15.6190      1.00000
     44     -15.3281      1.00000
     45     -15.2641      1.00000
     46     -15.0747      1.00000
     47     -14.9745      1.00000
     48     -14.6658      1.00000
     49      -8.0786      1.00000
     50      -7.8625      1.00000
     51      -7.7353      1.00000
     52      -7.5192      1.00000
     53      -7.3040      1.00000
     54      -7.2293      1.00000
     55      -7.2012      1.00000
     56      -6.8559      1.00000
     57      -6.7778      1.00000
     58      -6.6906      1.00000
     59      -6.5172      1.00000
     60      -6.5163      1.00000
     61      -6.4543      1.00000
     62      -6.3668      1.00000
     63      -6.3052      1.00000
     64      -6.2861      1.00000
     65      -6.2682      1.00000
     66      -6.1699      1.00000
     67      -6.1373      1.00000
     68      -5.9588      1.00000
     69      -5.8966      1.00000
     70      -5.8067      1.00000
     71      -5.6395      1.00000
     72      -5.5554      1.00000
     73      -5.3256      1.00000
     74      -5.2818      1.00000
     75      -5.2346      1.00000
     76      -5.1764      1.00000
     77      -5.1241      1.00000
     78      -4.9752      1.00000
     79      -4.9307      1.00000
     80      -4.8876      1.00000
     81      -4.8396      1.00000
     82      -4.7960      1.00000
     83      -4.7326      1.00000
     84      -4.6976      1.00000
     85      -4.6390      1.00000
     86      -4.6289      1.00000
     87      -4.5953      1.00000
     88      -4.5182      1.00000
     89      -4.4759      1.00000
     90      -4.4011      1.00000
     91      -4.3388      1.00000
     92      -4.3167      1.00000
     93      -4.1110      1.00000
     94      -3.9222      1.00000
     95      -3.9028      1.00000
     96      -3.7583      1.00000
     97      -3.6157      1.00000
     98      -3.4735      1.00000
     99      -3.2374      1.00000
    100      -3.0720      1.00000
    101      -2.4785      1.00000
    102      -1.7967      1.00000
    103      -1.6810      1.00000
    104      -1.5912      1.00000
    105      -1.5497      1.00000
    106      -1.4613      1.00000
    107      -1.3407      1.00000
    108      -1.2209      1.00000
    109      -1.1662      1.00000
    110      -0.9668      1.00000
    111      -0.8189      1.00000
    112      -0.7601      1.00000
    113      -0.6649      1.00000
    114      -0.5873      1.00000
    115      -0.5061      1.00000
    116      -0.4558      1.00000
    117      -0.3977      1.00000
    118      -0.2467      1.00000
    119       0.1814      1.00000
    120       0.1963      1.00000
    121       0.2841      1.00000
    122       1.1883      0.00000
    123       1.1926      0.00000
    124       1.3513      0.00000
    125       1.4063      0.00000
    126       1.4219      0.00000
    127       1.5723      0.00000
    128       2.3299      0.00000
    129       2.4979      0.00000
    130       2.6186      0.00000
    131       2.8423      0.00000
    132       2.8632      0.00000
    133       2.9971      0.00000
    134       3.1451      0.00000
    135       3.1567      0.00000
    136       3.2068      0.00000
    137       3.2495      0.00000
    138       3.3488      0.00000
    139       3.3863      0.00000
    140       3.5440      0.00000
    141       3.7150      0.00000
    142       3.8292      0.00000
    143       4.0792      0.00000
    144       4.1768      0.00000
    145       4.1927      0.00000
    146       4.3308      0.00000
    147       4.4901      0.00000
    148       4.5632      0.00000
    149       4.8269      0.00000
    150       4.9056      0.00000
    151       4.9333      0.00000
    152       5.0300      0.00000
    153       5.0988      0.00000
    154       5.1754      0.00000
    155       5.2454      0.00000
    156       5.3598      0.00000
    157       5.7476      0.00000
    158       6.1507      0.00000
    159       6.6219      0.00000
    160       6.9239      0.00000

 k-point     3 :       0.2500   -0.2500    0.2500
  band No.  band energies     occupation 
      1     -36.7552      1.00000
      2     -36.7334      1.00000
      3     -36.6812      1.00000
      4     -36.5994      1.00000
      5     -36.4649      1.00000
      6     -36.4641      1.00000
      7     -35.3848      1.00000
      8     -34.8560      1.00000
      9     -34.8224      1.00000
     10     -34.6064      1.00000
     11     -34.5342      1.00000
     12     -34.3095      1.00000
     13     -34.2765      1.00000
     14     -34.2231      1.00000
     15     -34.1499      1.00000
     16     -34.0148      1.00000
     17     -33.7455      1.00000
     18     -33.6995      1.00000
     19     -33.4679      1.00000
     20     -33.4024      1.00000
     21     -33.3208      1.00000
     22     -33.1624      1.00000
     23     -33.1619      1.00000
     24     -33.1574      1.00000
     25     -24.5510      1.00000
     26     -24.4194      1.00000
     27     -24.2036      1.00000
     28     -24.0545      1.00000
     29     -23.9607      1.00000
     30     -23.9133      1.00000
     31     -23.8399      1.00000
     32     -23.7920      1.00000
     33     -23.7754      1.00000
     34     -23.6397      1.00000
     35     -23.5702      1.00000
     36     -23.4112      1.00000
     37     -23.4014      1.00000
     38     -23.2591      1.00000
     39     -22.8148      1.00000
     40     -22.4918      1.00000
     41     -16.1342      1.00000
     42     -15.7943      1.00000
     43     -15.6190      1.00000
     44     -15.3281      1.00000
     45     -15.2641      1.00000
     46     -15.0747      1.00000
     47     -14.9745      1.00000
     48     -14.6658      1.00000
     49      -8.0786      1.00000
     50      -7.8625      1.00000
     51      -7.7353      1.00000
     52      -7.5192      1.00000
     53      -7.3040      1.00000
     54      -7.2293      1.00000
     55      -7.2012      1.00000
     56      -6.8559      1.00000
     57      -6.7777      1.00000
     58      -6.6906      1.00000
     59      -6.5172      1.00000
     60      -6.5162      1.00000
     61      -6.4543      1.00000
     62      -6.3668      1.00000
     63      -6.3052      1.00000
     64      -6.2861      1.00000
     65      -6.2682      1.00000
     66      -6.1699      1.00000
     67      -6.1374      1.00000
     68      -5.9588      1.00000
     69      -5.8966      1.00000
     70      -5.8067      1.00000
     71      -5.6395      1.00000
     72      -5.5554      1.00000
     73      -5.3256      1.00000
     74      -5.2818      1.00000
     75      -5.2346      1.00000
     76      -5.1764      1.00000
     77      -5.1241      1.00000
     78      -4.9752      1.00000
     79      -4.9307      1.00000
     80      -4.8876      1.00000
     81      -4.8396      1.00000
     82      -4.7961      1.00000
     83      -4.7326      1.00000
     84      -4.6976      1.00000
     85      -4.6390      1.00000
     86      -4.6289      1.00000
     87      -4.5953      1.00000
     88      -4.5182      1.00000
     89      -4.4759      1.00000
     90      -4.4010      1.00000
     91      -4.3389      1.00000
     92      -4.3168      1.00000
     93      -4.1110      1.00000
     94      -3.9222      1.00000
     95      -3.9029      1.00000
     96      -3.7583      1.00000
     97      -3.6156      1.00000
     98      -3.4735      1.00000
     99      -3.2375      1.00000
    100      -3.0720      1.00000
    101      -2.4786      1.00000
    102      -1.7972      1.00000
    103      -1.6803      1.00000
    104      -1.5912      1.00000
    105      -1.5497      1.00000
    106      -1.4612      1.00000
    107      -1.3407      1.00000
    108      -1.2210      1.00000
    109      -1.1662      1.00000
    110      -0.9668      1.00000
    111      -0.8188      1.00000
    112      -0.7601      1.00000
    113      -0.6650      1.00000
    114      -0.5872      1.00000
    115      -0.5061      1.00000
    116      -0.4559      1.00000
    117      -0.3977      1.00000
    118      -0.2472      1.00000
    119       0.1815      1.00000
    120       0.1964      1.00000
    121       0.2842      1.00000
    122       1.1883      0.00000
    123       1.1926      0.00000
    124       1.3513      0.00000
    125       1.4063      0.00000
    126       1.4219      0.00000
    127       1.5723      0.00000
    128       2.3299      0.00000
    129       2.4979      0.00000
    130       2.6186      0.00000
    131       2.8423      0.00000
    132       2.8632      0.00000
    133       2.9971      0.00000
    134       3.1450      0.00000
    135       3.1567      0.00000
    136       3.2068      0.00000
    137       3.2495      0.00000
    138       3.3489      0.00000
    139       3.3863      0.00000
    140       3.5440      0.00000
    141       3.7150      0.00000
    142       3.8291      0.00000
    143       4.0792      0.00000
    144       4.1767      0.00000
    145       4.1927      0.00000
    146       4.3308      0.00000
    147       4.4902      0.00000
    148       4.5632      0.00000
    149       4.8268      0.00000
    150       4.9056      0.00000
    151       4.9333      0.00000
    152       5.0300      0.00000
    153       5.0987      0.00000
    154       5.1754      0.00000
    155       5.2455      0.00000
    156       5.3597      0.00000
    157       5.7476      0.00000
    158       6.1508      0.00000
    159       6.6220      0.00000
    160       6.9238      0.00000

 k-point     4 :      -0.2500   -0.2500    0.2500
  band No.  band energies     occupation 
      1     -36.7552      1.00000
      2     -36.7334      1.00000
      3     -36.6812      1.00000
[...]
 -0.000   0.000  -0.000  -0.000  -0.000  -0.000  -0.000  -0.000   0.000  -0.012  -0.000  -0.000  -0.000  -0.000   0.003  -0.000
  0.000  -0.000   0.000  -0.000  -0.000  -0.000  -0.000  -0.000   0.004  -0.000  -0.016   0.000  -0.000   0.001   0.000   0.002
 -0.000  -0.000  -0.000   0.000   0.000   0.000   0.003  -0.000  -0.000  -0.000   0.000   0.006  -0.000   0.000   0.000  -0.000
  0.000   0.000  -0.000   0.000   0.000  -0.000  -0.000  -0.571   0.000  -0.000  -0.000  -0.000  -0.426   0.000  -0.000  -0.000
 -0.000   0.000   0.000   0.000   0.000   0.000   0.000   0.000   0.003  -0.000   0.001   0.000   0.000   0.017  -0.000  -0.009
  0.000  -0.000   0.000  -0.000   0.000  -0.000  -0.000  -0.000  -0.000   0.003   0.000   0.000  -0.000  -0.000   0.007   0.000
  0.000   0.000  -0.000   0.000  -0.000  -0.000   0.000  -0.000   0.001  -0.000   0.002  -0.000  -0.000  -0.009   0.000   0.026
  0.000  -0.000   0.000  -0.000  -0.000   0.000  -0.000   0.000  -0.005  -0.000   0.007   0.000   0.000   0.015   0.000  -0.025
 -0.000  -0.000   0.000  -0.000  -0.000   0.000  -0.000  -0.000  -0.015   0.000   0.023   0.000  -0.000   0.023  -0.000  -0.033


------------------------ aborting loop because EDIFF is reached ----------------------------------------


 


 total charge     
 
# of ion       s       p       d       tot
------------------------------------------
    1        0.241   6.345   1.846   8.432
    2        0.328   6.520   1.749   8.597
    3        0.326   6.517   1.744   8.588
    4        0.285   6.461   1.836   8.582
    5        0.296   6.457   1.749   8.502
    6        0.299   6.438   1.747   8.484
    7        0.290   6.457   1.781   8.529
    8        0.297   6.405   1.609   8.311
    9        1.566   3.401   0.000   4.967
   10        1.566   3.401   0.000   4.967
   11        1.577   3.273   0.000   4.850
   12        1.568   3.430   0.000   4.999
   13        1.566   3.412   0.000   4.978
   14        1.566   3.412   0.000   4.978
   15        1.569   3.405   0.000   4.974
   16        1.569   3.405   0.000   4.974
   17        1.731   4.395   0.000   6.126
   18        1.733   4.377   0.000   6.111
   19        1.733   4.381   0.000   6.114
   20        1.731   4.395   0.000   6.126
   21        1.733   4.377   0.000   6.111
   22        1.733   4.381   0.000   6.114
   23        1.730   4.388   0.000   6.118
   24        1.732   4.380   0.000   6.111
   25        1.730   4.388   0.000   6.118
   26        1.732   4.381   0.000   6.112
   27        1.730   4.389   0.000   6.120
   28        1.729   4.383   0.000   6.113
   29        1.732   4.403   0.000   6.135
   30        1.732   4.403   0.000   6.135
   31        1.734   4.393   0.000   6.127
   32        1.734   4.393   0.000   6.127
--------------------------------------------------
tot         42.618 148.950  14.062 205.630
 


 magnetization (x)
 
# of ion       s       p       d       tot
------------------------------------------
    1       -0.004  -0.006  -0.910  -0.921
    2        0.000   0.000  -0.016  -0.016
    3        0.000   0.000  -0.015  -0.015
    4       -0.000  -0.000   0.004   0.004
    5        0.000  -0.001   0.000  -0.001
    6        0.001   0.004   0.037   0.042
    7        0.000  -0.001   0.008   0.007
    8        0.002   0.003   0.037   0.042
    9       -0.000  -0.004   0.000  -0.004
   10       -0.000  -0.004   0.000  -0.004
   11       -0.008  -0.560   0.000  -0.568
   12        0.000  -0.007   0.000  -0.007
   13       -0.002  -0.074   0.000  -0.075
   14       -0.002  -0.075   0.000  -0.076
   15       -0.001  -0.077   0.000  -0.079
   16       -0.001  -0.077   0.000  -0.078
   17        0.000   0.010   0.000   0.011
   18        0.000  -0.000   0.000  -0.000
   19        0.000   0.000   0.000   0.000
   20        0.000   0.010   0.000   0.011
   21        0.000  -0.000   0.000  -0.000
   22        0.000   0.000   0.000   0.000
   23        0.000  -0.001   0.000  -0.001
   24       -0.000  -0.001   0.000  -0.001
   25        0.000  -0.001   0.000  -0.001
   26       -0.000  -0.001   0.000  -0.001
   27       -0.000  -0.005   0.000  -0.005
   28       -0.000  -0.008   0.000  -0.008
   29        0.000  -0.002   0.000  -0.002
   30        0.000  -0.002   0.000  -0.002
   31       -0.000  -0.000   0.000  -0.000
   32       -0.000  -0.000   0.000  -0.000
--------------------------------------------------
tot         -0.013  -0.878  -0.855  -1.746
 
    CHARGE:  cpu time    0.3679: real time    0.3770
    FORLOC:  cpu time    0.0090: real time    0.0102
    FORNL :  cpu time    2.0127: real time    2.0409
    STRESS:  cpu time    6.2331: real time    6.3822
    FORCOR:  cpu time    0.1350: real time    0.1352
    FORHAR:  cpu time    0.0220: real time    0.0213
    MIXING:  cpu time    0.0010: real time    0.0016
    OFIELD:  cpu time    0.0000: real time    0.0000

  FORCE on cell =-STRESS in cart. coord.  units (eV):
  Direction    XX          YY          ZZ          XY          YZ          ZX
  --------------------------------------------------------------------------------------
  Alpha Z   742.81508   742.81508   742.81508
  Ewald   -4235.74533 -4267.68658 -4077.41529     0.00975     0.27700     0.16836
  Hartree  2760.95069  2766.42346  2877.41122     0.00540     0.14305     0.08829
  E(xc)   -1231.33662 -1231.44768 -1231.75588    -0.00000     0.00003     0.00002
  Local   -2171.70655 -2148.84977 -2474.50865    -0.01523    -0.42489    -0.25347
  n-local  -970.36362  -972.36605  -963.99712     0.00008    -0.00070     0.00136
  augment   748.92750   753.17832   763.76722     0.00015     0.00229     0.00029
  Kinetic  4356.58483  4358.08340  4363.76112    -0.00025     0.00416    -0.00821
  Fock        0.00000     0.00000     0.00000     0.00000     0.00000     0.00000
  -------------------------------------------------------------------------------------
  Total       0.12598     0.15017     0.07771    -0.00010     0.00093    -0.00338
  in kB       0.42818     0.51040     0.26412    -0.00035     0.00317    -0.01147
  external pressure =        0.40 kB  Pullay stress =        0.00 kB


 VOLUME and BASIS-vectors are now :
 -----------------------------------------------------------------------------
  energy-cutoff  :      700.00
  volume of cell :      471.40
      direct lattice vectors                 reciprocal lattice vectors
     7.812493352  0.000008623  0.000168432     0.128000109 -0.000000117 -0.000001710
     0.000007166  7.860721094  0.000150861    -0.000000140  0.127214792 -0.000002453
     0.000102560  0.000147994  7.676112776    -0.000002809 -0.000002500  0.130274272

  length of vectors
     7.812493354  7.860721096  7.676112778     0.128000109  0.127214792  0.130274272


 FORCES acting on ions
    electron-ion (+dipol)            ewald-force                    non-local-force                 convergence-correction
 -----------------------------------------------------------------------------------------------
   0.438E-02 -.600E+00 -.128E-01   -.448E-02 0.599E+00 0.127E-01   -.272E-04 0.506E-03 0.420E-04   0.896E-06 0.140E-03 -.741E-06
   0.669E-02 -.925E+01 0.109E-01   -.706E-02 0.918E+01 -.111E-01   -.157E-04 0.847E-01 -.521E-04   0.468E-05 0.489E-03 -.111E-04
   0.478E-02 0.647E+00 -.292E-01   -.511E-02 -.646E+00 0.311E-01   -.323E-06 -.113E-02 0.126E-03   0.841E-05 -.134E-03 -.563E-04
   0.230E-02 0.755E+01 0.108E-01   -.270E-02 -.743E+01 -.118E-01   -.166E-03 -.112E+00 0.431E-03   0.202E-03 -.693E-04 0.438E-04
   -.271E-02 0.962E+01 0.185E+00   0.280E-02 -.943E+01 -.188E+00   -.619E-04 -.183E+00 0.423E-02   -.560E-05 0.486E-03 0.409E-04
   -.264E-02 -.272E+02 0.252E+00   0.287E-02 0.269E+02 -.242E+00   -.806E-04 0.268E+00 -.812E-02   -.144E-04 0.313E-02 -.248E-04
   -.537E-02 -.126E+02 -.658E-01   0.553E-02 0.124E+02 0.659E-01   -.274E-04 0.236E+00 -.991E-04   -.119E-04 -.284E-03 -.213E-03
   -.140E-01 0.198E+02 0.323E-01   0.140E-01 -.195E+02 -.326E-01   0.291E-03 -.382E+00 -.234E-03   -.154E-03 -.332E-02 0.189E-03
   -.114E+03 0.396E+01 0.126E-01   0.120E+03 -.398E+01 -.131E-01   -.548E+01 0.206E-01 0.442E-03   0.120E-02 -.644E-03 0.569E-04
   0.114E+03 0.396E+01 0.832E-02   -.120E+03 -.398E+01 -.852E-02   0.548E+01 0.206E-01 0.332E-03   -.116E-02 -.646E-03 0.543E-04
   -.487E-02 -.303E+02 0.667E-01   0.529E-02 0.307E+02 -.724E-01   -.425E-03 -.370E+00 0.570E-02   -.303E-04 -.140E-02 0.258E-04
   -.565E-02 0.598E+02 0.100E+00   0.608E-02 -.638E+02 -.108E+00   -.452E-03 0.398E+01 0.761E-02   -.342E-04 0.214E-02 0.277E-04
   -.723E-02 -.140E+02 -.559E+02   0.720E-02 0.145E+02 0.585E+02   0.110E-03 -.562E+00 -.264E+01   -.568E-05 0.507E-03 0.159E-02
   0.448E-02 -.140E+02 0.550E+02   -.433E-02 0.146E+02 -.575E+02   -.246E-03 -.568E+00 0.255E+01   -.673E-05 0.503E-03 -.156E-02
   -.973E-02 0.903E+01 -.841E+02   0.102E-01 -.921E+01 0.879E+02   -.483E-03 0.180E+00 -.384E+01   -.330E-04 -.358E-03 0.592E-03
   -.104E-02 0.900E+01 0.841E+02   0.124E-02 -.918E+01 -.880E+02   -.223E-03 0.178E+00 0.384E+01   -.304E-04 -.360E-03 -.615E-03
   -.565E+02 0.230E+01 0.363E-01   0.627E+02 -.252E+01 -.446E-01   -.626E+01 0.219E+00 0.814E-02   0.179E-03 0.228E-03 0.391E-04
   -.127E+03 -.976E+01 0.903E-01   0.138E+03 0.106E+02 -.998E-01   -.113E+02 -.875E+00 0.928E-02   0.140E-02 0.809E-03 -.117E-04
   -.100E+03 -.199E+01 -.287E-01   0.110E+03 0.207E+01 0.313E-01   -.967E+01 -.679E-01 -.261E-02   -.109E-03 -.341E-03 -.280E-04
   0.565E+02 0.230E+01 0.534E-01   -.627E+02 -.252E+01 -.634E-01   0.626E+01 0.219E+00 0.989E-02   -.177E-03 0.224E-03 -.147E-04
   0.127E+03 -.976E+01 0.622E-01   -.138E+03 0.106E+02 -.682E-01   0.113E+02 -.875E+00 0.592E-02   -.139E-02 0.810E-03 -.136E-04
   0.100E+03 -.199E+01 -.147E-01   -.110E+03 0.207E+01 0.144E-01   0.966E+01 -.683E-01 0.375E-03   0.117E-03 -.340E-03 -.368E-04
   0.392E-02 0.530E+02 -.939E-02   -.441E-02 -.593E+02 0.111E-01   0.519E-03 0.628E+01 -.182E-02   0.127E-05 -.146E-03 0.484E-05
   0.155E-02 -.852E+02 -.519E-03   -.155E-02 0.940E+02 0.429E-03   -.242E-04 -.871E+01 0.133E-03   0.282E-04 -.113E-02 -.374E-05
   0.267E-02 -.531E+02 -.193E-01   -.278E-02 0.594E+02 0.201E-01   0.111E-03 -.629E+01 -.875E-03   -.135E-06 0.146E-03 0.264E-05
   0.244E-02 0.863E+02 0.128E-01   -.256E-02 -.952E+02 -.126E-01   0.110E-03 0.890E+01 -.209E-03   0.287E-04 0.452E-03 -.196E-05
   0.690E-03 -.875E+01 0.554E-01   -.119E-02 0.965E+01 -.687E-01   0.511E-03 -.898E+00 0.131E-01   -.338E-05 -.507E-03 -.287E-04
   -.323E-02 0.921E+01 0.497E-01   0.358E-02 -.977E+01 -.612E-01   -.379E-03 0.555E+00 0.115E-01   -.337E-05 0.292E-03 -.281E-04
   0.265E-01 -.241E+01 0.422E+02   -.297E-01 0.242E+01 -.475E+02   0.330E-02 -.277E-02 0.526E+01   0.255E-04 0.279E-04 0.185E-03
   -.195E-01 -.241E+01 -.422E+02   0.222E-01 0.241E+01 0.475E+02   -.269E-02 -.541E-03 -.527E+01   -.242E-04 0.258E-04 -.167E-03
   0.116E-01 0.278E+01 -.854E+02   -.124E-01 -.290E+01 0.942E+02   0.666E-03 0.104E+00 -.889E+01   0.338E-04 0.670E-04 -.490E-03
   -.755E-02 0.279E+01 0.854E+02   0.817E-02 -.290E+01 -.943E+02   -.534E-03 0.103E+00 0.889E+01   0.278E-04 0.641E-04 0.396E-03
 -----------------------------------------------------------------------------------------------
   -.887E-03 -.138E+01 0.282E-01   0.127E-12 0.391E-13 0.114E-12   0.737E-03 0.138E+01 -.281E-01   0.530E-04 0.851E-03 -.462E-04
 
 
 POSITION                                       TOTAL-FORCE (eV/Angst)
 -----------------------------------------------------------------------------------
      7.81259      0.00032      7.67625        -0.000118      0.000338     -0.000016
      0.00006      0.00272      3.83803        -0.000379      0.008928     -0.000232
      0.00012      3.93063      7.67615        -0.000323     -0.000220      0.001988
      0.00006      3.93515      3.83814        -0.000361      0.008030     -0.000493
      3.90624      0.01765      0.00067         0.000021      0.000699      0.001034
      3.90630      7.74823      3.83900         0.000136     -0.003240      0.001165
      3.90636      3.92679      7.67625         0.000118      0.001160     -0.000214
      3.90626      3.97326      3.83826         0.000169     -0.002536     -0.000333
      1.83070      3.95409      3.83818         0.000014     -0.000271      0.000016
      5.98192      3.95409      3.83830         0.000212     -0.000274      0.000182
      3.90630      1.92241      3.83820        -0.000038     -0.000243      0.000028
      3.90631      5.93200      3.83818        -0.000047     -0.003268     -0.000061
      3.90627      0.04238      1.86755         0.000077     -0.005434     -0.001635
      3.90631      0.04266      5.80821        -0.000100     -0.005358      0.001162
      3.90630      3.89275      1.84649        -0.000027     -0.004127      0.001213
      3.90632      3.89300      5.82998        -0.000053     -0.003915     -0.001177
      1.89973      7.85863      7.67624        -0.000297     -0.002475     -0.000060
      1.85728      7.84978      3.83808        -0.001020     -0.006373     -0.000230
      1.86902      3.93409      0.00017        -0.000792      0.008682     -0.000111
      5.91297      7.85866      7.67625         0.000341     -0.002463     -0.000178
      5.95532      7.84978      3.83831         0.001343     -0.006364     -0.000151
      5.94359      3.93426      7.67628         0.001012      0.008655      0.000068
      7.81249      2.02416      0.00023         0.000040      0.000670     -0.000080
      0.00006      1.88944      3.83809         0.000009      0.004634      0.000037
      0.00011      5.83680      7.67621         0.000002     -0.000008     -0.000044
      0.00006      5.97953      3.83818         0.000016      0.005916     -0.000009
      3.90633      1.96422      7.67606         0.000010     -0.000583     -0.000157
      3.90636      5.90760      7.67615        -0.000024     -0.000106     -0.000075
      7.81242      0.00219      1.96255         0.000082      0.006428      0.000234
      0.00017      0.00217      5.71366        -0.000053      0.006447     -0.000326
      7.81251      3.92710      1.85012        -0.000090     -0.006666     -0.001522
      0.00011      3.92720      5.82634         0.000119     -0.006660     -0.000025
 -----------------------------------------------------------------------------------
    total drift:                               -0.000097      0.001714      0.000060


--------------------------------------------------------------------------------------------------------



  FREE ENERGIE OF THE ION-ELECTRON SYSTEM (eV)
  ---------------------------------------------------
  free  energy   TOTEN  =      -206.64384663 eV

  energy  without entropy=     -206.64384663  energy(sigma->0) =     -206.64384663
 


--------------------------------------------------------------------------------------------------------


    POTLOK:  cpu time    0.9669: real time    0.9713


--------------------------------------------------------------------------------------------------------


 stress matrix after NEB project (eV)
      0.12598     -0.00010     -0.00338
     -0.00010      0.15017      0.00093
     -0.00338      0.00093      0.07771
  FORCES: max atom, RMS     0.008939    0.004870
  FORCE total and by dimension    0.027546    0.008928
  Stress total and by dimension    0.210921    0.150175
 Quasi-Newton relaxation of ions (Broydens 2nd method)
  g(Force)  = 0.366E-04   g(Stress)= 0.671E-04

 Reset! Starting new Quasi-Newton update for ions 


--------------------------------------------------------------------------------------------------------


  
 reached required accuracy - stopping structural energy minimisation
 writing wavefunctions
     LOOP+:  cpu time   47.9427: real time   93.5717
    4ORBIT:  cpu time    0.0000: real time    0.0000
 


 total charge     
 
# of ion       s       p       d       tot
------------------------------------------
    1        0.241   6.345   1.846   8.432
    2        0.328   6.520   1.749   8.597
    3        0.326   6.517   1.744   8.588
    4        0.285   6.461   1.836   8.582
    5        0.296   6.457   1.749   8.502
    6        0.299   6.438   1.747   8.484
    7        0.290   6.457   1.781   8.529
    8        0.297   6.405   1.609   8.311
    9        1.566   3.401   0.000   4.967
   10        1.566   3.401   0.000   4.967
   11        1.577   3.273   0.000   4.850
   12        1.568   3.430   0.000   4.999
   13        1.566   3.412   0.000   4.978
   14        1.566   3.412   0.000   4.978
   15        1.569   3.405   0.000   4.974
   16        1.569   3.405   0.000   4.974
   17        1.731   4.395   0.000   6.126
   18        1.733   4.377   0.000   6.111
   19        1.733   4.381   0.000   6.114
   20        1.731   4.395   0.000   6.126
   21        1.733   4.377   0.000   6.111
   22        1.733   4.381   0.000   6.114
   23        1.730   4.388   0.000   6.118
   24        1.732   4.380   0.000   6.111
   25        1.730   4.388   0.000   6.118
   26        1.732   4.381   0.000   6.112
   27        1.730   4.389   0.000   6.120
   28        1.729   4.383   0.000   6.113
   29        1.732   4.403   0.000   6.135
   30        1.732   4.403   0.000   6.135
   31        1.734   4.393   0.000   6.127
   32        1.734   4.393   0.000   6.127
--------------------------------------------------
tot         42.618 148.950  14.062 205.630
 


 magnetization (x)
 
# of ion       s       p       d       tot
------------------------------------------
    1       -0.004  -0.006  -0.910  -0.921
    2        0.000   0.000  -0.016  -0.016
    3        0.000   0.000  -0.015  -0.015
    4       -0.000  -0.000   0.004   0.004
    5        0.000  -0.001   0.000  -0.001
    6        0.001   0.004   0.037   0.042
    7        0.000  -0.001   0.008   0.007
    8        0.002   0.003   0.037   0.042
    9       -0.000  -0.004   0.000  -0.004
   10       -0.000  -0.004   0.000  -0.004
   11       -0.008  -0.560   0.000  -0.568
   12        0.000  -0.007   0.000  -0.007
   13       -0.002  -0.074   0.000  -0.075
   14       -0.002  -0.075   0.000  -0.076
   15       -0.001  -0.077   0.000  -0.079
   16       -0.001  -0.077   0.000  -0.078
   17        0.000   0.010   0.000   0.011
   18        0.000  -0.000   0.000  -0.000
   19        0.000   0.000   0.000   0.000
   20        0.000   0.010   0.000   0.011
   21        0.000  -0.000   0.000  -0.000
   22        0.000   0.000   0.000   0.000
   23        0.000  -0.001   0.000  -0.001
   24       -0.000  -0.001   0.000  -0.001
   25        0.000  -0.001   0.000  -0.001
   26       -0.000  -0.001   0.000  -0.001
   27       -0.000  -0.005   0.000  -0.005
   28       -0.000  -0.008   0.000  -0.008
   29        0.000  -0.002   0.000  -0.002
   30        0.000  -0.002   0.000  -0.002
   31       -0.000  -0.000   0.000  -0.000
   32       -0.000  -0.000   0.000  -0.000
--------------------------------------------------
tot         -0.013  -0.878  -0.855  -1.746
 

 total amount of memory used by VASP MPI-rank0    62223. kBytes
=======================================================================

   base      :      30000. kBytes
   nonlr-proj:       8421. kBytes
   fftplans  :       8424. kBytes
   grid      :       8783. kBytes
   one-center:        124. kBytes
   wavefun   :       6471. kBytes
 
  
  
 General timing and accounting informations for this job:
 ========================================================
  
                  Total CPU time used (sec):       71.910
                            User time (sec):       67.955
                          System time (sec):        3.955
                         Elapsed time (sec):      186.472
  
                   Maximum memory used (kb):      171660.
                   Average memory used (kb):           0.
  
                          Minor page faults:       113546
                          Major page faults:           14
                 Voluntary context switches:        31147
