LTO                                     
           1
     7.812493    0.000009    0.000168
     0.000007    7.860721    0.000151
     0.000103    0.000148    7.676113
   Ti   O    F 
   8   8  16
Direct configuration=     1
   0.99999960  0.00002082  0.99999619
   0.00000096  0.00033643  0.49999686
   0.00000179  0.50001555  0.99999495
   0.00000011  0.50059998  0.50000106
   0.49999905  0.00224450  0.00007647
   0.49999968  0.98567952  0.50009320
   0.50000068  0.49952698  0.99999718
   0.49999526  0.50544735  0.50000516
   0.23432325  0.50300900  0.50000121
   0.76567931  0.50300872  0.50000463
   0.50000054  0.24454893  0.50000262
   0.50000040  0.75462882  0.49999070
   0.49999954  0.00538587  0.24328216
   0.49999881  0.00541263  0.75664875
   0.50000267  0.49521022  0.24052968
   0.49999842  0.49523191  0.75947565
   0.24315208  0.99971478  0.99999180
   0.23772484  0.99859831  0.49997857
   0.23923433  0.50047480  0.00000646
   0.75684637  0.99971801  0.99998174
   0.76227439  0.99859848  0.49999683
   0.76076676  0.50047618  0.99999485
   0.99999910  0.25750244  0.00000327
   0.00000125  0.24035478  0.49999906
   0.00000053  0.74250889  0.99999832
   0.00000071  0.76067502  0.50000114
   0.49999686  0.24985876  0.99997661
   0.50000129  0.75151511  0.99997930
   0.99998721  0.00027248  0.25564831
   0.00001163  0.00026172  0.74434324
   0.99999834  0.49957932  0.24099158
   0.00000424  0.49958369  0.75901248
