 vasp.5.4.4.18Apr17-6-g9f103f2a35 (build Jul 16 2019 12:12:28) complex          
  
 executed on             LinuxIFC date 2020.01.06  10:19:33
 running on   96 total cores
 distrk:  each k-point on   96 cores,    1 groups
 distr:  one band on NCORES_PER_BAND=   8 cores,   12 groups


--------------------------------------------------------------------------------------------------------


 INCAR:
 POTCAR:    PAW_PBE Li_sv 10Sep2004               
 POTCAR:    PAW_PBE Ti_pv 07Sep2000               
 POTCAR:    PAW_PBE O 08Apr2002                   
 POTCAR:    PAW_PBE F 08Apr2002                   
 POTCAR:    PAW_PBE Li_sv 10Sep2004               
   VRHFIN =Li: 1s2s2p                                                           
   LEXCH  = PE                                                                  
   EATOM  =   202.7858 eV,   14.9043 Ry                                         
                                                                                
   TITEL  = PAW_PBE Li_sv 10Sep2004                                             
   LULTRA =        F    use ultrasoft PP ?                                      
   IUNSCR =        0    unscreen: 0-lin 1-nonlin 2-no                           
   RPACOR =    0.000    partial core radius                                     
   POMASS =    7.010; ZVAL   =    3.000    mass and valenz                      
   RCORE  =    1.700    outmost cutoff radius                                   
   RWIGS  =    2.050; RWIGS  =    1.085    wigner-seitz radius (au A)           
   ENMAX  =  499.034; ENMIN  =  374.276 eV                                      
   ICORE  =        2    local potential                                         
   LCOR   =        T    correct aug charges                                     
   LPAW   =        T    paw PP                                                  
   EAUG   =  628.945                                                            
   RMAX   =    1.732    core radius for proj-oper                               
   RAUG   =    1.300    factor for augmentation sphere                          
   RDEP   =    1.728    radius for radial grids                                 
   RDEPT  =    1.329    core radius for aug-charge                              
                                                                                
   Atomic configuration                                                         
    4 entries                                                                   
     n  l   j            E        occ.                                          
     1  0  0.50       -51.8549   2.0000                                         
     2  0  0.50        -2.8742   1.0000                                         
     2  1  0.50        -1.3606   0.0000                                         
     3  2  1.50        -1.3606   0.0000                                         
   Description                                                                  
     l       E           TYP  RCUT    TYP  RCUT                                 
     0    -51.8548813     23  1.400                                             
     0     -2.8742052     23  1.700                                             
     1     -1.3605826     23  1.400                                             
     2     -1.3605826     23  1.400                                             
  local pseudopotential read in
  atomic valenz-charges read in
  non local Contribution for L=           0  read in
    real space projection operators read in
  non local Contribution for L=           0  read in
    real space projection operators read in
  non local Contribution for L=           1  read in
    real space projection operators read in
    PAW grid and wavefunctions read in
 
   number of l-projection  operators is LMAX  =           3
   number of lm-projection operators is LMMAX =           5
 
 POTCAR:    PAW_PBE Ti_pv 07Sep2000               
   VRHFIN =Ti: d3 s1                                                            
   LEXCH  = PE                                                                  
   EATOM  =  1042.5995 eV,   76.6289 Ry                                         
                                                                                
   TITEL  = PAW_PBE Ti_pv 07Sep2000                                             
   LULTRA =        F    use ultrasoft PP ?                                      
   IUNSCR =        1    unscreen: 0-lin 1-nonlin 2-no                           
   RPACOR =    2.200    partial core radius                                     
   POMASS =   47.880; ZVAL   =   10.000    mass and valenz                      
   RCORE  =    2.500    outmost cutoff radius                                   
   RWIGS  =    2.500; RWIGS  =    1.323    wigner-seitz radius (au A)           
   ENMAX  =  222.335; ENMIN  =  166.751 eV                                      
   RCLOC  =    1.701    cutoff for local pot                                    
   LCOR   =        T    correct aug charges                                     
   LPAW   =        T    paw PP                                                  
   EAUG   =  482.848                                                            
   DEXC   =    0.000                                                            
   RMAX   =    2.564    core radius for proj-oper                               
   RAUG   =    1.300    factor for augmentation sphere                          
   RDEP   =    2.538    radius for radial grids                                 
   RDEPT  =    1.952    core radius for aug-charge                              
                                                                                
   Atomic configuration                                                         
    8 entries                                                                   
     n  l   j            E        occ.                                          
     1  0  0.50     -4865.3608   2.0000                                         
     2  0  0.50      -533.1368   2.0000                                         
     2  1  1.50      -440.5031   6.0000                                         
     3  0  0.50       -59.3186   2.0000                                         
     3  1  1.50       -35.7012   6.0000                                         
     3  2  2.50        -1.9157   3.0000                                         
     4  0  0.50        -3.7291   1.0000                                         
     4  3  2.50        -1.3606   0.0000                                         
   Description                                                                  
     l       E           TYP  RCUT    TYP  RCUT                                 
     1    -35.7012140     23  2.300                                             
     1     -1.3605826     23  2.300                                             
     2     -1.9156996     23  2.500                                             
     2     -0.4063033     23  2.500                                             
     0     -3.7290856     23  2.500                                             
     0     20.4087390     23  2.500                                             
  local pseudopotential read in
  partial core-charges read in
  partial kinetic energy density read in
  atomic valenz-charges read in
  non local Contribution for L=           1  read in
    real space projection operators read in
  non local Contribution for L=           1  read in
    real space projection operators read in
  non local Contribution for L=           2  read in
    real space projection operators read in
  non local Contribution for L=           2  read in
    real space projection operators read in
  non local Contribution for L=           0  read in
    real space projection operators read in
  non local Contribution for L=           0  read in
    real space projection operators read in
    PAW grid and wavefunctions read in
 
   number of l-projection  operators is LMAX  =           6
   number of lm-projection operators is LMMAX =          18
 
 POTCAR:    PAW_PBE O 08Apr2002                   
   VRHFIN =O: s2p4                                                              
   LEXCH  = PE                                                                  
   EATOM  =   432.3788 eV,   31.7789 Ry                                         
                                                                                
   TITEL  = PAW_PBE O 08Apr2002                                                 
   LULTRA =        F    use ultrasoft PP ?                                      
   IUNSCR =        1    unscreen: 0-lin 1-nonlin 2-no                           
   RPACOR =    1.200    partial core radius                                     
   POMASS =   16.000; ZVAL   =    6.000    mass and valenz                      
   RCORE  =    1.520    outmost cutoff radius                                   
   RWIGS  =    1.550; RWIGS  =    0.820    wigner-seitz radius (au A)           
   ENMAX  =  400.000; ENMIN  =  300.000 eV                                      
   ICORE  =        2    local potential                                         
   LCOR   =        T    correct aug charges                                     
   LPAW   =        T    paw PP                                                  
   EAUG   =  605.392                                                            
   DEXC   =    0.000                                                            
   RMAX   =    1.553    core radius for proj-oper                               
   RAUG   =    1.300    factor for augmentation sphere                          
   RDEP   =    1.550    radius for radial grids                                 
   RDEPT  =    1.329    core radius for aug-charge                              
                                                                                
   Atomic configuration                                                         
    4 entries                                                                   
     n  l   j            E        occ.                                          
     1  0  0.50      -514.6923   2.0000                                         
     2  0  0.50       -23.9615   2.0000                                         
     2  1  0.50        -9.0305   4.0000                                         
     3  2  1.50        -9.5241   0.0000                                         
   Description                                                                  
     l       E           TYP  RCUT    TYP  RCUT                                 
     0    -23.9615318     23  1.200                                             
     0     -9.5240782     23  1.200                                             
     1     -9.0304911     23  1.520                                             
     1      8.1634956     23  1.520                                             
     2     -9.5240782      7  1.500                                             
  local pseudopotential read in
  partial core-charges read in
  partial kinetic energy density read in
  kinetic energy density of atom read in
  atomic valenz-charges read in
  non local Contribution for L=           0  read in
    real space projection operators read in
  non local Contribution for L=           0  read in
    real space projection operators read in
  non local Contribution for L=           1  read in
    real space projection operators read in
  non local Contribution for L=           1  read in
    real space projection operators read in
    PAW grid and wavefunctions read in
 
   number of l-projection  operators is LMAX  =           4
   number of lm-projection operators is LMMAX =           8
 
 POTCAR:    PAW_PBE F 08Apr2002                   
   VRHFIN =F: s2p5                                                              
   LEXCH  = PE                                                                  
   EATOM  =   659.6475 eV,   48.4827 Ry                                         
                                                                                
   TITEL  = PAW_PBE F 08Apr2002                                                 
   LULTRA =        F    use ultrasoft PP ?                                      
   IUNSCR =        1    unscreen: 0-lin 1-nonlin 2-no                           
   RPACOR =    1.200    partial core radius                                     
   POMASS =   18.998; ZVAL   =    7.000    mass and valenz                      
   RCORE  =    1.520    outmost cutoff radius                                   
   RWIGS  =    1.500; RWIGS  =    0.794    wigner-seitz radius (au A)           
   ENMAX  =  400.000; ENMIN  =  300.000 eV                                      
   ICORE  =        2    local potential                                         
   LCOR   =        T    correct aug charges                                     
   LPAW   =        T    paw PP                                                  
   EAUG   =  613.614                                                            
   RMAX   =    1.555    core radius for proj-oper                               
   RAUG   =    1.300    factor for augmentation sphere                          
   RDEP   =    1.539    radius for radial grids                                 
   RDEPT  =    1.299    core radius for aug-charge                              
                                                                                
   Atomic configuration                                                         
    4 entries                                                                   
     n  l   j            E        occ.                                          
     1  0  0.50      -663.3661   2.0000                                         
     2  0  0.50       -29.8995   2.0000                                         
     2  1  0.50       -11.1114   5.0000                                         
     3  2  1.50       -10.8847   0.0000                                         
   Description                                                                  
     l       E           TYP  RCUT    TYP  RCUT                                 
     0    -29.8995018     23  1.200                                             
     0     -9.5240782     23  1.200                                             
     1    -11.1113914     23  1.520                                             
     1      1.3605826     23  1.520                                             
     2    -10.8846608      7  1.500                                             
  local pseudopotential read in
  partial core-charges read in
  partial kinetic energy density read in
  atomic valenz-charges read in
  non local Contribution for L=           0  read in
    real space projection operators read in
  non local Contribution for L=           0  read in
    real space projection operators read in
  non local Contribution for L=           1  read in
    real space projection operators read in
  non local Contribution for L=           1  read in
    real space projection operators read in
    PAW grid and wavefunctions read in
 
   number of l-projection  operators is LMAX  =           4
   number of lm-projection operators is LMMAX =           8
 
 Optimization of the real space projectors (new method)

 maximal supplied QI-value         = 22.11
 optimisation between [QCUT,QGAM] = [ 11.28, 22.77] = [ 35.61,145.23] Ry 
 Optimized for a Real-space Cutoff    1.31 Angstroem

   l    n(q)    QCUT    max X(q) W(low)/X(q) W(high)/X(q)  e(spline) 
   0      9    11.276    10.506    0.19E-04    0.17E-04    0.32E-07
   0      9    11.276     8.367    0.38E-04    0.40E-04    0.65E-07
   1      8    11.276     8.983    0.55E-04    0.98E-04    0.20E-06
 Optimization of the real space projectors (new method)

 maximal supplied QI-value         = 15.12
 optimisation between [QCUT,QGAM] = [ 11.34, 22.83] = [ 36.00,145.93] Ry 
 Optimized for a Real-space Cutoff    1.56 Angstroem

   l    n(q)    QCUT    max X(q) W(low)/X(q) W(high)/X(q)  e(spline) 
   1     10    11.338     4.216    0.27E-04    0.12E-04    0.66E-07
   1     10    11.338     5.422    0.81E-04    0.24E-04    0.19E-06
   2     10    11.338    72.084    0.64E-04    0.21E-03    0.51E-06
   2     10    11.338    65.965    0.63E-04    0.21E-03    0.50E-06
   0     11    11.338    41.531    0.33E-04    0.54E-04    0.13E-06
   0     11    11.338    16.290    0.26E-04    0.41E-04    0.11E-06
 Optimization of the real space projectors (new method)

 maximal supplied QI-value         = 24.76
 optimisation between [QCUT,QGAM] = [ 11.39, 22.77] = [ 36.31,145.25] Ry 
 Optimized for a Real-space Cutoff    1.20 Angstroem

   l    n(q)    QCUT    max X(q) W(low)/X(q) W(high)/X(q)  e(spline) 
   0      8    11.387    20.381    0.89E-04    0.31E-03    0.27E-06
   0      8    11.387    15.268    0.93E-04    0.32E-03    0.29E-06
   1      8    11.387     5.964    0.53E-04    0.28E-03    0.29E-06
   1      8    11.387     5.382    0.37E-04    0.22E-03    0.26E-06
 Optimization of the real space projectors (new method)

 maximal supplied QI-value         = 24.76
 optimisation between [QCUT,QGAM] = [ 11.39, 22.77] = [ 36.31,145.25] Ry 
 Optimized for a Real-space Cutoff    1.20 Angstroem

   l    n(q)    QCUT    max X(q) W(low)/X(q) W(high)/X(q)  e(spline) 
   0      8    11.387    14.049    0.69E-04    0.23E-03    0.18E-06
   0      8    11.387     8.945    0.88E-04    0.30E-03    0.26E-06
   1      8    11.387     7.086    0.62E-04    0.27E-03    0.27E-06
   1      8    11.387     6.747    0.46E-04    0.23E-03    0.25E-06

 ----------------------------------------------------------------------------- 
|                                                                             |
|  ADVICE TO THIS USER RUNNING 'VASP/VAMP'   (HEAR YOUR MASTER'S VOICE ...):  |
|                                                                             |
|      You enforced a specific xc-type in the INCAR file,                     |
|      a different type was found on the POTCAR file                          |
|          I HOPE YOU KNOW, WHAT YOU ARE  DOING                               |
|                                                                             |
 ----------------------------------------------------------------------------- 

  PAW_PBE Li_sv 10Sep2004               :
 energy of atom  1       EATOM= -202.7858
 kinetic energy error for atom=    0.0143 (will be added to EATOM!!)
  PAW_PBE Ti_pv 07Sep2000               :
 energy of atom  2       EATOM=-1042.5995
 kinetic energy error for atom=    0.0024 (will be added to EATOM!!)
  PAW_PBE O 08Apr2002                   :
 energy of atom  3       EATOM= -432.3788
 kinetic energy error for atom=    0.0224 (will be added to EATOM!!)
  PAW_PBE F 08Apr2002                   :
 energy of atom  4       EATOM= -659.6475
 kinetic energy error for atom=    0.0354 (will be added to EATOM!!)
 
 
 POSCAR: config 10                               
  positions in direct lattice
  velocities in cartesian coordinates
 exchange correlation table for  LEXCH =       14
   RHO(1)=    0.500       N(1)  =     2000
   RHO(2)=  100.500       N(2)  =     4000

 VTST: version 3.2, (02/03/18)

 CHAIN: initializing optimizer
 
 OPT: Using VASP QUASI-newton optimizer
 CHAIN: Read ICHAIN            0
 
 POSCAR: config 10                               
  positions in direct lattice
  velocities in cartesian coordinates
 


--------------------------------------------------------------------------------------------------------


 ion  position               nearest neighbor table
   1  0.147  0.656  0.369-  85 2.03  97 2.04  60 2.81
   2  0.996  0.995  0.995- 118 1.85  68 1.89 103 1.89 171 2.02 212 2.04 130 2.05
   3  1.000  0.992  0.493- 119 1.82  67 1.82 172 1.95 193 1.96 131 2.01 213 2.08
   4  0.006  0.495  0.998-  89 1.84 117 1.86 138 1.93 132 1.99 214 2.01 194 2.02
   5  0.993  0.502  0.508-  66 1.82 104 1.83 215 1.94 223 1.99 173 2.03 137 2.03
   6  0.494  0.994  0.999- 101 1.83 121 1.85 140 1.95 133 1.97 216 2.02 174 2.03
   7  0.501  0.008  0.500- 112 1.77 191 1.91 134 1.91 139 1.92 175 1.93 225 2.02
   8  0.504  0.496  0.996- 120 1.88  70 1.88  90 1.89 192 2.03 135 2.04 217 2.05
   9  0.491  0.499  0.495- 102 1.81  69 1.85 224 1.97 218 1.99 136 2.01 176 2.06
  10  0.007  0.003  0.256-  91 1.82  67 1.87 219 1.95 227 1.97 130 1.99 197 2.06
  11  0.001  0.008  0.757-  68 1.79 113 1.84 177 1.95 198 1.99 228 2.04 131 2.06
  12  0.992  0.492  0.251- 107 1.82 122 1.86 137 1.94 132 1.96 220 2.00 178 2.04
  13  0.992  0.499  0.742- 108 1.82  66 1.83 226 1.93 221 1.96 138 2.02 179 2.04
  14  0.506  0.009  0.250- 114 1.82  92 1.84 133 1.92 139 1.97 195 2.00 231 2.04
  15  0.493  0.005  0.752- 105 1.81 115 1.84 140 1.93 134 2.00 232 2.01 180 2.03
  16  0.493  0.496  0.258-  69 1.83 106 1.84 229 1.96 222 2.00 135 2.02 181 2.04
  17  0.500  0.504  0.759-  70 1.80 116 1.87 182 1.95 196 1.97 230 2.03 136 2.07
  18  0.995  0.257  0.001- 117 1.82 110 1.88 141 1.96 146 1.97 183 2.00 212 2.01
  19  0.999  0.248  0.491-  74 1.77 213 1.91 184 1.93 202 1.93 223 1.95 142 2.01
  20  0.999  0.757  0.008- 118 1.82  71 1.83 203 1.95 185 1.97 214 2.06 148 2.07
  21  0.996  0.757  0.508-  72 1.82 119 1.82 204 1.94 186 1.99 147 2.02 215 2.04
  22  0.495  0.258  0.001- 120 1.80 109 1.84 150 1.96 143 1.97 187 2.03 216 2.06
  23  0.508  0.246  0.499-  93 1.80 112 1.90 144 1.92 149 1.94 224 1.97 199 2.00
  24  0.508  0.756  0.999-  94 1.83 121 1.84 152 1.94 145 1.98 217 2.01 200 2.02
  25  0.508  0.753  0.509-  73 1.79  95 1.83 225 1.96 218 1.96 201 2.01 151 2.06
  26  0.000  0.258  0.255- 122 1.79  74 1.89 209 1.95 188 1.96 141 1.98 219 2.02
  27  0.006  0.242  0.747- 113 1.80  96 1.83 142 1.96 146 1.97 226 2.05 210 2.05
  28  0.008  0.747  0.246-  97 1.78  71 1.84 220 1.98 227 1.99 147 2.06 211 2.08
  29  0.993  0.750  0.745- 111 1.82  72 1.86 228 1.93 221 1.98 148 2.00 189 2.02
  30  0.508  0.242  0.252-  98 1.82 114 1.82 143 1.93 149 1.96 229 2.01 205 2.03
  31  0.507  0.243  0.750-  99 1.84 115 1.84 150 1.93 144 1.97 206 2.01 230 2.02
  32  0.509  0.751  0.252- 100 1.79 151 1.92 231 1.94 145 1.94 222 1.95 207 1.96
  33  0.502  0.742  0.744- 116 1.80  73 1.84 190 1.93 208 1.97 152 2.02 232 2.06
  34  0.257  0.999  0.006-  75 1.84 101 1.86 246 1.93 233 1.97 171 2.01 157 2.05
  35  0.250  0.994  0.506- 128 1.83  76 1.84 172 1.94 191 1.99 156 2.01 234 2.02
  36  0.243  0.508  0.998- 123 1.82  89 1.84 159 1.94 153 1.98 192 2.02 245 2.03
  37  0.254  0.494  0.507-  77 1.85 102 1.87 127 1.87 173 2.04 235 2.05 158 2.09
  38  0.757  0.000  0.994- 103 1.79  81 1.87 236 1.96 249 1.96 154 2.05 174 2.05
  39  0.750  0.006  0.494-  80 1.83 124 1.84 193 1.93 175 1.99 155 1.99 250 2.03
  40  0.742  0.500  0.005-  90 1.80  78 1.87 237 1.95 247 1.96 161 2.03 194 2.05
  41  0.754  0.498  0.506-  79 1.84 104 1.86 248 1.95 238 1.98 176 2.01 160 2.02
  42  0.245  0.004  0.244-  75 1.84  91 1.85 252 1.92 239 1.94 156 2.04 195 2.07
  43  0.258  0.998  0.744- 105 1.84  76 1.84 253 1.93 240 1.97 157 2.02 177 2.02
  44  0.255  0.492  0.251- 106 1.83 129 1.84 153 1.96 158 1.97 241 1.97 178 2.08
  45  0.247  0.506  0.741-  77 1.80 125 1.83 179 1.95 196 1.97 251 2.02 159 2.06
  46  0.745  0.001  0.256-  92 1.85  80 1.86 256 1.94 242 1.96 154 1.99 197 2.00
  47  0.748  0.006  0.756-  81 1.82 126 1.84 180 1.94 198 1.97 257 2.03 155 2.06
  48  0.755  0.498  0.243-  78 1.81 107 1.85 243 1.95 254 1.96 181 2.01 160 2.05
  49  0.757  0.498  0.743- 108 1.83  79 1.84 255 1.93 244 1.97 182 2.03 161 2.03
  50  0.257  0.252  0.006- 109 1.83  82 1.86 245 1.93 233 1.97 168 2.02 183 2.05
  51  0.253  0.257  0.505- 127 1.81  83 1.85 199 1.96 184 2.01 167 2.03 234 2.04
  52  0.252  0.742  0.992- 123 1.82  86 1.83 200 1.94 185 1.96 162 2.03 246 2.04
  53  0.253  0.755  0.492-  85 1.80 128 1.86 201 1.94 235 2.03 186 2.03 163 2.04
  54  0.757  0.251  0.007- 110 1.81  84 1.85 236 1.94 247 1.94 187 2.03 170 2.03
  55  0.743  0.242  0.498- 124 1.82  93 1.84 169 1.93 164 1.96 248 2.02 202 2.03
  56  0.742  0.749  0.994-  94 1.82  88 1.84 237 1.94 249 1.95 203 2.01 165 2.03
  57  0.742  0.752  0.494-  95 1.81  87 1.85 250 1.95 238 1.97 166 2.02 204 2.02
  58  0.251  0.259  0.244- 129 1.82  82 1.83 205 1.97 188 2.00 239 2.03 167 2.03
  59  0.244  0.252  0.744-  83 1.84  96 1.84 251 1.94 240 1.97 168 2.03 206 2.04
  60  0.249  0.749  0.251-  85 1.97 162 1.99  97 2.01 241 2.02 252 2.03 207 2.05   1 2.81
  61  0.248  0.741  0.755- 125 1.81  86 1.83 189 1.93 208 1.97 163 2.03 253 2.04
  62  0.742  0.250  0.242-  84 1.80  98 1.83 254 1.93 242 1.95 209 2.04 169 2.06
  63  0.744  0.242  0.751- 126 1.82  99 1.84 170 1.94 164 2.00 210 2.01 255 2.05
  64  0.747  0.750  0.257-  87 1.82 100 1.89 243 1.94 256 1.95 211 1.95 165 2.03
  65  0.757  0.750  0.757- 111 1.82  88 1.83 257 1.93 244 1.97 190 2.02 166 2.04
  66  0.008  0.503  0.625-   5 1.82  13 1.83
  67  0.995  0.005  0.377-   3 1.82  10 1.87
  68  1.000  0.002  0.873-  11 1.79   2 1.89
  69  0.500  0.493  0.376-  16 1.83   9 1.85
  70  0.493  0.497  0.875-  17 1.80   8 1.88
  71  0.004  0.745  0.126-  20 1.83  28 1.84
  72  0.005  0.745  0.625-  21 1.82  29 1.86
  73  0.503  0.754  0.625-  25 1.79  33 1.84
  74  0.994  0.247  0.377-  19 1.77  26 1.89
  75  0.255  0.001  0.125-  34 1.84  42 1.84
  76  0.255  0.000  0.624-  35 1.84  43 1.84
  77  0.238  0.490  0.626-  45 1.80  37 1.85
  78  0.750  0.491  0.126-  48 1.81  40 1.87
  79  0.745  0.493  0.624-  49 1.84  41 1.84
  80  0.751  0.999  0.376-  39 1.83  46 1.86
  81  0.746  0.998  0.873-  47 1.82  38 1.87
  82  0.245  0.254  0.126-  58 1.83  50 1.86
  83  0.253  0.254  0.625-  59 1.84  51 1.85
  84  0.742  0.259  0.126-  62 1.80  54 1.85
  85  0.252  0.733  0.378-  53 1.80  60 1.97   1 2.03
  86  0.254  0.748  0.874-  52 1.83  61 1.83
  87  0.754  0.751  0.375-  64 1.82  57 1.85
  88  0.750  0.753  0.875-  65 1.83  56 1.84
  89  0.124  0.505  0.994-   4 1.84  36 1.84
  90  0.625  0.508  0.998-  40 1.80   8 1.89
  91  0.125  0.011  0.252-  10 1.82  42 1.85
  92  0.625  0.005  0.250-  14 1.84  46 1.85
  93  0.624  0.258  0.495-  23 1.80  55 1.84
  94  0.625  0.741  0.002-  56 1.82  24 1.83
  95  0.625  0.765  0.496-  57 1.81  25 1.83
  96  0.125  0.251  0.749-  27 1.83  59 1.84
  97  0.121  0.735  0.267-  28 1.78  60 2.01   1 2.04
  98  0.626  0.241  0.262-  30 1.82  62 1.83
  99  0.625  0.252  0.747-  31 1.84  63 1.84
 100  0.625  0.752  0.251-  32 1.79  64 1.89
 101  0.376  0.999  0.992-   6 1.83  34 1.86
 102  0.374  0.506  0.503-   9 1.81  37 1.87
 103  0.873  0.001  1.000-  38 1.79   2 1.89
 104  0.874  0.502  0.501-   5 1.83  41 1.86
 105  0.376  0.996  0.757-  15 1.81  43 1.84
 106  0.374  0.491  0.251-  44 1.83  16 1.84
 107  0.874  0.490  0.252-  12 1.82  48 1.85
 108  0.875  0.508  0.746-  13 1.82  49 1.83
 109  0.376  0.249  0.004-  50 1.83  22 1.84
 110  0.874  0.249  0.006-  54 1.81  18 1.88
 111  0.875  0.743  0.748-  65 1.82  29 1.82
 112  0.511  0.123  0.495-   7 1.77  23 1.90
 113  0.996  0.126  0.743-  27 1.80  11 1.84
 114  0.492  0.125  0.263-  14 1.82  30 1.82
 115  0.501  0.124  0.747-  15 1.84  31 1.84
 116  0.501  0.625  0.749-  33 1.80  17 1.87
 117  0.001  0.375  0.005-  18 1.82   4 1.86
 118  0.003  0.875  0.002-  20 1.82   2 1.85
 119  0.998  0.874  0.500-   3 1.82  21 1.82
 120  0.503  0.374  0.008-  22 1.80   8 1.88
 121  0.506  0.875  0.004-  24 1.84   6 1.85
 122  0.011  0.373  0.247-  26 1.79  12 1.86
 123  0.257  0.625  0.006-  52 1.82  36 1.82
 124  0.741  0.125  0.504-  55 1.82  39 1.84
 125  0.247  0.624  0.744-  61 1.81  45 1.83
 126  0.751  0.125  0.744-  63 1.82  47 1.84
 127  0.251  0.374  0.489-  51 1.81  37 1.87
 128  0.252  0.876  0.494-  35 1.83  53 1.86
 129  0.237  0.375  0.261-  58 1.82  44 1.84
 130  0.000  0.002  0.127-  10 1.99   2 2.05
 131  0.005  0.998  0.624-   3 2.01  11 2.06
 132  0.000  0.509  0.126-  12 1.96   4 1.99
 133  0.493  0.009  0.126-  14 1.92   6 1.97
 134  0.497  0.994  0.623-   7 1.91  15 2.00
 135  0.501  0.509  0.128-  16 2.02   8 2.04
 136  0.507  0.500  0.624-   9 2.01  17 2.07
 137  0.002  0.494  0.377-  12 1.94   5 2.03
 138  0.994  0.496  0.873-   4 1.93  13 2.02
 139  0.504  0.989  0.377-   7 1.92  14 1.97
 140  0.516  0.001  0.875-  15 1.93   6 1.95
 141  0.009  0.244  0.127-  18 1.96  26 1.98
 142  0.999  0.259  0.621-  27 1.96  19 2.01
 143  0.509  0.237  0.127-  30 1.93  22 1.97
 144  0.495  0.247  0.623-  23 1.92  31 1.97
 145  0.498  0.745  0.127-  32 1.94  24 1.98
 146  0.995  0.251  0.874-  18 1.97  27 1.97
 147  0.987  0.750  0.377-  21 2.02  28 2.06
 148  1.000  0.751  0.874-  29 2.00  20 2.07
 149  0.492  0.264  0.376-  23 1.94  30 1.96
 150  0.500  0.253  0.875-  31 1.93  22 1.96
 151  0.495  0.754  0.376-  32 1.92  25 2.06
 152  0.498  0.751  0.874-  24 1.94  33 2.02
 153  0.243  0.487  0.124-  44 1.96  36 1.98
 154  0.750  0.004  0.127-  46 1.99  38 2.05
 155  0.746  0.995  0.623-  39 1.99  47 2.06
 156  0.253  0.007  0.376-  35 2.01  42 2.04
 157  0.243  0.997  0.874-  43 2.02  34 2.05
 158  0.243  0.522  0.375-  44 1.97  37 2.09
 159  0.260  0.503  0.873-  36 1.94  45 2.06
 160  0.746  0.507  0.375-  41 2.02  48 2.05
 161  0.753  0.506  0.874-  40 2.03  49 2.03
 162  0.248  0.759  0.122-  60 1.99  52 2.03
 163  0.246  0.755  0.624-  61 2.03  53 2.04
 164  0.751  0.261  0.623-  55 1.96  63 2.00
 165  0.752  0.747  0.126-  64 2.03  56 2.03
 166  0.745  0.748  0.625-  57 2.02  65 2.04
 167  0.253  0.241  0.374-  51 2.03  58 2.03
 168  0.252  0.248  0.875-  50 2.02  59 2.03
 169  0.763  0.242  0.374-  55 1.93  62 2.06
 170  0.752  0.244  0.876-  63 1.94  54 2.03
 171  0.126  0.003  0.002-  34 2.01   2 2.02
 172  0.125  0.005  0.497-  35 1.94   3 1.95
 173  0.123  0.504  0.490-   5 2.03  37 2.04
 174  0.625  0.003  0.009-   6 2.03  38 2.05
 175  0.624  0.982  0.502-   7 1.93  39 1.99
 176  0.625  0.491  0.498-  41 2.01   9 2.06
 177  0.127  0.002  0.747-  11 1.95  43 2.02
 178  0.122  0.514  0.254-  12 2.04  44 2.08
 179  0.123  0.493  0.763-  45 1.95  13 2.04
 180  0.624  0.995  0.741-  47 1.94  15 2.03
 181  0.625  0.501  0.250-  48 2.01  16 2.04
 182  0.626  0.492  0.756-  17 1.95  49 2.03
 183  0.125  0.250  0.994-  18 2.00  50 2.05
 184  0.124  0.246  0.499-  19 1.93  51 2.01
 185  0.126  0.743  0.996-  52 1.96  20 1.97
 186  0.122  0.743  0.487-  21 1.99  53 2.03
 187  0.626  0.249  0.994-  54 2.03  22 2.03
 188  0.125  0.233  0.257-  26 1.96  58 2.00
 189  0.123  0.754  0.753-  61 1.93  29 2.02
 190  0.626  0.754  0.751-  33 1.93  65 2.02
 191  0.378  0.009  0.495-   7 1.91  35 1.99
 192  0.373  0.494  0.009-  36 2.02   8 2.03
 193  0.875  0.007  0.510-  39 1.93   3 1.96
 194  0.874  0.496  0.000-   4 2.02  40 2.05
 195  0.378  0.993  0.256-  14 2.00  42 2.07
 196  0.374  0.499  0.740-  17 1.97  45 1.97
 197  0.874  0.995  0.247-  46 2.00  10 2.06
 198  0.874  0.994  0.742-  47 1.97  11 1.99
 199  0.379  0.241  0.497-  51 1.96  23 2.00
 200  0.377  0.759  0.003-  52 1.94  24 2.02
 201  0.378  0.742  0.503-  53 1.94  25 2.01
 202  0.874  0.250  0.506-  19 1.93  55 2.03
 203  0.873  0.756  0.001-  20 1.95  56 2.01
 204  0.872  0.741  0.509-  21 1.94  57 2.02
 205  0.378  0.262  0.246-  58 1.97  30 2.03
 206  0.376  0.250  0.752-  31 2.01  59 2.04
 207  0.382  0.753  0.248-  32 1.96  60 2.05
 208  0.375  0.755  0.747-  33 1.97  61 1.97
 209  0.874  0.260  0.244-  26 1.95  62 2.04
 210  0.874  0.254  0.746-  63 2.01  27 2.05
 211  0.873  0.751  0.246-  64 1.95  28 2.08
 212  0.003  0.127  0.001-  18 2.01   2 2.04
 213  0.998  0.126  0.510-  19 1.91   3 2.08
 214  0.992  0.625  0.994-   4 2.01  20 2.06
 215  0.003  0.626  0.489-   5 1.94  21 2.04
 216  0.504  0.125  0.996-   6 2.02  22 2.06
 217  0.488  0.627  0.999-  24 2.01   8 2.05
 218  0.510  0.627  0.498-  25 1.96   9 1.99
 219  0.986  0.128  0.247-  10 1.95  26 2.02
 220  0.988  0.621  0.261-  28 1.98  12 2.00
 221  0.011  0.624  0.757-  13 1.96  29 1.98
 222  0.501  0.626  0.257-  32 1.95  16 2.00
 223  0.003  0.374  0.499-  19 1.95   5 1.99
 224  0.491  0.372  0.508-  23 1.97   9 1.97
 225  0.486  0.878  0.498-  25 1.96   7 2.02
 226  0.995  0.375  0.750-  13 1.93  27 2.05
 227  0.004  0.876  0.252-  10 1.97  28 1.99
 228  1.000  0.875  0.747-  29 1.93  11 2.04
 229  0.508  0.372  0.239-  16 1.96  30 2.01
 230  0.496  0.373  0.744-  31 2.02  17 2.03
 231  0.502  0.877  0.245-  32 1.94  14 2.04
 232  0.503  0.875  0.754-  15 2.01  33 2.06
 233  0.247  0.125  0.996-  34 1.97  50 1.97
 234  0.249  0.125  0.501-  35 2.02  51 2.04
 235  0.242  0.626  0.511-  53 2.03  37 2.05
 236  0.744  0.126  0.003-  54 1.94  38 1.96
 237  0.762  0.625  0.003-  56 1.94  40 1.95
 238  0.740  0.625  0.502-  57 1.97  41 1.98
 239  0.265  0.128  0.249-  42 1.94  58 2.03
 240  0.253  0.125  0.753-  43 1.97  59 1.97
 241  0.254  0.619  0.234-  44 1.97  60 2.02
 242  0.763  0.126  0.248-  62 1.95  46 1.96
 243  0.750  0.624  0.247-  64 1.94  48 1.95
 244  0.738  0.625  0.748-  65 1.97  49 1.97
 245  0.248  0.376  0.992-  50 1.93  36 2.03
 246  0.245  0.874  0.999-  34 1.93  52 2.04
 247  0.747  0.375  0.987-  54 1.94  40 1.96
 248  0.755  0.372  0.488-  41 1.95  55 2.02
 249  0.744  0.875  0.009-  56 1.95  38 1.96
 250  0.764  0.876  0.503-  57 1.95  39 2.03
 251  0.254  0.376  0.760-  59 1.94  45 2.02
 252  0.246  0.880  0.257-  42 1.92  60 2.03
 253  0.246  0.873  0.748-  43 1.93  61 2.04
 254  0.742  0.373  0.266-  62 1.93  48 1.96
 255  0.755  0.374  0.759-  49 1.93  63 2.05
 256  0.752  0.875  0.243-  46 1.94  64 1.95
 257  0.751  0.875  0.744-  65 1.93  47 2.03
 

IMPORTANT INFORMATION: All symmetrisations will be switched off!
NOSYMM: (Re-)initialisation of all symmetry stuff for point group C_1.

 
 
 KPOINTS: Title                                   

Automatic generation of k-mesh.
Space group operators:
 irot       det(A)        alpha          n_x          n_y          n_z        tau_x        tau_y        tau_z
    1     1.000000     0.000001     1.000000     0.000000     0.000000     0.000000     0.000000     0.000000
 
 Subroutine IBZKPT returns following result:
 ===========================================
 
 Found      4 irreducible k-points:
 
 Following reciprocal coordinates:
            Coordinates               Weight
  0.250000  0.250000  0.250000      2.000000
 -0.250000  0.250000  0.250000      2.000000
  0.250000 -0.250000  0.250000      2.000000
 -0.250000 -0.250000  0.250000      2.000000
 
 Following cartesian coordinates:
            Coordinates               Weight
  0.016206  0.016206  0.016206      2.000000
 -0.016206  0.016206  0.016206      2.000000
  0.016206 -0.016206  0.016206      2.000000
 -0.016206 -0.016206  0.016206      2.000000
 


--------------------------------------------------------------------------------------------------------




 Dimension of arrays:
   k-points           NKPTS =      4   k-points in BZ     NKDIM =      4   number of bands    NBANDS=   1164
   number of dos      NEDOS =   3001   number of ions     NIONS =    257
   non local maximal  LDIM  =      6   non local SUM 2l+1 LMDIM =     18
   total plane-waves  NPLWV = ******
   max r-space proj   IRMAX =   7595   max aug-charges    IRDMAX= 146383
   dimension x,y,z NGX =   120 NGY =  120 NGZ =  120
   dimension x,y,z NGXF=   240 NGYF=  240 NGZF=  240
   support grid    NGXF=   480 NGYF=  480 NGZF=  480
   ions per type =               1  64  64 128
   NGX,Y,Z   is equivalent  to a cutoff of  12.93, 12.93, 12.93 a.u.
   NGXF,Y,Z  is equivalent  to a cutoff of  25.86, 25.86, 25.86 a.u.

 SYSTEM =  LTO                                     
 POSCAR =  config 10                               

 Startparameter for this run:
   NWRITE =      2    write-flag & timer
   PREC   = accura    normal or accurate (medium, high low for compatibility)
   ISTART =      1    job   : 0-new  1-cont  2-samecut
   ICHARG =      0    charge: 1-file 2-atom 10-const
   ISPIN  =      2    spin polarized calculation?
   LNONCOLLINEAR =      F non collinear calculations
   LSORBIT =      F    spin-orbit coupling
   INIWAV =      1    electr: 0-lowe 1-rand  2-diag
   LASPH  =      T    aspherical Exc in radial PAW
   METAGGA=      F    non-selfconsistent MetaGGA calc.

 Electronic Relaxation 1
   ENCUT  =  500.0 eV  36.75 Ry    6.06 a.u.  28.13 28.13 28.13*2*pi/ulx,y,z
   ENINI  =  500.0     initial cutoff
   ENAUG  =  628.9 eV  augmentation charge cutoff
   NELM   =     60;   NELMIN=  2; NELMDL=  0     # of ELM steps 
   EDIFF  = 0.1E-05   stopping-criterion for ELM
   LREAL  =      T    real-space projection
   NLSPLINE    = F    spline interpolate recip. space projectors
   LCOMPAT=      F    compatible to vasp.4.4
   GGA_COMPAT  = T    GGA compatible to vasp.4.4-vasp.4.6
   LMAXPAW     = -100 max onsite density
   LMAXMIX     =    4 max onsite mixed and CHGCAR
   VOSKOWN=      0    Vosko Wilk Nusair interpolation
   ROPT   =   -0.00010  -0.00010  -0.00010  -0.00010
 Ionic relaxation
   EDIFFG = -.5E-01   stopping-criterion for IOM
   NSW    =    100    number of steps for IOM
   NBLOCK =      1;   KBLOCK =    100    inner block; outer block 
   IBRION =      1    ionic relax: 0-MD 1-quasi-New 2-CG
   NFREE  =      0    steps in history (QN), initial steepest desc. (CG)
   ISIF   =      2    stress and relaxation
   IWAVPR =     11    prediction:  0-non 1-charg 2-wave 3-comb
   ISYM   =      0    0-nonsym 1-usesym 2-fastsym
   LCORR  =      T    Harris-Foulkes like correction to forces

   POTIM  = 0.5000    time-step for ionic-motion
   TEIN   =    0.0    initial temperature
   TEBEG  =    0.0;   TEEND  =   0.0 temperature during run
   SMASS  =  -3.00    Nose mass-parameter (am)
   estimated Nose-frequenzy (Omega)   =  0.10E-29 period in steps =****** mass=  -0.544E-26a.u.
   SCALEE = 1.0000    scale energy and forces
   NPACO  =    256;   APACO  = 16.0  distance and # of slots for P.C.
   PSTRESS=    0.0 pullay stress

  Mass of Ions in am
   POMASS =   7.01 47.88 16.00 19.00
  Ionic Valenz
   ZVAL   =   3.00 10.00  6.00  7.00
  Atomic Wigner-Seitz radii
   RWIGS  =  -1.00 -1.00 -1.00 -1.00
  virtual crystal weights 
   VCA    =   1.00  1.00  1.00  1.00
   NELECT =    1923.0000    total number of electrons
   NUPDOWN=       1.0000    fix difference up-down

 DOS related values:
   EMIN   =  10.00;   EMAX   =-10.00  energy-range for DOS
   EFERMI =   0.00
   ISMEAR =     0;   SIGMA  =   0.01  broadening in eV -4-tet -1-fermi 0-gaus

 Electronic relaxation 2 (details)
   IALGO  =     38    algorithm
   LDIAG  =      T    sub-space diagonalisation (order eigenvalues)
   LSUBROT=      F    optimize rotation matrix (better conditioning)
   TURBO    =      0    0=normal 1=particle mesh
   IRESTART =      0    0=no restart 2=restart with 2 vectors
   NREBOOT  =      0    no. of reboots
   NMIN     =      0    reboot dimension
   EREF     =   0.00    reference energy to select bands
   IMIX   =      4    mixing-type and parameters
     AMIX     =   0.40;   BMIX     =  1.00
     AMIX_MAG =   1.60;   BMIX_MAG =  1.00
     AMIN     =   0.10
     WC   =   100.;   INIMIX=   1;  MIXPRE=   1;  MAXMIX= -45

 Intra band minimization:
   WEIMIN = 0.0010     energy-eigenvalue tresh-hold
   EBREAK =  0.21E-09  absolut break condition
   DEPER  =   0.30     relativ break condition  

   TIME   =   0.40     timestep for ELM

  volume/ion in A,a.u.               =      14.28        96.39
  Fermi-wavevector in a.u.,A,eV,Ry     =   1.319690  2.493853 23.695660  1.741582
  Thomas-Fermi vector in A             =   2.449570
 
 Write flags
   LWAVE        =      T    write WAVECAR
   LDOWNSAMPLE  =      F    k-point downsampling of WAVECAR
   LCHARG       =      T    write CHGCAR
   LVTOT        =      F    write LOCPOT, total local potential
   LVHAR        =      F    write LOCPOT, Hartree potential only
   LELF         =      F    write electronic localiz. function (ELF)
   LORBIT       =     11    0 simple, 1 ext, 2 COOP (PROOUT), +10 PAW based schemes


 Dipole corrections
   LMONO  =      F    monopole corrections only (constant potential shift)
   LDIPOL =      F    correct potential (dipole corrections)
   IDIPOL =      0    1-x, 2-y, 3-z, 4-all directions 
   EPSILON=  1.0000000 bulk dielectric constant

 LDA+U is selected, type is set to LDAUTYPE =  2
   angular momentum for each species LDAUL =    -1    2   -1   -1
   U (eV)           for each species LDAUU =   0.0  4.2  0.0  0.0
   J (eV)           for each species LDAUJ =   0.0  0.0  0.0  0.0
 Exchange correlation treatment:
   GGA     =    PS    GGA type
   LEXCH   =    14    internal setting for exchange type
   VOSKOWN=      0    Vosko Wilk Nusair interpolation
   LHFCALC =     F    Hartree Fock is set to
   LHFONE  =     F    Hartree Fock one center treatment
   AEXX    =    0.0000 exact exchange contribution

 Linear response parameters
   LEPSILON=     F    determine dielectric tensor
   LRPA    =     F    only Hartree local field effects (RPA)
   LNABLA  =     F    use nabla operator in PAW spheres
   LVEL    =     F    velocity operator in full k-point grid
   LINTERFAST=   F  fast interpolation
   KINTER  =     0    interpolate to denser k-point grid
   CSHIFT  =0.1000    complex shift for real part using Kramers Kronig
   OMEGAMAX=  -1.0    maximum frequency
   DEG_THRESHOLD= 0.2000000E-02 threshold for treating states as degnerate
   RTIME   =   -0.100 relaxation time in fs
  (WPLASMAI=    0.000 imaginary part of plasma frequency in eV, 0.658/RTIME)
   DFIELD  = 0.0000000 0.0000000 0.0000000 field for delta impulse in time
 
 Orbital magnetization related:
   ORBITALMAG=     F  switch on orbital magnetization
   LCHIMAG   =     F  perturbation theory with respect to B field
   DQ        =  0.001000  dq finite difference perturbation B field
   LLRAUG    =     F  two centre corrections for induced B field



--------------------------------------------------------------------------------------------------------


 quasi-Newton-method for relaxation of ions
 charge density and potential will be updated during run
 spin polarized calculation
 Variant of blocked Davidson
 Davidson routine will perform the subspace rotation
 perform sub-space diagonalisation
    after iterative eigenvector-optimisation
 modified Broyden-mixing scheme, WC =      100.0
 initial mixing is a Kerker type mixing with AMIX =  0.4000 and BMIX =      1.0000
 Hartree-type preconditioning will be used
 using additional bands          202
 real space projection scheme for non local part
 use partial core corrections
 calculate Harris-corrections to forces 
   (improved forces if not selfconsistent)
 use gradient corrections 
 use of overlap-Matrix (Vanderbilt PP)
 Gauss-broadening in eV      SIGMA  =   0.01


--------------------------------------------------------------------------------------------------------


  energy-cutoff  :      500.00
  volume of cell :     3671.03
      direct lattice vectors                 reciprocal lattice vectors
    15.426331000  0.000000000  0.000000000     0.064824228  0.000000000  0.000000000
     0.000000000 15.426331000  0.000000000     0.000000000  0.064824228  0.000000000
     0.000000000  0.000000000 15.426331000     0.000000000  0.000000000  0.064824228

  length of vectors
    15.426331000 15.426331000 15.426331000     0.064824228  0.064824228  0.064824228


 
 old parameters found on file WAVECAR:
  energy-cutoff  :      500.00
  volume of cell :     3671.03
      direct lattice vectors                 reciprocal lattice vectors
    15.426331000  0.000000000  0.000000000     0.064824228  0.000000000  0.000000000
     0.000000000 15.426331000  0.000000000     0.000000000  0.064824228  0.000000000
     0.000000000  0.000000000 15.426331000     0.000000000  0.000000000  0.064824228

  length of vectors

 
 k-points in units of 2pi/SCALE and weight: Title                                   
   0.01620606  0.01620606  0.01620606       0.250
  -0.01620606  0.01620606  0.01620606       0.250
   0.01620606 -0.01620606  0.01620606       0.250
  -0.01620606 -0.01620606  0.01620606       0.250
 
 k-points in reciprocal lattice and weights: Title                                   
   0.25000000  0.25000000  0.25000000       0.250
  -0.25000000  0.25000000  0.25000000       0.250
   0.25000000 -0.25000000  0.25000000       0.250
  -0.25000000 -0.25000000  0.25000000       0.250
 
 position of ions in fractional coordinates (direct lattice) 
   0.14653246  0.65565378  0.36899452
   0.99553440  0.99467688  0.99451861
   0.99964550  0.99192410  0.49344139
   0.00552736  0.49525671  0.99793529
   0.99266063  0.50198784  0.50787282
   0.49442545  0.99438834  0.99947331
   0.50129017  0.00799542  0.49960625
   0.50372077  0.49556820  0.99628649
   0.49135563  0.49922609  0.49540849
   0.00724155  0.00309965  0.25595766
   0.00129530  0.00762013  0.75660796
   0.99208440  0.49203586  0.25134851
   0.99232465  0.49925910  0.74236220
   0.50618336  0.00901147  0.25027142
   0.49273165  0.00490196  0.75198432
   0.49291905  0.49625178  0.25758106
   0.50042555  0.50405587  0.75850656
   0.99543516  0.25717144  0.00143136
   0.99866149  0.24794621  0.49132971
   0.99891405  0.75745044  0.00822250
   0.99608326  0.75667732  0.50806688
   0.49488667  0.25814173  0.00126562
   0.50842548  0.24564953  0.49891109
   0.50776337  0.75636647  0.99916289
   0.50772158  0.75336306  0.50904309
   0.00009822  0.25759229  0.25488942
   0.00628041  0.24235112  0.74722151
   0.00804784  0.74682974  0.24551659
   0.99277669  0.75043827  0.74481886
   0.50802048  0.24183953  0.25154024
   0.50661652  0.24277312  0.75012055
   0.50899374  0.75145450  0.25211964
   0.50176200  0.74196062  0.74359653
   0.25653604  0.99853692  0.00572372
   0.25014726  0.99403391  0.50550381
   0.24347057  0.50801024  0.99776919
   0.25393461  0.49358780  0.50689343
   0.75725285  0.00025936  0.99412237
   0.75040614  0.00641718  0.49438674
   0.74153233  0.50049658  0.00507080
   0.75420870  0.49754510  0.50560176
   0.24483690  0.00403470  0.24364752
   0.25763924  0.99762491  0.74381411
   0.25519072  0.49232707  0.25110568
   0.24657246  0.50556756  0.74070145
   0.74511336  0.00057983  0.25553081
   0.74820016  0.00619151  0.75597626
   0.75472429  0.49769907  0.24281147
   0.75678760  0.49800161  0.74279260
   0.25706710  0.25208971  0.00586895
   0.25314428  0.25708722  0.50505412
   0.25231806  0.74213711  0.99193153
   0.25337254  0.75539672  0.49225450
   0.75708533  0.25097838  0.00731075
   0.74279294  0.24237230  0.49777771
   0.74242120  0.74936201  0.99426898
   0.74168658  0.75225451  0.49423363
   0.25079343  0.25897271  0.24392013
   0.24402711  0.25200522  0.74371482
   0.24926209  0.74891372  0.25111999
   0.24788123  0.74127417  0.75501802
   0.74217464  0.25030807  0.24244978
   0.74412729  0.24182116  0.75069448
   0.74720869  0.74960354  0.25692317
   0.75729504  0.75046556  0.75679431
   0.00849954  0.50281121  0.62485207
   0.99496955  0.00523600  0.37652508
   0.99969473  0.00211766  0.87252007
   0.49978190  0.49275917  0.37570610
   0.49317462  0.49699619  0.87478402
   0.00430963  0.74511142  0.12599687
   0.00460569  0.74451541  0.62515840
   0.50256778  0.75424465  0.62485704
   0.99443189  0.24721471  0.37655176
   0.25518022  0.00134953  0.12487445
   0.25476217  0.00020907  0.62444591
   0.23817903  0.48959174  0.62560777
   0.74966334  0.49130604  0.12563277
   0.74510906  0.49304632  0.62432333
   0.75103453  0.99939885  0.37611922
   0.74598447  0.99820890  0.87340672
   0.24491121  0.25441987  0.12553718
   0.25286997  0.25409824  0.62469040
   0.74179495  0.25851135  0.12634183
   0.25224914  0.73323527  0.37754123
   0.25363957  0.74822660  0.87360160
   0.75416394  0.75116374  0.37489822
   0.74965761  0.75264956  0.87546366
   0.12417589  0.50501954  0.99443418
   0.62531861  0.50811341  0.99838837
   0.12513834  0.01103967  0.25204277
   0.62542579  0.00500263  0.24969032
   0.62437822  0.25765491  0.49479437
   0.62501921  0.74067995  0.00216166
   0.62483519  0.76463370  0.49584050
   0.12476120  0.25079334  0.74901407
   0.12064212  0.73464737  0.26651395
   0.62558789  0.24107029  0.26200984
   0.62534026  0.25214767  0.74691847
   0.62507536  0.75203553  0.25144659
   0.37626439  0.99912824  0.99157231
   0.37445016  0.50630197  0.50311364
   0.87301322  0.00111581  0.99989454
   0.87441735  0.50211496  0.50065626
   0.37605587  0.99614514  0.75688379
   0.37384290  0.49147427  0.25082895
   0.87424124  0.49023072  0.25233234
   0.87487893  0.50838813  0.74553508
   0.37577941  0.24915140  0.00429602
   0.87418078  0.24895707  0.00596089
   0.87487474  0.74311096  0.74774207
   0.51101277  0.12252091  0.49530594
   0.99563692  0.12617522  0.74347432
   0.49177383  0.12542813  0.26348901
   0.50083896  0.12353554  0.74740217
   0.50148402  0.62513206  0.74933306
   0.00104439  0.37505690  0.00520870
   0.00309857  0.87505631  0.00183470
   0.99806588  0.87443324  0.49977594
   0.50337476  0.37433799  0.00812667
   0.50559747  0.87528476  0.00371734
   0.01132915  0.37305980  0.24667591
   0.25695891  0.62506888  0.00580868
   0.74148233  0.12482652  0.50429938
   0.24720502  0.62423213  0.74424788
   0.75147553  0.12452249  0.74413782
   0.25132951  0.37359570  0.48887921
   0.25160176  0.87582871  0.49431621
   0.23725906  0.37499068  0.26124415
   0.00005081  0.00247612  0.12689533
   0.00493946  0.99750319  0.62358744
   0.00048094  0.50926189  0.12578871
   0.49344419  0.00863283  0.12622063
   0.49666876  0.99419759  0.62286180
   0.50091689  0.50873790  0.12777971
   0.50704633  0.50034443  0.62443546
   0.00222346  0.49385393  0.37656100
   0.99405741  0.49629987  0.87314516
   0.50442482  0.98945885  0.37673798
   0.51618367  0.00072728  0.87491702
   0.00855734  0.24438708  0.12721373
   0.99946312  0.25886933  0.62131615
   0.50916931  0.23742990  0.12677427
   0.49527415  0.24689916  0.62269484
   0.49808218  0.74496681  0.12686868
   0.99506605  0.25076721  0.87411001
   0.98709547  0.74957310  0.37746418
   0.99978226  0.75134876  0.87406348
   0.49190352  0.26409361  0.37579390
   0.50044501  0.25258232  0.87458333
   0.49498937  0.75415550  0.37607395
   0.49790026  0.75135025  0.87404647
   0.24293131  0.48720922  0.12444107
   0.74988073  0.00414017  0.12652700
   0.74577180  0.99539716  0.62291751
   0.25318153  0.00729134  0.37563009
   0.24301377  0.99714571  0.87368247
   0.24330683  0.52187108  0.37470271
   0.25982544  0.50280257  0.87335308
   0.74592087  0.50709311  0.37516284
   0.75268938  0.50573131  0.87408933
   0.24758213  0.75895516  0.12228037
   0.24592842  0.75499102  0.62421145
   0.75117976  0.26127159  0.62286214
   0.75173503  0.74697893  0.12575184
   0.74543117  0.74813676  0.62488435
   0.25301187  0.24082712  0.37436828
   0.25206100  0.24817936  0.87485438
   0.76282694  0.24217424  0.37424662
   0.75225636  0.24441559  0.87589232
   0.12625844  0.00285998  0.00191281
   0.12494182  0.00546360  0.49734771
   0.12289919  0.50366950  0.48998527
   0.62527422  0.00252521  0.00851844
   0.62391876  0.98199329  0.50213292
   0.62454293  0.49087939  0.49800183
   0.12699335  0.00190834  0.74680952
   0.12223888  0.51374443  0.25374656
   0.12304466  0.49311333  0.76335157
   0.62358136  0.99505941  0.74053013
   0.62464611  0.50058987  0.24997149
   0.62604073  0.49244463  0.75588704
   0.12493277  0.24955041  0.99378439
   0.12362618  0.24569105  0.49851145
   0.12550171  0.74327830  0.99604140
   0.12245870  0.74323873  0.48661004
   0.62611585  0.24894316  0.99412461
   0.12456513  0.23299178  0.25689870
   0.12332906  0.75372690  0.75294619
   0.62621269  0.75426485  0.75139552
   0.37763311  0.00861803  0.49521656
   0.37294680  0.49416252  0.00853094
   0.87469996  0.00702152  0.50973686
   0.87439323  0.49641597  0.00032453
   0.37772033  0.99337327  0.25633756
   0.37424245  0.49859962  0.73954020
   0.87419604  0.99500190  0.24699820
   0.87418972  0.99353673  0.74197549
   0.37875762  0.24127700  0.49703114
   0.37661940  0.75858489  0.00264427
   0.37779988  0.74197783  0.50315696
   0.87416821  0.24985403  0.50560030
   0.87262650  0.75580513  0.00125671
   0.87159866  0.74100299  0.50869837
   0.37812633  0.26217505  0.24591619
   0.37622310  0.24972578  0.75226421
   0.38217476  0.75321169  0.24812699
   0.37488301  0.75455633  0.74654382
   0.87423938  0.26029377  0.24369761
   0.87402967  0.25410507  0.74646379
   0.87327644  0.75091779  0.24640356
   0.00295595  0.12685115  0.00083009
   0.99766014  0.12563072  0.50961582
   0.99189740  0.62503128  0.99386621
   0.00264616  0.62573388  0.48929708
   0.50385346  0.12477293  0.99615059
   0.48828091  0.62732713  0.99888956
   0.51022201  0.62660213  0.49750916
   0.98633846  0.12765161  0.24716625
   0.98841440  0.62099064  0.26121694
   0.01096673  0.62421300  0.75700236
   0.50073296  0.62552913  0.25667426
   0.00291245  0.37387159  0.49893216
   0.49094525  0.37187563  0.50816118
   0.48552841  0.87801885  0.49792238
   0.99533761  0.37460454  0.75040826
   0.00366773  0.87580408  0.25180406
   0.99977278  0.87548224  0.74707381
   0.50824290  0.37170265  0.23910200
   0.49624611  0.37316359  0.74413523
   0.50172149  0.87681927  0.24500449
   0.50251418  0.87506614  0.75448322
   0.24712175  0.12521904  0.99572093
   0.24916418  0.12509736  0.50062619
   0.24200377  0.62573857  0.51104165
   0.74431726  0.12607169  0.00254053
   0.76235751  0.62520969  0.00267371
   0.74013223  0.62513075  0.50229857
   0.26503068  0.12820744  0.24930263
   0.25259552  0.12470176  0.75338830
   0.25424705  0.61897924  0.23387633
   0.76299594  0.12596591  0.24784637
   0.75004527  0.62410452  0.24736914
   0.73837113  0.62456417  0.74762247
   0.24780233  0.37631323  0.99216949
   0.24454495  0.87393679  0.99870013
   0.74698470  0.37493422  0.98748178
   0.75545003  0.37228499  0.48816961
   0.74416052  0.87482283  0.00869868
   0.76385219  0.87607847  0.50336748
   0.25391269  0.37599026  0.76023644
   0.24589975  0.88014089  0.25666659
   0.24596111  0.87333539  0.74823142
   0.74219311  0.37346741  0.26600796
   0.75472837  0.37375116  0.75861231
   0.75152576  0.87531862  0.24346201
   0.75127933  0.87486580  0.74390952
 
 position of ions in cartesian coordinates  (Angst):
   2.26045819 10.11433231  5.69223159
  15.35744314 15.34421482 15.34177319
  15.42086242 15.30174946  7.61199019
   0.08526683  7.63999394 15.39448017
  15.31311147  7.74383058  7.83461424
   7.62717064 15.33976362 15.41820613
   7.73306814  0.12334004  7.70709143
   7.77056333  7.64479913 15.36904517
   7.57981455  7.70122686  7.64233540
   0.11171059  0.04781615  3.94848758
   0.01998168  0.11755071 11.67168486
  15.30422231  7.59030806  3.87738527
  15.30792855  7.70173608 11.45192505
   7.80855203  0.13901391  3.86076983
   7.60104159  0.07561920 11.60035902
   7.60393250  7.65534423  3.97353075
   7.71973015  7.77573262 11.70097325
  15.35591232  3.96721170  0.02208065
  15.40568274  3.82490028  7.57941478
  15.40957873 11.68468118  0.12684299
  15.36591005 11.67275485  7.83760789
   7.63428559  3.98217973  0.01952383
   7.84313973  3.78947096  7.69636764
   7.83292576 11.66795959 15.41341747
   7.83228121 11.62162799  7.85266718
   0.00151513  3.97370389  3.93200849
   0.09688370  3.73858862 11.52688630
   0.12414871 11.52084282  3.78742022
  15.31490187 11.57650918 11.48982232
   7.83689205  3.73069658  3.88034295
   7.81523410  3.74509858 11.57160793
   7.85190595 11.59218582  3.88928103
   7.74034671 11.44573009 11.47096625
   3.95740980 15.40376098  0.08829595
   3.85885445 15.33429617  7.79806910
   3.75585767  7.83673410 15.39191773
   3.91727927  7.61424874  7.81950581
  11.68163309  0.00400090 15.33566073
  11.57601343  0.09899349  7.62657347
  11.43912309  7.72082598  0.07822377
  11.63467309  7.67529534  7.79958008
   3.77693499  0.06224057  3.75858729
   3.97442819 15.38969204 11.47432270
   3.93665650  7.59480031  3.87363939
   3.80370833  7.79905260 11.42630576
  11.49436534  0.00894472  3.94190289
  11.54198328  0.09551234 11.66193994
  11.64262677  7.67767059  3.74569009
  11.67445607  7.68233774 11.45856453
   3.96560219  3.88881929  0.09053629
   3.90508747  3.96591254  7.79113196
   3.89234197 11.44845275 15.30186406
   3.90860864 11.65299983  7.59368088
  11.67904885  3.87167553  0.11277800
  11.45856970  3.73891528  7.67888377
  11.45283520 11.55990639 15.33792233
  11.44150266 11.60452704  7.62421162
   3.86882240  3.99499874  3.76279272
   3.76444302  3.88751590 11.47279094
   3.84519946 11.55299087  3.87386005
   3.82389785 11.43514070 11.64715787
  11.44903171  3.86133520  3.74011059
  11.47915388  3.73041333 11.58046147
  11.52668858 11.56363226  3.96338178
  11.68228388 11.57693018 11.67455956
   0.13111679  7.75653211  9.63917479
  15.34872959  0.08077231  5.80840055
  15.42162177  0.03266765 13.45978345
   7.70980102  7.60146604  5.79576670
   7.60787498  7.66682778 13.49470777
   0.06648184 11.49433544  1.94366941
   0.07104896 11.48514122  9.64390035
   7.75277690 11.63522763  9.63925152
  15.34043554  3.81361593  5.80881209
   3.93649461  0.02081833  1.92635456
   3.93004563  0.00322520  9.63290927
   3.67422849  7.55260419  9.65083252
  11.56455490  7.57904964  1.93805267
  11.49429893  7.60589575  9.63101835
  11.58570729 15.41705753  5.80213964
  11.50780334 15.39870085 13.47346117
   3.77808132  3.92476517  1.93657810
   3.90085593  3.91980349  9.63668088
  11.44317439  3.98788165  1.94899086
   3.89127866 11.31112999  5.82407595
   3.91272800 11.54239114 13.47646751
  11.63398262 11.58770051  5.78330399
  11.56446649 11.61062124 13.50519217
   1.91557840  7.79059855 15.34047076
   9.64637187  7.83832565 15.40146951
   1.93042540  0.17030167  3.88809525
   9.64802528  0.07717230  3.85180555
   9.63186504  3.97466999  7.63286172
   9.64175327 11.42597405  0.03334653
   9.63891453 11.79549261  7.64899966
   1.92460762  3.86882111 11.55453904
   1.86106522 11.33291346  4.11133246
   9.65052582  3.71883004  4.04185059
   9.64670576  3.88971335 11.52221153
   9.64261939 11.60114904  3.87889829
   5.80437907 15.41288291 15.29632266
   5.77639215  7.81038180  7.76119751
  13.46739085  0.01721290 15.42470420
  13.48905147  7.74579159  7.72328912
   5.80116228 15.36686469 11.67593992
   5.76702427  7.58164473  3.86937038
  13.48633478  7.56246140  3.89256221
  13.49617194  7.84256359 11.50087091
   5.79689762  3.84349200  0.06627190
  13.48540202  3.84049412  0.09195459
  13.49610730 11.46347572 11.53491672
   7.88305215  1.89004815  7.64075334
  15.35902464  1.94642063 11.46908091
   7.58626586  1.93489586  4.06466867
   7.72610764  1.90570008 11.52967331
   7.73605851  9.64349412 11.55945978
   0.01611117  5.78575192  0.08035112
   0.04779963 13.49890833  0.02830272
  15.39649456 13.48929655  7.70970914
   7.76522567  5.77466181  0.12536464
   7.79951397 13.50243238  0.05734497
   0.17476723  5.75494397  3.80530426
   3.96393317  9.64251943  0.08960666
  11.43835184  1.92561527  7.77948916
   3.81346652  9.62961151 11.48101417
  11.59251033  1.92092518 11.47931633
   3.87709223  5.76321087  7.54161253
   3.88129207 13.51082356  7.62548546
   3.66003684  5.78473041  4.03003879
   0.00078380  0.03819737  1.95752933
   0.07619776 15.38781440  9.61966630
   0.00741909  7.85604247  1.94045821
   7.61203346  0.13317289  1.94712115
   7.66177668 15.33682111  9.60847225
   7.72730974  7.84795928  1.97117216
   7.82186451  7.71847875  9.63274812
   0.03429985  7.61835418  5.80895458
  15.33465859  7.65608606 13.46942623
   7.78142423 15.26371970  5.81168484
   7.96282013  0.01121924 13.49675961
   0.13200829  3.76999595  1.96244109
  15.41804886  3.99340404  9.58462854
   7.85461434  3.66267219  1.95566187
   7.64026301  3.80874813  9.60589675
   7.68358054 11.49210459  1.95711832
  15.35021828  3.86841799 13.48431027
  15.22726140 11.56316276  5.82288740
  15.42297212 11.59055472 13.48359258
   7.58826651  4.07399537  5.79712113
   7.72003033  3.89641842 13.49161189
   7.63586990 11.63385237  5.80144123
   7.68077425 11.59057762 13.48333023
   3.74753878  7.51585069  1.91966907
  11.56790837  0.06386756  1.95184735
  11.50452263 15.35532610  9.60933163
   3.90566214  0.11247868  5.79459405
   3.74881091 15.38229978 13.47771503
   3.75333169  8.05055598  5.78028808
   4.00815329  7.75639881 13.47263376
  11.50682222  7.82258620  5.78738622
  11.61123552  7.80157862 13.48399137
   3.81928384 11.70789345  1.88633749
   3.79377319 11.64674132  9.62929250
  11.58794769  4.03046204  9.60847751
  11.59651345 11.52314425  1.93988946
  11.49926802 11.54100533  9.63967275
   3.90304485  3.71507891  5.77512903
   3.88837649  3.82849700 13.49579318
  11.76762091  3.73585995  5.77325229
  11.60455554  3.77043581 13.51180489
   1.94770447  0.04411900  0.02950767
   1.92739381  0.08428332  7.67225045
   1.89588353  7.76977250  7.55867497
   9.64568704  0.03895468  0.13140832
   9.62477730 15.14855346  7.74606867
   9.63440604  7.57246793  7.68234101
   1.95904150  0.02943873 11.52053088
   1.88569746  7.92519166  3.91437849
   1.89812771  7.60692952 11.77571396
   9.61957241 15.35011577 11.42366283
   9.63599762  7.72226503  3.85614292
   9.65751159  7.59661388 11.66056365
   1.92725434  3.84964715 15.33044699
   1.90709840  3.79011150  7.69020263
   1.93603087 11.46605700 15.36526438
   1.88908846 11.46544665  7.50660762
   9.65867028  3.84027963 15.33569522
   1.92158300  3.59420827  3.96300437
   1.90251494 11.62724065 11.61519717
   9.66016423 11.63553929 11.59127600
   5.82549342  0.13294462  7.63937454
   5.75320073  7.62311461  0.13160105
  13.49341110  0.10831636  7.86336958
  13.48867946  7.65787707  0.00500627
   5.82683891 15.32410488  3.95434798
   5.77318798  7.69156270 11.40839185
  13.48563748 15.34922862  3.81027594
  13.48554001 15.32662646 11.44595953
   5.84284040  3.72201887  7.66736688
   5.80985554 11.70218161  0.04079142
   5.82806599 11.44599564  7.76186577
  13.48520813  3.85433092  7.79955763
  13.46142523 11.65930006  0.01938640
  13.44556944 11.43095736  7.84734937
   5.83310192  4.04439906  3.79358450
   5.80374207  3.85235259 11.60467670
   5.89555428 11.61929286  3.82768902
   5.78306943 11.64003565 11.51643215
  13.48630611  4.01537793  3.75936006
  13.48307094  3.91990885 11.51519744
  13.47145136 11.58390645  3.80110282
   0.04559940  1.95684783  0.01280518
  15.39023560  1.93802103  7.86150239
  15.30133765  9.64193935 15.33170920
   0.04082054  9.65277799  7.54805878
   7.77261023  1.92478852 15.36694868
   7.53238296  9.67735590 15.40920101
   7.87085368  9.66617192  7.67474103
  15.21558354  1.96919593  3.81286838
  15.24760774  9.57960723  4.02961898
   0.16917633  9.62931633 11.67776900
   7.72447239  9.64961947  3.95954208
   0.04492840  5.76746688  7.69669263
   7.57348398  5.73667662  7.83906263
   7.48992190 13.54460938  7.68111550
  15.35440740  5.77877361 11.57604616
   0.05657956 13.51044358  3.88441281
  15.42282582 13.50547875 11.52460791
   7.84032315  5.73400813  3.68846664
   7.65525676  5.75654505 11.47927643
   7.73972174 13.52610434  3.77952031
   7.75195009 13.49905994 11.63890795
   3.81218191  1.93167036 15.36032059
   3.84368918  1.92979334  7.72282538
   3.73323020  9.65285035  7.88349758
  11.48208439  1.94482358  0.03919106
  11.76037933  9.64469166  0.04124561
  11.41752471  9.64347388  7.74862399
   4.08845100  1.97777048  3.84582496
   3.89662209  1.92369066 11.62201728
   3.92209921  9.54857866  3.60785368
  11.77022793  1.94319181  3.82336008
  11.57044660  9.62764291  3.81599825
  11.39035746  9.63473359 11.53307175
   3.82268075  5.80513241 15.30553490
   3.77243141 13.48163814 15.40627884
  11.52323328  5.78385946 15.23322076
  11.65382215  5.74299148  7.53066599
  11.47966656 13.49530657  0.13418871
  11.78343670 13.51467651  7.76511340
   3.91694117  5.80015017 11.72765890
   3.79333098 13.57734471  3.95942376
   3.79427742 13.47236080 11.54246548
  11.44931659  5.76123187  4.10352681
  11.64268964  5.76560912 11.70260456
  11.59328514 13.50295475  3.75572555
  11.58948368 13.49596944 11.47579446
 


--------------------------------------------------------------------------------------------------------


 k-point  1 :   0.2500 0.2500 0.2500  plane waves:   93161
 k-point  2 :  -0.2500 0.2500 0.2500  plane waves:   93161
 k-point  3 :   0.2500-0.2500 0.2500  plane waves:   93161
 k-point  4 :  -0.2500-0.2500 0.2500  plane waves:   93161

 maximum and minimum number of plane-waves per node :     11686    11606

 maximum number of plane-waves:     93161
 maximum index in each direction: 
   IXMAX=   28   IYMAX=   28   IZMAX=   27
   IXMIN=  -28   IYMIN=  -28   IZMIN=  -28


 real space projection operators:
  total allocation   :     105566.12 KBytes
  max/ min on nodes  :      13237.55      13151.32


 parallel 3D FFT for wavefunctions:
    minimum data exchange during FFTs selected (reduces bandwidth)
 parallel 3D FFT for charge:
    minimum data exchange during FFTs selected (reduces bandwidth)


 total amount of memory used by VASP MPI-rank0   291505. kBytes
=======================================================================

   base      :      30000. kBytes
   nonlr-proj:      49470. kBytes
   fftplans  :      27976. kBytes
   grid      :      34041. kBytes
   one-center:       1026. kBytes
   wavefun   :     148992. kBytes
 
     INWAV:  cpu time   52.3186: real time   52.7171
 Broyden mixing: mesh for mixing (old mesh)
   NGX = 57   NGY = 57   NGZ = 57
  (NGX  =240   NGY  =240   NGZ  =240)
  gives a total of 185193 points

 charge density for first step will be calculated from the start-wavefunctions


--------------------------------------------------------------------------------------------------------


 Maximum index for non-local projection operator          970
 Maximum index for augmentation-charges         3290 (set IRDMAX)


--------------------------------------------------------------------------------------------------------


 initial charge from wavefunction
 First call to EWALD:  gamma=   0.115
 Maximum number of real-space cells 3x 3x 3
 Maximum number of reciprocal cells 3x 3x 3

    FEWALD:  cpu time    0.0374: real time    0.0374


--------------------------------------- Iteration      1(   1)  ---------------------------------------


    POTLOK:  cpu time    0.3452: real time    0.3573
    SETDIJ:  cpu time    1.4082: real time    1.4089
     EDDAV:  cpu time  131.5135: real time  132.4327
       DOS:  cpu time    0.0029: real time    0.0029
    CHARGE:  cpu time    5.2770: real time    5.2971
    MIXING:  cpu time    0.0085: real time    0.0087
    --------------------------------------------
      LOOP:  cpu time  138.5553: real time  139.5076

 eigenvalue-minimisations  : 23400
 total energy-change (2. order) :-0.1835035E+04  (-0.3536598E+03)
 number of electron    1923.0000029 magnetization       1.0000000
 augmentation part      502.1056648 magnetization       0.8359894

 Broyden mixing:
  rms(total) = 0.67059E+01    rms(broyden)= 0.67034E+01
  rms(prec ) = 0.10501E+02
  weight for this iteration     100.00

 Free energy of the ion-electron system (eV)
  ---------------------------------------------------
  alpha Z        PSCENC =      6118.73324990
  Ewald energy   TEWEN  =   -103276.24015167
  -Hartree energ DENC   =    -65354.97296449
  -exchange      EXHF   =         0.00000000
  -V(xc)+E(xc)   XCENC  =      8959.83968078
  PAW double counting   =    198416.15322280  -199411.84165484
  entropy T*S    EENTRO =        -0.00232649
  eigenvalues    EBANDS =    -25863.95613111
  atomic energy  EATOM  =    178577.25249613
  Solvation  Ediel_sol  =         0.00000000
  ---------------------------------------------------
  free energy    TOTEN  =     -1835.03457898 eV

  energy without entropy =    -1835.03225250  energy(sigma->0) =    -1835.03341574


--------------------------------------------------------------------------------------------------------




--------------------------------------- Iteration      1(   2)  ---------------------------------------


    POTLOK:  cpu time    0.2610: real time    0.2636
    SETDIJ:  cpu time    1.3718: real time    1.3723
     EDDAV:  cpu time  144.0640: real time  144.6788
       DOS:  cpu time    0.0029: real time    0.0029
    CHARGE:  cpu time    5.1909: real time    5.2397
    MIXING:  cpu time    0.0167: real time    0.0175
    --------------------------------------------
      LOOP:  cpu time  150.9072: real time  151.5749

 eigenvalue-minimisations  : 26496
 total energy-change (2. order) : 0.2011346E+02  (-0.2310982E+03)
 number of electron    1923.0000029 magnetization       1.0000000
 augmentation part      500.3431319 magnetization       0.3144714

 Broyden mixing:
  rms(total) = 0.63823E+01    rms(broyden)= 0.63787E+01
  rms(prec ) = 0.89058E+01
  weight for this iteration     100.00

 eigenvalues of (default mixing * dielectric matrix)
  average eigenvalue GAMMA=   0.4979
  0.4979

 Free energy of the ion-electron system (eV)
  ---------------------------------------------------
  alpha Z        PSCENC =      6118.73324990
  Ewald energy   TEWEN  =   -103276.24015167
  -Hartree energ DENC   =    -65336.43938856
  -exchange      EXHF   =         0.00000000
  -V(xc)+E(xc)   XCENC  =      8957.49037005
  PAW double counting   =    199703.52277631  -200680.06222518
  entropy T*S    EENTRO =        -0.00160000
  eigenvalues    EBANDS =    -25879.17664363
  atomic energy  EATOM  =    178577.25249613
  Solvation  Ediel_sol  =         0.00000000
  ---------------------------------------------------
  free energy    TOTEN  =     -1814.92111665 eV

  energy without entropy =    -1814.91951665  energy(sigma->0) =    -1814.92031665


--------------------------------------------------------------------------------------------------------




--------------------------------------- Iteration      1(   3)  ---------------------------------------


    POTLOK:  cpu time    0.3194: real time    0.3330
    SETDIJ:  cpu time    1.4302: real time    1.4551
     EDDAV:  cpu time  144.1221: real time  144.9943
       DOS:  cpu time    0.0023: real time    0.0023
    CHARGE:  cpu time    5.1621: real time    5.2489
    MIXING:  cpu time    0.0076: real time    0.0076
    --------------------------------------------
      LOOP:  cpu time  151.0436: real time  152.0410

 eigenvalue-minimisations  : 26304
 total energy-change (2. order) : 0.2650771E+01  (-0.6016523E+02)
 number of electron    1923.0000029 magnetization       1.0000000
 augmentation part      493.8052049 magnetization       0.6234893

 Broyden mixing:
  rms(total) = 0.45409E+01    rms(broyden)= 0.45394E+01
  rms(prec ) = 0.52044E+01
  weight for this iteration     100.00

 eigenvalues of (default mixing * dielectric matrix)
  average eigenvalue GAMMA=   0.4741
  0.4741  0.4741

 Free energy of the ion-electron system (eV)
  ---------------------------------------------------
  alpha Z        PSCENC =      6118.73324990
  Ewald energy   TEWEN  =   -103276.24015167
  -Hartree energ DENC   =    -65386.16958631
  -exchange      EXHF   =         0.00000000
  -V(xc)+E(xc)   XCENC  =      8960.90148178
  PAW double counting   =    199767.73416291  -200745.04754903
  entropy T*S    EENTRO =        -0.00081532
  eigenvalues    EBANDS =    -25829.43363451
  atomic energy  EATOM  =    178577.25249613
  Solvation  Ediel_sol  =         0.00000000
  ---------------------------------------------------
  free energy    TOTEN  =     -1812.27034611 eV

  energy without entropy =    -1812.26953079  energy(sigma->0) =    -1812.26993845


--------------------------------------------------------------------------------------------------------




--------------------------------------- Iteration      1(   4)  ---------------------------------------


    POTLOK:  cpu time    0.2592: real time    0.2624
    SETDIJ:  cpu time    1.3682: real time    1.3686
     EDDAV:  cpu time  141.5267: real time  142.3279
       DOS:  cpu time    0.0017: real time    0.0017
    CHARGE:  cpu time    5.2671: real time    5.2708
    MIXING:  cpu time    0.0074: real time    0.0078
    --------------------------------------------
      LOOP:  cpu time  148.4304: real time  149.2392

 eigenvalue-minimisations  : 25788
 total energy-change (2. order) : 0.2794531E+02  (-0.1551038E+02)
 number of electron    1923.0000029 magnetization       1.0000000
 augmentation part      494.7805248 magnetization       0.6074567

 Broyden mixing:
  rms(total) = 0.31208E+01    rms(broyden)= 0.31202E+01
  rms(prec ) = 0.36159E+01
  weight for this iteration     100.00

 eigenvalues of (default mixing * dielectric matrix)
  average eigenvalue GAMMA=   0.6005
  0.5355  0.6330  0.6330

 Free energy of the ion-electron system (eV)
  ---------------------------------------------------
  alpha Z        PSCENC =      6118.73324990
  Ewald energy   TEWEN  =   -103276.24015167
  -Hartree energ DENC   =    -65381.15227326
  -exchange      EXHF   =         0.00000000
  -V(xc)+E(xc)   XCENC  =      8965.96855912
  PAW double counting   =    199848.84424059  -200837.74550737
  entropy T*S    EENTRO =        -0.00000000
  eigenvalues    EBANDS =    -25799.98564663
  atomic energy  EATOM  =    178577.25249613
  Solvation  Ediel_sol  =         0.00000000
  ---------------------------------------------------
  free energy    TOTEN  =     -1784.32503318 eV

  energy without entropy =    -1784.32503318  energy(sigma->0) =    -1784.32503318


--------------------------------------------------------------------------------------------------------




--------------------------------------- Iteration      1(   5)  ---------------------------------------


    POTLOK:  cpu time    0.2607: real time    0.2631
    SETDIJ:  cpu time    1.3669: real time    1.3680
     EDDAV:  cpu time  146.0427: real time  146.9958
       DOS:  cpu time    0.0017: real time    0.0017
    CHARGE:  cpu time    5.2868: real time    5.3075
    MIXING:  cpu time    0.0147: real time    0.0147
    --------------------------------------------
      LOOP:  cpu time  152.9736: real time  153.9509

 eigenvalue-minimisations  : 26784
 total energy-change (2. order) : 0.1990294E+02  (-0.5122482E+01)
 number of electron    1923.0000029 magnetization       1.0000000
 augmentation part      495.2130396 magnetization       0.6213726

 Broyden mixing:
  rms(total) = 0.17598E+01    rms(broyden)= 0.17596E+01
  rms(prec ) = 0.20319E+01
  weight for this iteration     100.00

 eigenvalues of (default mixing * dielectric matrix)
  average eigenvalue GAMMA=   0.7418
  0.9186  0.9186  0.5650  0.5650

 Free energy of the ion-electron system (eV)
  ---------------------------------------------------
  alpha Z        PSCENC =      6118.73324990
  Ewald energy   TEWEN  =   -103276.24015167
  -Hartree energ DENC   =    -65383.61244156
  -exchange      EXHF   =         0.00000000
  -V(xc)+E(xc)   XCENC  =      8968.79879598
  PAW double counting   =    199406.26408512  -200403.46221223
  entropy T*S    EENTRO =        -0.00000000
  eigenvalues    EBANDS =    -25772.15591320
  atomic energy  EATOM  =    178577.25249613
  Solvation  Ediel_sol  =         0.00000000
  ---------------------------------------------------
  free energy    TOTEN  =     -1764.42209152 eV

  energy without entropy =    -1764.42209152  energy(sigma->0) =    -1764.42209152


--------------------------------------------------------------------------------------------------------




--------------------------------------- Iteration      1(   6)  ---------------------------------------


    POTLOK:  cpu time    0.2665: real time    0.2688
    SETDIJ:  cpu time    1.4058: real time    1.4069
     EDDAV:  cpu time  145.2154: real time  146.0267
       DOS:  cpu time    0.0019: real time    0.0019
    CHARGE:  cpu time    5.2552: real time    5.2847
    MIXING:  cpu time    0.0082: real time    0.0085
    --------------------------------------------
      LOOP:  cpu time  152.1531: real time  152.9975

 eigenvalue-minimisations  : 26688
 total energy-change (2. order) : 0.4869218E+01  (-0.6217788E+01)
 number of electron    1923.0000029 magnetization       1.0000000
 augmentation part      496.7735602 magnetization       0.6498211

 Broyden mixing:
  rms(total) = 0.17585E+01    rms(broyden)= 0.17579E+01
  rms(prec ) = 0.19612E+01
  weight for this iteration     100.00

 eigenvalues of (default mixing * dielectric matrix)
  average eigenvalue GAMMA=   0.6626
  0.8907  0.8907  0.5668  0.5668  0.3981

 Free energy of the ion-electron system (eV)
  ---------------------------------------------------
  alpha Z        PSCENC =      6118.73324990
  Ewald energy   TEWEN  =   -103276.24015167
  -Hartree energ DENC   =    -65357.93613080
  -exchange      EXHF   =         0.00000000
  -V(xc)+E(xc)   XCENC  =      8970.64421708
  PAW double counting   =    198932.96465127  -199939.29451252
  entropy T*S    EENTRO =        -0.00000000
  eigenvalues    EBANDS =    -25785.67669314
  atomic energy  EATOM  =    178577.25249613
  Solvation  Ediel_sol  =         0.00000000
  ---------------------------------------------------
  free energy    TOTEN  =     -1759.55287373 eV

  energy without entropy =    -1759.55287373  energy(sigma->0) =    -1759.55287373


--------------------------------------------------------------------------------------------------------




--------------------------------------- Iteration      1(   7)  ---------------------------------------


    POTLOK:  cpu time    0.2568: real time    0.2622
    SETDIJ:  cpu time    1.3703: real time    1.3726
     EDDAV:  cpu time  151.8120: real time  152.9835
       DOS:  cpu time    0.0019: real time    0.0019
    CHARGE:  cpu time    5.2717: real time    5.2751
    MIXING:  cpu time    0.0084: real time    0.0084
    --------------------------------------------
      LOOP:  cpu time  158.7212: real time  159.9037

 eigenvalue-minimisations  : 28308
 total energy-change (2. order) : 0.9511124E+00  (-0.1191130E+01)
 number of electron    1923.0000029 magnetization       1.0000000
 augmentation part      496.8462512 magnetization       0.6255932

 Broyden mixing:
  rms(total) = 0.10776E+01    rms(broyden)= 0.10772E+01
  rms(prec ) = 0.11737E+01
  weight for this iteration     100.00

 eigenvalues of (default mixing * dielectric matrix)
  average eigenvalue GAMMA=   0.7721
  1.0506  1.0506  0.7405  0.7405  0.5251  0.5251

 Free energy of the ion-electron system (eV)
  ---------------------------------------------------
  alpha Z        PSCENC =      6118.73324990
  Ewald energy   TEWEN  =   -103276.24015167
  -Hartree energ DENC   =    -65353.85320098
  -exchange      EXHF   =         0.00000000
  -V(xc)+E(xc)   XCENC  =      8970.46628734
  PAW double counting   =    198821.08105267  -199827.06260230
  entropy T*S    EENTRO =        -0.00000000
  eigenvalues    EBANDS =    -25788.97889240
  atomic energy  EATOM  =    178577.25249613
  Solvation  Ediel_sol  =         0.00000000
  ---------------------------------------------------
  free energy    TOTEN  =     -1758.60176130 eV

  energy without entropy =    -1758.60176130  energy(sigma->0) =    -1758.60176130


--------------------------------------------------------------------------------------------------------




--------------------------------------- Iteration      1(   8)  ---------------------------------------


    POTLOK:  cpu time    0.2633: real time    0.2636
    SETDIJ:  cpu time    1.3715: real time    1.3725
     EDDAV:  cpu time  145.7990: real time  146.5499
       DOS:  cpu time    0.0019: real time    0.0019
    CHARGE:  cpu time    5.0902: real time    5.2001
    MIXING:  cpu time    0.0260: real time    0.0260
    --------------------------------------------
      LOOP:  cpu time  152.5518: real time  153.4140

 eigenvalue-minimisations  : 27012
 total energy-change (2. order) : 0.6325131E+00  (-0.6628533E+00)
 number of electron    1923.0000029 magnetization       1.0000000
[...]
   81        1.574   3.461   0.000   5.034
   82        1.574   3.460   0.000   5.034
   83        1.574   3.459   0.000   5.033
   84        1.576   3.471   0.000   5.048
   85        1.570   3.485   0.000   5.055
   86        1.575   3.469   0.000   5.044
   87        1.575   3.463   0.000   5.038
   88        1.575   3.465   0.000   5.040
   89        1.575   3.462   0.000   5.036
   90        1.575   3.457   0.000   5.032
   91        1.574   3.460   0.000   5.035
   92        1.574   3.459   0.000   5.034
   93        1.577   3.471   0.000   5.049
   94        1.577   3.472   0.000   5.048
   95        1.577   3.476   0.000   5.053
   96        1.574   3.464   0.000   5.038
   97        1.569   3.476   0.000   5.045
   98        1.576   3.473   0.000   5.049
   99        1.575   3.464   0.000   5.038
  100        1.576   3.463   0.000   5.040
  101        1.574   3.458   0.000   5.032
  102        1.575   3.461   0.000   5.035
  103        1.576   3.459   0.000   5.035
  104        1.574   3.462   0.000   5.036
  105        1.577   3.472   0.000   5.048
  106        1.575   3.463   0.000   5.037
  107        1.575   3.464   0.000   5.040
  108        1.576   3.472   0.000   5.048
  109        1.575   3.463   0.000   5.037
  110        1.575   3.460   0.000   5.035
  111        1.576   3.472   0.000   5.048
  112        1.577   3.462   0.000   5.039
  113        1.576   3.474   0.000   5.050
  114        1.577   3.473   0.000   5.050
  115        1.574   3.465   0.000   5.040
  116        1.575   3.463   0.000   5.037
  117        1.575   3.461   0.000   5.036
  118        1.575   3.463   0.000   5.038
  119        1.576   3.477   0.000   5.053
  120        1.575   3.460   0.000   5.035
  121        1.574   3.463   0.000   5.037
  122        1.577   3.468   0.000   5.045
  123        1.577   3.472   0.000   5.049
  124        1.576   3.470   0.000   5.046
  125        1.576   3.475   0.000   5.050
  126        1.576   3.471   0.000   5.046
  127        1.575   3.459   0.000   5.033
  128        1.573   3.461   0.000   5.035
  129        1.577   3.467   0.000   5.043
  130        1.737   4.369   0.000   6.106
  131        1.737   4.371   0.000   6.107
  132        1.737   4.379   0.000   6.116
  133        1.738   4.386   0.000   6.125
  134        1.738   4.383   0.000   6.122
  135        1.737   4.368   0.000   6.105
  136        1.737   4.367   0.000   6.103
  137        1.738   4.381   0.000   6.119
  138        1.738   4.381   0.000   6.119
  139        1.739   4.387   0.000   6.127
  140        1.739   4.386   0.000   6.125
  141        1.738   4.380   0.000   6.118
  142        1.738   4.380   0.000   6.118
  143        1.738   4.386   0.000   6.124
  144        1.739   4.386   0.000   6.125
  145        1.738   4.382   0.000   6.120
  146        1.737   4.381   0.000   6.118
  147        1.737   4.371   0.000   6.107
  148        1.736   4.368   0.000   6.104
  149        1.739   4.384   0.000   6.124
  150        1.738   4.387   0.000   6.126
  151        1.738   4.377   0.000   6.115
  152        1.738   4.380   0.000   6.118
  153        1.737   4.379   0.000   6.117
  154        1.737   4.371   0.000   6.109
  155        1.737   4.372   0.000   6.109
  156        1.737   4.370   0.000   6.107
  157        1.737   4.367   0.000   6.104
  158        1.737   4.371   0.000   6.109
  159        1.738   4.375   0.000   6.113
  160        1.737   4.368   0.000   6.104
  161        1.736   4.369   0.000   6.106
  162        1.737   4.379   0.000   6.116
  163        1.736   4.369   0.000   6.105
  164        1.738   4.378   0.000   6.116
  165        1.737   4.370   0.000   6.107
  166        1.736   4.370   0.000   6.106
  167        1.737   4.369   0.000   6.106
  168        1.737   4.370   0.000   6.107
  169        1.738   4.376   0.000   6.114
  170        1.738   4.379   0.000   6.116
  171        1.737   4.370   0.000   6.107
  172        1.738   4.388   0.000   6.126
  173        1.737   4.371   0.000   6.108
  174        1.737   4.369   0.000   6.105
  175        1.739   4.381   0.000   6.120
  176        1.737   4.368   0.000   6.104
  177        1.738   4.380   0.000   6.117
  178        1.736   4.366   0.000   6.102
  179        1.738   4.375   0.000   6.113
  180        1.738   4.379   0.000   6.117
  181        1.737   4.371   0.000   6.108
  182        1.738   4.377   0.000   6.115
  183        1.737   4.369   0.000   6.105
  184        1.737   4.380   0.000   6.117
  185        1.737   4.382   0.000   6.120
  186        1.736   4.381   0.000   6.118
  187        1.737   4.370   0.000   6.107
  188        1.738   4.376   0.000   6.114
  189        1.738   4.381   0.000   6.120
  190        1.738   4.381   0.000   6.119
  191        1.739   4.386   0.000   6.125
  192        1.737   4.369   0.000   6.106
  193        1.739   4.387   0.000   6.126
  194        1.737   4.368   0.000   6.104
  195        1.737   4.368   0.000   6.105
  196        1.737   4.381   0.000   6.118
  197        1.737   4.368   0.000   6.105
  198        1.737   4.380   0.000   6.117
  199        1.738   4.381   0.000   6.119
  200        1.738   4.379   0.000   6.117
  201        1.738   4.381   0.000   6.119
  202        1.738   4.379   0.000   6.117
  203        1.738   4.380   0.000   6.118
  204        1.738   4.380   0.000   6.118
  205        1.737   4.375   0.000   6.112
  206        1.737   4.369   0.000   6.106
  207        1.737   4.377   0.000   6.114
  208        1.737   4.381   0.000   6.118
  209        1.737   4.376   0.000   6.113
  210        1.737   4.370   0.000   6.106
  211        1.738   4.372   0.000   6.110
  212        1.737   4.368   0.000   6.105
  213        1.739   4.375   0.000   6.114
  214        1.736   4.367   0.000   6.103
  215        1.738   4.381   0.000   6.119
  216        1.736   4.368   0.000   6.104
  217        1.737   4.367   0.000   6.104
  218        1.737   4.379   0.000   6.116
  219        1.738   4.378   0.000   6.116
  220        1.738   4.381   0.000   6.119
  221        1.738   4.380   0.000   6.118
  222        1.737   4.379   0.000   6.116
  223        1.738   4.382   0.000   6.120
  224        1.738   4.381   0.000   6.119
  225        1.738   4.379   0.000   6.117
  226        1.738   4.378   0.000   6.116
  227        1.736   4.378   0.000   6.115
  228        1.738   4.377   0.000   6.115
  229        1.738   4.378   0.000   6.116
  230        1.736   4.369   0.000   6.106
  231        1.738   4.377   0.000   6.115
  232        1.737   4.369   0.000   6.106
  233        1.738   4.380   0.000   6.118
  234        1.737   4.371   0.000   6.107
  235        1.737   4.371   0.000   6.108
  236        1.738   4.387   0.000   6.126
  237        1.739   4.386   0.000   6.124
  238        1.737   4.379   0.000   6.116
  239        1.738   4.378   0.000   6.116
  240        1.737   4.380   0.000   6.118
  241        1.737   4.380   0.000   6.118
  242        1.738   4.386   0.000   6.124
  243        1.738   4.386   0.000   6.125
  244        1.738   4.380   0.000   6.117
  245        1.738   4.378   0.000   6.116
  246        1.738   4.377   0.000   6.115
  247        1.738   4.385   0.000   6.124
  248        1.738   4.378   0.000   6.116
  249        1.738   4.385   0.000   6.123
  250        1.738   4.378   0.000   6.116
  251        1.738   4.379   0.000   6.118
  252        1.737   4.381   0.000   6.118
  253        1.738   4.379   0.000   6.117
  254        1.739   4.386   0.000   6.125
  255        1.738   4.377   0.000   6.115
  256        1.739   4.385   0.000   6.124
  257        1.738   4.379   0.000   6.117
--------------------------------------------------
tot        345.5231195.391 112.5101653.424
 


 magnetization (x)
 
# of ion       s       p       d       tot
------------------------------------------
    1       -0.000  -0.000   0.000  -0.000
    2        0.000  -0.000  -0.000  -0.000
    3       -0.000  -0.000  -0.000  -0.000
    4       -0.000  -0.000   0.000   0.000
    5       -0.000  -0.000   0.000   0.000
    6       -0.000  -0.000   0.000   0.000
    7       -0.000  -0.000   0.000   0.000
    8       -0.000  -0.000   0.000   0.000
    9       -0.000  -0.000  -0.000  -0.000
   10        0.000   0.000   0.004   0.004
   11       -0.000  -0.000  -0.000  -0.000
   12        0.000  -0.000   0.001   0.001
   13       -0.000  -0.000   0.000   0.000
   14        0.000   0.000   0.000   0.000
   15        0.000  -0.000   0.000   0.000
   16        0.000   0.000   0.003   0.003
   17       -0.000  -0.000   0.000   0.000
   18       -0.000   0.000   0.000   0.000
   19       -0.000  -0.000  -0.000  -0.000
   20       -0.000  -0.000   0.000   0.000
   21       -0.000  -0.000   0.000   0.000
   22        0.000   0.000   0.000   0.000
   23       -0.000  -0.000   0.000   0.000
   24       -0.000  -0.000   0.000   0.000
   25       -0.000  -0.000   0.000   0.000
   26        0.000   0.000   0.000   0.000
   27        0.000  -0.000  -0.000  -0.000
   28        0.000   0.001   0.049   0.050
   29       -0.000  -0.000  -0.000  -0.000
   30        0.000   0.000   0.000   0.000
   31        0.000   0.000  -0.000  -0.000
   32        0.000  -0.000   0.013   0.013
   33       -0.000  -0.000   0.000   0.000
   34       -0.000  -0.000  -0.000  -0.000
   35        0.000  -0.000  -0.000  -0.000
   36       -0.000  -0.000   0.000   0.000
   37       -0.000   0.000   0.000   0.000
   38       -0.000  -0.000   0.000   0.000
   39       -0.000  -0.000  -0.000  -0.000
   40       -0.000  -0.000  -0.000  -0.000
   41       -0.000  -0.000   0.000   0.000
   42       -0.000   0.000   0.010   0.010
   43       -0.000  -0.000  -0.000  -0.000
   44       -0.000  -0.000   0.005   0.005
   45       -0.000  -0.000  -0.000  -0.000
   46        0.000   0.000   0.000   0.000
   47        0.000   0.000   0.000   0.000
   48        0.000   0.000   0.001   0.001
   49        0.000   0.000   0.000   0.000
   50       -0.000  -0.000   0.000   0.000
   51       -0.000  -0.000  -0.000  -0.000
   52       -0.000  -0.000   0.000  -0.000
   53       -0.000  -0.000  -0.001  -0.002
   54       -0.000  -0.000  -0.000  -0.000
   55        0.000  -0.000   0.000   0.000
   56       -0.000  -0.000   0.000   0.000
   57       -0.000  -0.000  -0.000  -0.000
   58       -0.000  -0.000   0.000   0.000
   59        0.000  -0.000  -0.000  -0.000
   60        0.005   0.007   0.889   0.900
   61       -0.000  -0.000  -0.000  -0.000
   62        0.000   0.000   0.000   0.000
   63        0.000   0.000  -0.000  -0.000
   64        0.000   0.000   0.002   0.002
   65        0.000   0.000   0.000   0.000
   66       -0.000  -0.000   0.000  -0.000
   67       -0.000  -0.000   0.000  -0.000
   68       -0.000  -0.000   0.000  -0.000
   69       -0.000  -0.000   0.000  -0.000
   70       -0.000  -0.000   0.000  -0.000
   71       -0.000  -0.002   0.000  -0.002
   72       -0.000  -0.000   0.000  -0.000
   73       -0.000  -0.000   0.000  -0.000
   74       -0.000  -0.000   0.000  -0.000
   75       -0.000  -0.000   0.000  -0.000
   76       -0.000  -0.000   0.000  -0.000
   77       -0.000  -0.000   0.000  -0.000
   78       -0.000  -0.000   0.000  -0.000
   79       -0.000  -0.000   0.000  -0.000
   80       -0.000  -0.000   0.000  -0.000
   81       -0.000   0.000   0.000   0.000
   82       -0.000  -0.000   0.000  -0.000
   83       -0.000  -0.000   0.000  -0.000
   84       -0.000  -0.000   0.000  -0.000
   85       -0.001  -0.013   0.000  -0.013
   86       -0.000  -0.000   0.000  -0.000
   87       -0.000  -0.000   0.000  -0.000
   88       -0.000  -0.000   0.000  -0.000
   89       -0.000  -0.000   0.000  -0.000
   90       -0.000  -0.000   0.000  -0.000
   91       -0.000  -0.002   0.000  -0.002
   92        0.000  -0.000   0.000  -0.000
   93       -0.000  -0.000   0.000  -0.000
   94       -0.000  -0.000   0.000  -0.000
   95       -0.000  -0.000   0.000  -0.000
   96       -0.000  -0.000   0.000  -0.000
   97       -0.001  -0.022   0.000  -0.023
   98       -0.000  -0.000   0.000  -0.000
   99        0.000   0.000   0.000   0.000
  100       -0.000  -0.002   0.000  -0.002
  101       -0.000  -0.000   0.000  -0.000
  102       -0.000  -0.000   0.000  -0.000
  103       -0.000  -0.000   0.000  -0.000
  104        0.000   0.000   0.000   0.000
  105       -0.000  -0.000   0.000  -0.000
  106       -0.000  -0.001   0.000  -0.001
  107        0.000  -0.000   0.000  -0.000
  108       -0.000  -0.000   0.000  -0.000
  109       -0.000  -0.000   0.000  -0.000
  110       -0.000  -0.000   0.000  -0.000
  111       -0.000  -0.000   0.000  -0.000
  112       -0.000  -0.000   0.000  -0.000
  113       -0.000  -0.000   0.000  -0.000
  114        0.000  -0.000   0.000  -0.000
  115       -0.000   0.000   0.000   0.000
  116       -0.000  -0.000   0.000  -0.000
  117       -0.000  -0.000   0.000  -0.000
  118       -0.000  -0.000   0.000  -0.000
  119       -0.000  -0.000   0.000  -0.000
  120       -0.000  -0.000   0.000  -0.000
  121       -0.000  -0.000   0.000  -0.000
  122       -0.000  -0.000   0.000  -0.000
  123       -0.000  -0.000   0.000  -0.000
  124       -0.000  -0.000   0.000  -0.000
  125        0.000  -0.000   0.000  -0.000
  126       -0.000  -0.000   0.000  -0.000
  127       -0.000  -0.000   0.000  -0.000
  128       -0.000  -0.000   0.000  -0.000
  129       -0.000  -0.000   0.000  -0.000
  130       -0.000  -0.000   0.000  -0.000
  131       -0.000  -0.000   0.000  -0.000
  132       -0.000  -0.000   0.000  -0.000
  133       -0.000  -0.000   0.000  -0.000
  134       -0.000  -0.000   0.000  -0.000
  135       -0.000  -0.000   0.000  -0.000
  136       -0.000  -0.000   0.000  -0.000
  137       -0.000  -0.000   0.000  -0.000
  138       -0.000  -0.000   0.000  -0.000
  139       -0.000  -0.000   0.000  -0.000
  140       -0.000  -0.000   0.000  -0.000
  141       -0.000  -0.000   0.000  -0.000
  142       -0.000  -0.000   0.000  -0.000
  143       -0.000  -0.000   0.000  -0.000
  144       -0.000  -0.000   0.000  -0.000
  145       -0.000  -0.000   0.000  -0.000
  146       -0.000  -0.000   0.000  -0.000
  147       -0.000  -0.000   0.000  -0.000
  148       -0.000  -0.000   0.000  -0.000
  149       -0.000  -0.000   0.000  -0.000
  150       -0.000  -0.000   0.000  -0.000
  151       -0.000  -0.000   0.000  -0.000
  152       -0.000  -0.000   0.000  -0.000
  153       -0.000  -0.000   0.000  -0.000
  154       -0.000  -0.000   0.000  -0.000
  155       -0.000  -0.000   0.000  -0.000
  156       -0.000  -0.000   0.000  -0.000
  157       -0.000  -0.000   0.000  -0.000
  158       -0.000  -0.000   0.000  -0.000
  159       -0.000  -0.000   0.000  -0.000
  160       -0.000  -0.000   0.000  -0.000
  161       -0.000  -0.000   0.000  -0.000
  162       -0.000  -0.007   0.000  -0.007
  163       -0.000  -0.000   0.000  -0.000
  164       -0.000  -0.000   0.000  -0.000
  165       -0.000  -0.000   0.000  -0.000
  166       -0.000  -0.000   0.000  -0.000
  167       -0.000  -0.000   0.000  -0.000
  168       -0.000  -0.000   0.000  -0.000
  169       -0.000  -0.000   0.000  -0.000
  170       -0.000  -0.000   0.000  -0.000
  171       -0.000  -0.000   0.000  -0.000
  172       -0.000  -0.000   0.000  -0.000
  173       -0.000  -0.000   0.000  -0.000
  174        0.000  -0.000   0.000  -0.000
  175       -0.000   0.000   0.000   0.000
  176       -0.000  -0.000   0.000  -0.000
  177       -0.000   0.000   0.000   0.000
  178        0.000   0.000   0.000   0.000
  179        0.000   0.000   0.000   0.000
  180       -0.000  -0.000   0.000  -0.000
  181        0.000  -0.000   0.000  -0.000
  182       -0.000  -0.000   0.000  -0.000
  183       -0.000  -0.000   0.000  -0.000
  184       -0.000   0.000   0.000   0.000
  185        0.000  -0.000   0.000  -0.000
  186       -0.000  -0.000   0.000  -0.000
  187       -0.000  -0.000   0.000  -0.000
  188       -0.000  -0.000   0.000  -0.000
  189        0.000   0.000   0.000   0.000
  190       -0.000  -0.000   0.000  -0.000
  191        0.000  -0.000   0.000  -0.000
  192       -0.000  -0.000   0.000  -0.000
  193        0.000  -0.000   0.000  -0.000
  194       -0.000  -0.000   0.000  -0.000
  195        0.000   0.000   0.000   0.000
  196       -0.000  -0.000   0.000  -0.000
  197       -0.000  -0.000   0.000  -0.000
  198       -0.000  -0.000   0.000  -0.000
  199       -0.000   0.000   0.000   0.000
  200       -0.000  -0.000   0.000  -0.000
  201       -0.000  -0.000   0.000  -0.000
  202       -0.000  -0.000   0.000  -0.000
  203       -0.000  -0.000   0.000  -0.000
  204       -0.000  -0.000   0.000  -0.000
  205       -0.000  -0.000   0.000  -0.000
  206       -0.000  -0.000   0.000  -0.000
  207       -0.000  -0.000   0.000  -0.001
  208        0.000  -0.000   0.000  -0.000
  209       -0.000  -0.000   0.000  -0.000
  210        0.000   0.000   0.000   0.000
  211       -0.000  -0.000   0.000  -0.000
  212       -0.000  -0.000   0.000  -0.000
  213       -0.000  -0.000   0.000  -0.000
  214       -0.000  -0.000   0.000  -0.000
  215       -0.000  -0.000   0.000  -0.000
  216       -0.000  -0.000   0.000  -0.000
  217       -0.000  -0.000   0.000  -0.000
  218       -0.000  -0.000   0.000  -0.000
  219       -0.000  -0.000   0.000  -0.000
  220       -0.000   0.001   0.000   0.001
  221        0.000   0.000   0.000   0.000
  222        0.000  -0.000   0.000  -0.000
  223       -0.000  -0.000   0.000  -0.000
  224       -0.000  -0.000   0.000  -0.000
  225       -0.000  -0.000   0.000  -0.000
  226       -0.000   0.000   0.000   0.000
  227       -0.000  -0.001   0.000  -0.001
  228       -0.000  -0.000   0.000  -0.000
  229       -0.000   0.000   0.000  -0.000
  230       -0.000  -0.000   0.000  -0.000
  231        0.000   0.000   0.000   0.000
  232        0.000   0.000   0.000   0.000
  233       -0.000  -0.000   0.000  -0.000
  234       -0.000  -0.000   0.000  -0.000
  235       -0.000  -0.000   0.000  -0.000
  236        0.000  -0.000   0.000  -0.000
  237       -0.000  -0.000   0.000  -0.000
  238        0.000  -0.000   0.000  -0.000
  239       -0.000  -0.000   0.000  -0.000
  240       -0.000  -0.000   0.000  -0.000
  241       -0.000   0.002   0.000   0.002
  242       -0.000  -0.000   0.000  -0.000
  243       -0.000  -0.000   0.000  -0.000
  244        0.000   0.000   0.000   0.000
  245       -0.000  -0.000   0.000  -0.000
  246       -0.000  -0.000   0.000  -0.000
  247       -0.000  -0.000   0.000  -0.000
  248        0.000   0.000   0.000   0.000
  249       -0.000  -0.000   0.000  -0.000
  250       -0.000  -0.000   0.000  -0.000
  251        0.000   0.000   0.000   0.000
  252       -0.000   0.001   0.000   0.001
  253        0.000  -0.000   0.000  -0.000
  254       -0.000  -0.000   0.000  -0.000
  255       -0.000   0.000   0.000   0.000
  256       -0.000  -0.000   0.000  -0.000
  257       -0.000  -0.000   0.000  -0.000
--------------------------------------------------
tot          0.002  -0.041   0.977   0.937
 

 total amount of memory used by VASP MPI-rank0   291505. kBytes
=======================================================================

   base      :      30000. kBytes
   nonlr-proj:      49470. kBytes
   fftplans  :      27976. kBytes
   grid      :      34041. kBytes
   one-center:       1026. kBytes
   wavefun   :     148992. kBytes
 
  
  
 General timing and accounting informations for this job:
 ========================================================
  
                  Total CPU time used (sec):     5142.278
                            User time (sec):     4728.538
                          System time (sec):      413.740
                         Elapsed time (sec):     5185.364
  
                   Maximum memory used (kb):      628136.
                   Average memory used (kb):           0.
  
                          Minor page faults:       411923
                          Major page faults:           16
                 Voluntary context switches:        36884
