 vasp.5.4.4.18Apr17-6-g9f103f2a35 (build Jul 16 2019 12:12:28) complex          
  
 executed on             LinuxIFC date 2020.01.06  14:07:41
 running on   96 total cores
 distrk:  each k-point on   96 cores,    1 groups
 distr:  one band on NCORES_PER_BAND=   8 cores,   12 groups


--------------------------------------------------------------------------------------------------------


 INCAR:
 POTCAR:    PAW_PBE Li_sv 10Sep2004               
 POTCAR:    PAW_PBE Ti_pv 07Sep2000               
 POTCAR:    PAW_PBE O 08Apr2002                   
 POTCAR:    PAW_PBE F 08Apr2002                   
 POTCAR:    PAW_PBE Li_sv 10Sep2004               
   VRHFIN =Li: 1s2s2p                                                           
   LEXCH  = PE                                                                  
   EATOM  =   202.7858 eV,   14.9043 Ry                                         
                                                                                
   TITEL  = PAW_PBE Li_sv 10Sep2004                                             
   LULTRA =        F    use ultrasoft PP ?                                      
   IUNSCR =        0    unscreen: 0-lin 1-nonlin 2-no                           
   RPACOR =    0.000    partial core radius                                     
   POMASS =    7.010; ZVAL   =    3.000    mass and valenz                      
   RCORE  =    1.700    outmost cutoff radius                                   
   RWIGS  =    2.050; RWIGS  =    1.085    wigner-seitz radius (au A)           
   ENMAX  =  499.034; ENMIN  =  374.276 eV                                      
   ICORE  =        2    local potential                                         
   LCOR   =        T    correct aug charges                                     
   LPAW   =        T    paw PP                                                  
   EAUG   =  628.945                                                            
   RMAX   =    1.732    core radius for proj-oper                               
   RAUG   =    1.300    factor for augmentation sphere                          
   RDEP   =    1.728    radius for radial grids                                 
   RDEPT  =    1.329    core radius for aug-charge                              
                                                                                
   Atomic configuration                                                         
    4 entries                                                                   
     n  l   j            E        occ.                                          
     1  0  0.50       -51.8549   2.0000                                         
     2  0  0.50        -2.8742   1.0000                                         
     2  1  0.50        -1.3606   0.0000                                         
     3  2  1.50        -1.3606   0.0000                                         
   Description                                                                  
     l       E           TYP  RCUT    TYP  RCUT                                 
     0    -51.8548813     23  1.400                                             
     0     -2.8742052     23  1.700                                             
     1     -1.3605826     23  1.400                                             
     2     -1.3605826     23  1.400                                             
  local pseudopotential read in
  atomic valenz-charges read in
  non local Contribution for L=           0  read in
    real space projection operators read in
  non local Contribution for L=           0  read in
    real space projection operators read in
  non local Contribution for L=           1  read in
    real space projection operators read in
    PAW grid and wavefunctions read in
 
   number of l-projection  operators is LMAX  =           3
   number of lm-projection operators is LMMAX =           5
 
 POTCAR:    PAW_PBE Ti_pv 07Sep2000               
   VRHFIN =Ti: d3 s1                                                            
   LEXCH  = PE                                                                  
   EATOM  =  1042.5995 eV,   76.6289 Ry                                         
                                                                                
   TITEL  = PAW_PBE Ti_pv 07Sep2000                                             
   LULTRA =        F    use ultrasoft PP ?                                      
   IUNSCR =        1    unscreen: 0-lin 1-nonlin 2-no                           
   RPACOR =    2.200    partial core radius                                     
   POMASS =   47.880; ZVAL   =   10.000    mass and valenz                      
   RCORE  =    2.500    outmost cutoff radius                                   
   RWIGS  =    2.500; RWIGS  =    1.323    wigner-seitz radius (au A)           
   ENMAX  =  222.335; ENMIN  =  166.751 eV                                      
   RCLOC  =    1.701    cutoff for local pot                                    
   LCOR   =        T    correct aug charges                                     
   LPAW   =        T    paw PP                                                  
   EAUG   =  482.848                                                            
   DEXC   =    0.000                                                            
   RMAX   =    2.564    core radius for proj-oper                               
   RAUG   =    1.300    factor for augmentation sphere                          
   RDEP   =    2.538    radius for radial grids                                 
   RDEPT  =    1.952    core radius for aug-charge                              
                                                                                
   Atomic configuration                                                         
    8 entries                                                                   
     n  l   j            E        occ.                                          
     1  0  0.50     -4865.3608   2.0000                                         
     2  0  0.50      -533.1368   2.0000                                         
     2  1  1.50      -440.5031   6.0000                                         
     3  0  0.50       -59.3186   2.0000                                         
     3  1  1.50       -35.7012   6.0000                                         
     3  2  2.50        -1.9157   3.0000                                         
     4  0  0.50        -3.7291   1.0000                                         
     4  3  2.50        -1.3606   0.0000                                         
   Description                                                                  
     l       E           TYP  RCUT    TYP  RCUT                                 
     1    -35.7012140     23  2.300                                             
     1     -1.3605826     23  2.300                                             
     2     -1.9156996     23  2.500                                             
     2     -0.4063033     23  2.500                                             
     0     -3.7290856     23  2.500                                             
     0     20.4087390     23  2.500                                             
  local pseudopotential read in
  partial core-charges read in
  partial kinetic energy density read in
  atomic valenz-charges read in
  non local Contribution for L=           1  read in
    real space projection operators read in
  non local Contribution for L=           1  read in
    real space projection operators read in
  non local Contribution for L=           2  read in
    real space projection operators read in
  non local Contribution for L=           2  read in
    real space projection operators read in
  non local Contribution for L=           0  read in
    real space projection operators read in
  non local Contribution for L=           0  read in
    real space projection operators read in
    PAW grid and wavefunctions read in
 
   number of l-projection  operators is LMAX  =           6
   number of lm-projection operators is LMMAX =          18
 
 POTCAR:    PAW_PBE O 08Apr2002                   
   VRHFIN =O: s2p4                                                              
   LEXCH  = PE                                                                  
   EATOM  =   432.3788 eV,   31.7789 Ry                                         
                                                                                
   TITEL  = PAW_PBE O 08Apr2002                                                 
   LULTRA =        F    use ultrasoft PP ?                                      
   IUNSCR =        1    unscreen: 0-lin 1-nonlin 2-no                           
   RPACOR =    1.200    partial core radius                                     
   POMASS =   16.000; ZVAL   =    6.000    mass and valenz                      
   RCORE  =    1.520    outmost cutoff radius                                   
   RWIGS  =    1.550; RWIGS  =    0.820    wigner-seitz radius (au A)           
   ENMAX  =  400.000; ENMIN  =  300.000 eV                                      
   ICORE  =        2    local potential                                         
   LCOR   =        T    correct aug charges                                     
   LPAW   =        T    paw PP                                                  
   EAUG   =  605.392                                                            
   DEXC   =    0.000                                                            
   RMAX   =    1.553    core radius for proj-oper                               
   RAUG   =    1.300    factor for augmentation sphere                          
   RDEP   =    1.550    radius for radial grids                                 
   RDEPT  =    1.329    core radius for aug-charge                              
                                                                                
   Atomic configuration                                                         
    4 entries                                                                   
     n  l   j            E        occ.                                          
     1  0  0.50      -514.6923   2.0000                                         
     2  0  0.50       -23.9615   2.0000                                         
     2  1  0.50        -9.0305   4.0000                                         
     3  2  1.50        -9.5241   0.0000                                         
   Description                                                                  
     l       E           TYP  RCUT    TYP  RCUT                                 
     0    -23.9615318     23  1.200                                             
     0     -9.5240782     23  1.200                                             
     1     -9.0304911     23  1.520                                             
     1      8.1634956     23  1.520                                             
     2     -9.5240782      7  1.500                                             
  local pseudopotential read in
  partial core-charges read in
  partial kinetic energy density read in
  kinetic energy density of atom read in
  atomic valenz-charges read in
  non local Contribution for L=           0  read in
    real space projection operators read in
  non local Contribution for L=           0  read in
    real space projection operators read in
  non local Contribution for L=           1  read in
    real space projection operators read in
  non local Contribution for L=           1  read in
    real space projection operators read in
    PAW grid and wavefunctions read in
 
   number of l-projection  operators is LMAX  =           4
   number of lm-projection operators is LMMAX =           8
 
 POTCAR:    PAW_PBE F 08Apr2002                   
   VRHFIN =F: s2p5                                                              
   LEXCH  = PE                                                                  
   EATOM  =   659.6475 eV,   48.4827 Ry                                         
                                                                                
   TITEL  = PAW_PBE F 08Apr2002                                                 
   LULTRA =        F    use ultrasoft PP ?                                      
   IUNSCR =        1    unscreen: 0-lin 1-nonlin 2-no                           
   RPACOR =    1.200    partial core radius                                     
   POMASS =   18.998; ZVAL   =    7.000    mass and valenz                      
   RCORE  =    1.520    outmost cutoff radius                                   
   RWIGS  =    1.500; RWIGS  =    0.794    wigner-seitz radius (au A)           
   ENMAX  =  400.000; ENMIN  =  300.000 eV                                      
   ICORE  =        2    local potential                                         
   LCOR   =        T    correct aug charges                                     
   LPAW   =        T    paw PP                                                  
   EAUG   =  613.614                                                            
   RMAX   =    1.555    core radius for proj-oper                               
   RAUG   =    1.300    factor for augmentation sphere                          
   RDEP   =    1.539    radius for radial grids                                 
   RDEPT  =    1.299    core radius for aug-charge                              
                                                                                
   Atomic configuration                                                         
    4 entries                                                                   
     n  l   j            E        occ.                                          
     1  0  0.50      -663.3661   2.0000                                         
     2  0  0.50       -29.8995   2.0000                                         
     2  1  0.50       -11.1114   5.0000                                         
     3  2  1.50       -10.8847   0.0000                                         
   Description                                                                  
     l       E           TYP  RCUT    TYP  RCUT                                 
     0    -29.8995018     23  1.200                                             
     0     -9.5240782     23  1.200                                             
     1    -11.1113914     23  1.520                                             
     1      1.3605826     23  1.520                                             
     2    -10.8846608      7  1.500                                             
  local pseudopotential read in
  partial core-charges read in
  partial kinetic energy density read in
  atomic valenz-charges read in
  non local Contribution for L=           0  read in
    real space projection operators read in
  non local Contribution for L=           0  read in
    real space projection operators read in
  non local Contribution for L=           1  read in
    real space projection operators read in
  non local Contribution for L=           1  read in
    real space projection operators read in
    PAW grid and wavefunctions read in
 
   number of l-projection  operators is LMAX  =           4
   number of lm-projection operators is LMMAX =           8
 
 Optimization of the real space projectors (new method)

 maximal supplied QI-value         = 22.11
 optimisation between [QCUT,QGAM] = [ 11.28, 22.77] = [ 35.61,145.23] Ry 
 Optimized for a Real-space Cutoff    1.31 Angstroem

   l    n(q)    QCUT    max X(q) W(low)/X(q) W(high)/X(q)  e(spline) 
   0      9    11.276    10.506    0.19E-04    0.17E-04    0.32E-07
   0      9    11.276     8.367    0.38E-04    0.40E-04    0.65E-07
   1      8    11.276     8.983    0.55E-04    0.98E-04    0.20E-06
 Optimization of the real space projectors (new method)

 maximal supplied QI-value         = 15.12
 optimisation between [QCUT,QGAM] = [ 11.34, 22.83] = [ 36.00,145.93] Ry 
 Optimized for a Real-space Cutoff    1.56 Angstroem

   l    n(q)    QCUT    max X(q) W(low)/X(q) W(high)/X(q)  e(spline) 
   1     10    11.338     4.216    0.27E-04    0.12E-04    0.66E-07
   1     10    11.338     5.422    0.81E-04    0.24E-04    0.19E-06
   2     10    11.338    72.084    0.64E-04    0.21E-03    0.51E-06
   2     10    11.338    65.965    0.63E-04    0.21E-03    0.50E-06
   0     11    11.338    41.531    0.33E-04    0.54E-04    0.13E-06
   0     11    11.338    16.290    0.26E-04    0.41E-04    0.11E-06
 Optimization of the real space projectors (new method)

 maximal supplied QI-value         = 24.76
 optimisation between [QCUT,QGAM] = [ 11.39, 22.77] = [ 36.31,145.25] Ry 
 Optimized for a Real-space Cutoff    1.20 Angstroem

   l    n(q)    QCUT    max X(q) W(low)/X(q) W(high)/X(q)  e(spline) 
   0      8    11.387    20.381    0.89E-04    0.31E-03    0.27E-06
   0      8    11.387    15.268    0.93E-04    0.32E-03    0.29E-06
   1      8    11.387     5.964    0.53E-04    0.28E-03    0.29E-06
   1      8    11.387     5.382    0.37E-04    0.22E-03    0.26E-06
 Optimization of the real space projectors (new method)

 maximal supplied QI-value         = 24.76
 optimisation between [QCUT,QGAM] = [ 11.39, 22.77] = [ 36.31,145.25] Ry 
 Optimized for a Real-space Cutoff    1.20 Angstroem

   l    n(q)    QCUT    max X(q) W(low)/X(q) W(high)/X(q)  e(spline) 
   0      8    11.387    14.049    0.69E-04    0.23E-03    0.18E-06
   0      8    11.387     8.945    0.88E-04    0.30E-03    0.26E-06
   1      8    11.387     7.086    0.62E-04    0.27E-03    0.27E-06
   1      8    11.387     6.747    0.46E-04    0.23E-03    0.25E-06

 ----------------------------------------------------------------------------- 
|                                                                             |
|  ADVICE TO THIS USER RUNNING 'VASP/VAMP'   (HEAR YOUR MASTER'S VOICE ...):  |
|                                                                             |
|      You enforced a specific xc-type in the INCAR file,                     |
|      a different type was found on the POTCAR file                          |
|          I HOPE YOU KNOW, WHAT YOU ARE  DOING                               |
|                                                                             |
 ----------------------------------------------------------------------------- 

  PAW_PBE Li_sv 10Sep2004               :
 energy of atom  1       EATOM= -202.7858
 kinetic energy error for atom=    0.0143 (will be added to EATOM!!)
  PAW_PBE Ti_pv 07Sep2000               :
 energy of atom  2       EATOM=-1042.5995
 kinetic energy error for atom=    0.0024 (will be added to EATOM!!)
  PAW_PBE O 08Apr2002                   :
 energy of atom  3       EATOM= -432.3788
 kinetic energy error for atom=    0.0224 (will be added to EATOM!!)
  PAW_PBE F 08Apr2002                   :
 energy of atom  4       EATOM= -659.6475
 kinetic energy error for atom=    0.0354 (will be added to EATOM!!)
 
 
 POSCAR: config 11                               
  positions in direct lattice
  velocities in cartesian coordinates
 exchange correlation table for  LEXCH =       14
   RHO(1)=    0.500       N(1)  =     2000
   RHO(2)=  100.500       N(2)  =     4000

 VTST: version 3.2, (02/03/18)

 CHAIN: initializing optimizer
 
 OPT: Using VASP QUASI-newton optimizer
 CHAIN: Read ICHAIN            0
 
 POSCAR: config 11                               
  positions in direct lattice
  velocities in cartesian coordinates
 


--------------------------------------------------------------------------------------------------------


 ion  position               nearest neighbor table
   1  0.137  0.590  0.596- 173 2.00  77 2.01 235 2.16  66 2.17  37 2.78
   2  0.995  0.996  0.995- 118 1.87 103 1.88  68 1.88 171 2.02 212 2.04 130 2.04
   3  1.000  0.993  0.494-  67 1.82 119 1.82 172 1.94 193 1.94 131 2.01 213 2.08
   4  0.005  0.495  0.997-  89 1.84 117 1.85 138 1.95 132 1.99 194 2.01 214 2.02
   5  0.992  0.503  0.507- 104 1.80  66 1.87 215 1.93 223 1.98 137 2.01 173 2.05
   6  0.494  0.995  1.000- 101 1.83 121 1.85 140 1.94 133 1.96 216 2.02 174 2.03
   7  0.501  0.004  0.500- 112 1.89 191 1.99 139 2.00 134 2.00 175 2.01 225 2.03
   8  0.504  0.495  0.995- 120 1.88  70 1.88  90 1.89 192 2.03 217 2.04 135 2.04
   9  0.493  0.497  0.495- 102 1.83  69 1.85 224 1.92 218 1.99 136 2.01 176 2.04
  10  0.007  0.003  0.256-  91 1.83  67 1.87 219 1.95 227 1.97 130 2.00 197 2.04
  11  0.001  0.008  0.757-  68 1.79 113 1.84 177 1.94 198 1.98 228 2.05 131 2.06
  12  0.994  0.494  0.251- 107 1.82 122 1.86 137 1.95 132 1.97 220 2.00 178 2.02
  13  0.993  0.501  0.741- 108 1.81  66 1.87 226 1.92 221 1.96 138 2.01 179 2.05
  14  0.507  0.008  0.251- 114 1.83  92 1.84 139 1.89 133 1.94 195 2.02 231 2.06
  15  0.492  0.004  0.751- 105 1.82 115 1.85 134 1.92 140 1.95 232 2.03 180 2.04
  16  0.493  0.497  0.257-  69 1.83 106 1.84 229 1.94 222 1.99 135 2.01 181 2.05
  17  0.501  0.504  0.758-  70 1.80 116 1.87 182 1.95 196 1.99 230 2.02 136 2.06
  18  0.995  0.257  0.001- 117 1.83 110 1.87 141 1.96 146 1.97 183 2.01 212 2.01
  19  0.999  0.249  0.492-  74 1.77 213 1.91 202 1.91 184 1.93 223 1.97 142 2.01
  20  0.998  0.758  0.006- 118 1.80  71 1.86 203 1.94 185 1.97 148 2.05 214 2.06
  21  0.997  0.758  0.506- 119 1.81  72 1.85 204 1.93 186 1.97 147 2.01 215 2.04
  22  0.495  0.257  0.000- 120 1.80 109 1.85 150 1.96 143 1.97 187 2.03 216 2.06
  23  0.508  0.242  0.499- 112 1.78  93 1.84 144 1.94 149 1.96 199 2.02 224 2.04
  24  0.507  0.756  1.000-  94 1.83 121 1.83 152 1.93 145 1.98 217 2.02 200 2.02
  25  0.506  0.752  0.510-  73 1.79  95 1.83 225 1.93 218 1.96 201 2.02 151 2.08
  26  0.000  0.259  0.255- 122 1.80  74 1.88 209 1.94 188 1.95 141 1.99 219 2.02
  27  0.006  0.243  0.747- 113 1.80  96 1.84 142 1.96 146 1.96 210 2.04 226 2.07
  28  0.006  0.749  0.243-  71 1.81  97 1.84 220 1.95 227 1.97 211 2.05 147 2.05
  29  0.992  0.751  0.744- 111 1.82  72 1.85 228 1.93 221 1.98 148 2.02 189 2.02
  30  0.508  0.242  0.252- 114 1.81  98 1.83 143 1.93 149 1.95 229 2.02 205 2.03
  31  0.506  0.242  0.749- 115 1.83  99 1.85 150 1.94 144 1.95 206 2.02 230 2.04
  32  0.507  0.751  0.251- 100 1.79 231 1.92 151 1.92 145 1.94 222 1.94 207 2.01
  33  0.501  0.742  0.744- 116 1.81  73 1.84 190 1.93 208 1.98 152 2.02 232 2.04
  34  0.256  0.999  0.006-  75 1.84 101 1.86 246 1.94 233 1.97 171 2.01 157 2.04
  35  0.250  0.995  0.508-  76 1.84 128 1.85 191 1.90 172 1.96 234 2.02 156 2.04
  36  0.243  0.507  0.997- 123 1.82  89 1.84 159 1.95 153 1.97 192 2.01 245 2.03
  37  0.257  0.492  0.505- 102 1.83 127 1.84  77 1.91 158 2.01 173 2.09 235 2.09   1 2.78
  38  0.757  0.001  0.994- 103 1.80  81 1.87 236 1.96 249 1.96 154 2.03 174 2.04
  39  0.751  0.007  0.494- 124 1.83  80 1.84 175 1.91 193 1.95 155 2.01 250 2.04
  40  0.742  0.500  0.004-  90 1.80  78 1.87 237 1.95 247 1.95 161 2.04 194 2.05
  41  0.754  0.498  0.506-  79 1.83 104 1.88 248 1.93 238 1.97 176 1.98 160 2.01
  42  0.245  0.003  0.244-  75 1.84  91 1.85 239 1.94 252 1.97 156 2.03 195 2.03
  43  0.257  0.998  0.745- 105 1.83  76 1.84 253 1.94 240 1.97 157 2.02 177 2.02
  44  0.255  0.492  0.251- 129 1.82 106 1.83 158 1.96 153 1.96 241 2.03 178 2.03
  45  0.248  0.507  0.742-  77 1.82 125 1.83 179 1.95 196 1.96 251 2.01 159 2.04
  46  0.745  0.001  0.256-  92 1.84  80 1.85 256 1.96 242 1.96 154 2.01 197 2.01
  47  0.749  0.006  0.756-  81 1.82 126 1.83 180 1.94 198 1.97 155 2.04 257 2.04
  48  0.756  0.499  0.242-  78 1.81 107 1.86 243 1.95 254 1.95 181 2.02 160 2.06
  49  0.757  0.498  0.742-  79 1.84 108 1.85 255 1.92 244 1.97 161 2.02 182 2.02
  50  0.257  0.251  0.006- 109 1.83  82 1.86 245 1.94 233 1.97 168 2.02 183 2.04
  51  0.253  0.255  0.506- 127 1.83  83 1.84 199 1.93 234 2.01 184 2.01 167 2.03
  52  0.252  0.743  0.995- 123 1.82  86 1.84 200 1.94 185 1.96 162 2.02 246 2.03
  53  0.251  0.757  0.493-  85 1.83 128 1.83 201 1.94 186 1.99 235 2.04 163 2.05
  54  0.757  0.251  0.007- 110 1.81  84 1.85 236 1.94 247 1.95 187 2.03 170 2.03
  55  0.742  0.243  0.498-  93 1.80 124 1.82 169 1.94 164 1.97 248 2.04 202 2.07
  56  0.742  0.750  0.995-  94 1.81  88 1.84 237 1.94 249 1.94 203 2.02 165 2.04
  57  0.741  0.753  0.495-  95 1.81  87 1.86 250 1.93 238 1.97 166 2.01 204 2.03
  58  0.251  0.258  0.244-  82 1.83 129 1.83 205 1.95 188 1.99 239 2.03 167 2.03
  59  0.244  0.251  0.744-  96 1.84  83 1.84 251 1.94 240 1.97 168 2.02 206 2.04
  60  0.244  0.748  0.256-  97 1.83  85 1.84 241 1.94 252 1.97 162 2.03 207 2.06
  61  0.247  0.743  0.759-  86 1.82 125 1.83 189 1.93 208 1.96 253 2.02 163 2.05
  62  0.743  0.251  0.243-  84 1.80  98 1.82 242 1.94 254 1.94 169 2.05 209 2.05
  63  0.744  0.242  0.750- 126 1.82  99 1.84 170 1.94 164 1.99 210 2.03 255 2.05
  64  0.745  0.751  0.257-  87 1.82 100 1.89 243 1.94 256 1.94 211 1.98 165 2.03
  65  0.756  0.751  0.757- 111 1.83  88 1.83 257 1.92 244 1.97 190 2.02 166 2.05
  66  0.020  0.516  0.624-  13 1.87   5 1.87   1 2.17
  67  0.994  0.004  0.376-   3 1.82  10 1.87
  68  0.998  0.001  0.873-  11 1.79   2 1.88
  69  0.497  0.495  0.376-  16 1.83   9 1.85
  70  0.491  0.499  0.874-  17 1.80   8 1.88
  71  0.995  0.745  0.126-  28 1.81  20 1.86
  72  0.001  0.740  0.624-  21 1.85  29 1.85
  73  0.496  0.757  0.626-  25 1.79  33 1.84
  74  0.997  0.251  0.377-  19 1.77  26 1.88
  75  0.253  0.006  0.126-  42 1.84  34 1.84
  76  0.250  0.006  0.626-  43 1.84  35 1.84
  77  0.229  0.503  0.626-  45 1.82  37 1.91   1 2.01
  78  0.750  0.494  0.125-  48 1.81  40 1.87
  79  0.742  0.495  0.624-  41 1.83  49 1.84
  80  0.755  0.998  0.375-  39 1.84  46 1.85
  81  0.748  0.996  0.874-  47 1.82  38 1.87
  82  0.247  0.249  0.126-  58 1.83  50 1.86
  83  0.255  0.246  0.625-  51 1.84  59 1.84
  84  0.745  0.258  0.126-  62 1.80  54 1.85
  85  0.251  0.747  0.376-  53 1.83  60 1.84
  86  0.247  0.755  0.876-  61 1.82  52 1.84
  87  0.749  0.753  0.374-  64 1.82  57 1.86
  88  0.744  0.754  0.875-  65 1.83  56 1.84
  89  0.124  0.502  0.992-  36 1.84   4 1.84
  90  0.626  0.505  0.996-  40 1.80   8 1.89
  91  0.125  0.004  0.253-  10 1.83  42 1.85
  92  0.626  0.001  0.249-  14 1.84  46 1.84
  93  0.626  0.258  0.498-  55 1.80  23 1.84
  94  0.625  0.744  0.008-  56 1.81  24 1.83
  95  0.624  0.761  0.501-  57 1.81  25 1.83
  96  0.125  0.249  0.747-  27 1.84  59 1.84
  97  0.125  0.752  0.249-  60 1.83  28 1.84
  98  0.626  0.245  0.259-  62 1.82  30 1.83
  99  0.625  0.250  0.744-  63 1.84  31 1.85
 100  0.623  0.755  0.247-  32 1.79  64 1.89
 101  0.376  0.002  0.993-   6 1.83  34 1.86
 102  0.375  0.503  0.508-   9 1.83  37 1.83
 103  0.873  0.005  0.001-  38 1.80   2 1.88
 104  0.875  0.498  0.506-   5 1.80  41 1.88
 105  0.375  0.994  0.758-  15 1.82  43 1.83
 106  0.374  0.496  0.248-  44 1.83  16 1.84
 107  0.876  0.498  0.251-  12 1.82  48 1.86
 108  0.876  0.506  0.739-  13 1.81  49 1.85
 109  0.375  0.246  0.001-  50 1.83  22 1.85
 110  0.875  0.246  0.003-  54 1.81  18 1.87
 111  0.875  0.746  0.752-  29 1.82  65 1.83
 112  0.508  0.127  0.496-  23 1.78   7 1.89
 113  0.993  0.127  0.745-  27 1.80  11 1.84
 114  0.495  0.126  0.261-  30 1.81  14 1.83
 115  0.498  0.123  0.744-  31 1.83  15 1.85
 116  0.500  0.625  0.747-  33 1.81  17 1.87
 117  0.998  0.376  0.005-  18 1.83   4 1.85
 118  1.000  0.875  0.003-  20 1.80   2 1.87
 119  0.002  0.875  0.502-  21 1.81   3 1.82
 120  0.500  0.374  0.005-  22 1.80   8 1.88
 121  0.503  0.875  0.001-  24 1.83   6 1.85
 122  0.008  0.375  0.246-  26 1.80  12 1.86
 123  0.254  0.625  0.000-  52 1.82  36 1.82
 124  0.746  0.125  0.502-  55 1.82  39 1.83
 125  0.245  0.625  0.751-  45 1.83  61 1.83
 126  0.755  0.125  0.746-  63 1.82  47 1.83
 127  0.247  0.373  0.497-  51 1.83  37 1.84
 128  0.247  0.875  0.503-  53 1.83  35 1.85
 129  0.241  0.375  0.255-  44 1.82  58 1.83
 130  0.002  0.004  0.127-  10 2.00   2 2.04
 131  0.007  0.000  0.624-   3 2.01  11 2.06
 132  0.002  0.510  0.125-  12 1.97   4 1.99
 133  0.495  0.006  0.126-  14 1.94   6 1.96
 134  0.498  0.985  0.629-  15 1.92   7 2.00
 135  0.504  0.507  0.127-  16 2.01   8 2.04
 136  0.511  0.499  0.625-   9 2.01  17 2.06
 137  0.002  0.493  0.377-  12 1.95   5 2.01
 138  0.992  0.495  0.871-   4 1.95  13 2.01
 139  0.502  0.987  0.372-  14 1.89   7 2.00
 140  0.514  0.004  0.876-   6 1.94  15 1.95
 141  0.007  0.245  0.127-  18 1.96  26 1.99
 142  0.997  0.257  0.621-  27 1.96  19 2.01
 143  0.506  0.240  0.127-  30 1.93  22 1.97
 144  0.491  0.251  0.623-  23 1.94  31 1.95
 145  0.491  0.746  0.127-  32 1.94  24 1.98
 146  0.998  0.254  0.874-  27 1.96  18 1.97
 147  0.997  0.753  0.376-  21 2.01  28 2.05
 148  0.005  0.754  0.874-  29 2.02  20 2.05
 149  0.495  0.265  0.375-  30 1.95  23 1.96
 150  0.503  0.249  0.874-  31 1.94  22 1.96
 151  0.497  0.750  0.376-  32 1.92  25 2.08
 152  0.504  0.746  0.875-  24 1.93  33 2.02
 153  0.243  0.496  0.125-  44 1.96  36 1.97
 154  0.749  0.006  0.126-  46 2.01  38 2.03
 155  0.747  0.998  0.624-  39 2.01  47 2.04
 156  0.251  0.999  0.376-  42 2.03  35 2.04
 157  0.243  0.991  0.875-  43 2.02  34 2.04
 158  0.250  0.511  0.377-  44 1.96  37 2.01
 159  0.263  0.496  0.873-  36 1.95  45 2.04
 160  0.750  0.507  0.376-  41 2.01  48 2.06
 161  0.757  0.504  0.873-  49 2.02  40 2.04
 162  0.256  0.752  0.126-  52 2.02  60 2.03
 163  0.248  0.748  0.626-  61 2.05  53 2.05
 164  0.756  0.260  0.623-  55 1.97  63 1.99
 165  0.757  0.746  0.126-  64 2.03  56 2.04
 166  0.751  0.746  0.625-  57 2.01  65 2.05
 167  0.249  0.247  0.375-  51 2.03  58 2.03
 168  0.249  0.255  0.875-  59 2.02  50 2.02
 169  0.762  0.245  0.374-  55 1.94  62 2.05
 170  0.749  0.247  0.876-  63 1.94  54 2.03
 171  0.126  0.000  0.001-  34 2.01   2 2.02
 172  0.124  0.011  0.496-   3 1.94  35 1.96
 173  0.124  0.512  0.493-   1 2.00   5 2.05  37 2.09
 174  0.625  0.999  0.007-   6 2.03  38 2.04
 175  0.629  0.981  0.500-  39 1.91   7 2.01
 176  0.625  0.495  0.495-  41 1.98   9 2.04
 177  0.126  0.004  0.751-  11 1.94  43 2.02
 178  0.124  0.508  0.252-  12 2.02  44 2.03
 179  0.124  0.495  0.766-  45 1.95  13 2.05
 180  0.624  0.998  0.744-  47 1.94  15 2.04
 181  0.625  0.498  0.252-  48 2.02  16 2.05
 182  0.627  0.495  0.759-  17 1.95  49 2.02
 183  0.125  0.253  0.996-  18 2.01  50 2.04
 184  0.123  0.242  0.502-  19 1.93  51 2.01
 185  0.125  0.747  0.005-  52 1.96  20 1.97
 186  0.123  0.742  0.500-  21 1.97  53 1.99
 187  0.626  0.252  0.997-  54 2.03  22 2.03
 188  0.125  0.236  0.255-  26 1.95  58 1.99
 189  0.123  0.753  0.748-  61 1.93  29 2.02
 190  0.626  0.752  0.745-  33 1.93  65 2.02
 191  0.372  0.005  0.498-  35 1.90   7 1.99
 192  0.373  0.497  0.009-  36 2.01   8 2.03
 193  0.876  0.003  0.512-   3 1.94  39 1.95
 194  0.875  0.501  0.001-   4 2.01  40 2.05
 195  0.376  0.997  0.254-  14 2.02  42 2.03
 196  0.374  0.499  0.735-  45 1.96  17 1.99
 197  0.875  0.999  0.244-  46 2.01  10 2.04
 198  0.875  0.991  0.741-  47 1.97  11 1.98
 199  0.377  0.248  0.494-  51 1.93  23 2.02
 200  0.376  0.755  0.997-  52 1.94  24 2.02
 201  0.376  0.740  0.501-  53 1.94  25 2.02
 202  0.875  0.257  0.503-  19 1.91  55 2.07
 203  0.872  0.752  0.994-  20 1.94  56 2.02
 204  0.872  0.745  0.501-  21 1.93  57 2.03
 205  0.378  0.259  0.249-  58 1.95  30 2.03
 206  0.376  0.252  0.756-  31 2.02  59 2.04
 207  0.377  0.747  0.251-  32 2.01  60 2.06
 208  0.374  0.755  0.753-  61 1.96  33 1.98
 209  0.875  0.257  0.245-  26 1.94  62 2.05
 210  0.875  0.258  0.750-  63 2.03  27 2.04
 211  0.874  0.746  0.253-  64 1.98  28 2.05
 212  0.006  0.127  1.000-  18 2.01   2 2.04
 213  0.993  0.127  0.507-  19 1.91   3 2.08
 214  0.996  0.626  0.992-   4 2.02  20 2.06
 215  0.998  0.626  0.488-   5 1.93  21 2.04
 216  0.507  0.125  0.999-   6 2.02  22 2.06
 217  0.491  0.627  0.001-  24 2.02   8 2.04
 218  0.508  0.625  0.501-  25 1.96   9 1.99
 219  0.991  0.128  0.249-  10 1.95  26 2.02
 220  1.000  0.624  0.260-  28 1.95  12 2.00
 221  0.010  0.625  0.761-  13 1.96  29 1.98
 222  0.503  0.625  0.253-  32 1.94  16 1.99
 223  0.009  0.376  0.504-  19 1.97   5 1.98
 224  0.496  0.373  0.506-   9 1.92  23 2.04
 225  0.485  0.874  0.494-  25 1.93   7 2.03
 226  0.999  0.376  0.744-  13 1.92  27 2.07
 227  0.996  0.876  0.250-  28 1.97  10 1.97
 228  0.002  0.876  0.744-  29 1.93  11 2.05
 229  0.505  0.372  0.240-  16 1.94  30 2.02
 230  0.498  0.374  0.747-  17 2.02  31 2.04
 231  0.495  0.875  0.244-  32 1.92  14 2.06
 232  0.504  0.873  0.762-  15 2.03  33 2.04
 233  0.244  0.125  0.991-  50 1.97  34 1.97
 234  0.251  0.125  0.495-  51 2.01  35 2.02
 235  0.241  0.626  0.511-  53 2.04  37 2.09   1 2.16
 236  0.741  0.126  1.000-  54 1.94  38 1.96
 237  0.759  0.625  0.000-  56 1.94  40 1.95
 238  0.746  0.625  0.501-  57 1.97  41 1.97
 239  0.260  0.127  0.256-  42 1.94  58 2.03
 240  0.254  0.125  0.761-  59 1.97  43 1.97
 241  0.251  0.624  0.243-  60 1.94  44 2.03
 242  0.760  0.126  0.249-  62 1.94  46 1.96
 243  0.745  0.625  0.249-  64 1.94  48 1.95
 244  0.741  0.625  0.749-  49 1.97  65 1.97
 245  0.251  0.376  0.999-  50 1.94  36 2.03
 246  0.247  0.874  0.007-  34 1.94  52 2.03
 247  0.752  0.375  0.989-  54 1.95  40 1.95
 248  0.754  0.374  0.489-  41 1.93  55 2.04
 249  0.749  0.875  0.011-  56 1.94  38 1.96
 250  0.763  0.875  0.505-  57 1.93  39 2.04
 251  0.252  0.376  0.751-  59 1.94  45 2.01
 252  0.254  0.875  0.249-  60 1.97  42 1.97
 253  0.244  0.873  0.744-  43 1.94  61 2.02
 254  0.748  0.375  0.264-  62 1.94  48 1.95
 255  0.753  0.374  0.757-  49 1.92  63 2.05
 256  0.755  0.875  0.241-  64 1.94  46 1.96
 257  0.749  0.875  0.742-  65 1.92  47 2.04
 

IMPORTANT INFORMATION: All symmetrisations will be switched off!
NOSYMM: (Re-)initialisation of all symmetry stuff for point group C_1.

 
 
 KPOINTS: Title                                   

Automatic generation of k-mesh.
Space group operators:
 irot       det(A)        alpha          n_x          n_y          n_z        tau_x        tau_y        tau_z
    1     1.000000     0.000001     1.000000     0.000000     0.000000     0.000000     0.000000     0.000000
 
 Subroutine IBZKPT returns following result:
 ===========================================
 
 Found      4 irreducible k-points:
 
 Following reciprocal coordinates:
            Coordinates               Weight
  0.250000  0.250000  0.250000      2.000000
 -0.250000  0.250000  0.250000      2.000000
  0.250000 -0.250000  0.250000      2.000000
 -0.250000 -0.250000  0.250000      2.000000
 
 Following cartesian coordinates:
            Coordinates               Weight
  0.016206  0.016206  0.016206      2.000000
 -0.016206  0.016206  0.016206      2.000000
  0.016206 -0.016206  0.016206      2.000000
 -0.016206 -0.016206  0.016206      2.000000
 


--------------------------------------------------------------------------------------------------------




 Dimension of arrays:
   k-points           NKPTS =      4   k-points in BZ     NKDIM =      4   number of bands    NBANDS=   1164
   number of dos      NEDOS =   3001   number of ions     NIONS =    257
   non local maximal  LDIM  =      6   non local SUM 2l+1 LMDIM =     18
   total plane-waves  NPLWV = ******
   max r-space proj   IRMAX =   7595   max aug-charges    IRDMAX= 146383
   dimension x,y,z NGX =   120 NGY =  120 NGZ =  120
   dimension x,y,z NGXF=   240 NGYF=  240 NGZF=  240
   support grid    NGXF=   480 NGYF=  480 NGZF=  480
   ions per type =               1  64  64 128
   NGX,Y,Z   is equivalent  to a cutoff of  12.93, 12.93, 12.93 a.u.
   NGXF,Y,Z  is equivalent  to a cutoff of  25.86, 25.86, 25.86 a.u.

 SYSTEM =  LTO                                     
 POSCAR =  config 11                               

 Startparameter for this run:
   NWRITE =      2    write-flag & timer
   PREC   = accura    normal or accurate (medium, high low for compatibility)
   ISTART =      1    job   : 0-new  1-cont  2-samecut
   ICHARG =      0    charge: 1-file 2-atom 10-const
   ISPIN  =      2    spin polarized calculation?
   LNONCOLLINEAR =      F non collinear calculations
   LSORBIT =      F    spin-orbit coupling
   INIWAV =      1    electr: 0-lowe 1-rand  2-diag
   LASPH  =      T    aspherical Exc in radial PAW
   METAGGA=      F    non-selfconsistent MetaGGA calc.

 Electronic Relaxation 1
   ENCUT  =  500.0 eV  36.75 Ry    6.06 a.u.  28.13 28.13 28.13*2*pi/ulx,y,z
   ENINI  =  500.0     initial cutoff
   ENAUG  =  628.9 eV  augmentation charge cutoff
   NELM   =     60;   NELMIN=  2; NELMDL=  0     # of ELM steps 
   EDIFF  = 0.1E-05   stopping-criterion for ELM
   LREAL  =      T    real-space projection
   NLSPLINE    = F    spline interpolate recip. space projectors
   LCOMPAT=      F    compatible to vasp.4.4
   GGA_COMPAT  = T    GGA compatible to vasp.4.4-vasp.4.6
   LMAXPAW     = -100 max onsite density
   LMAXMIX     =    4 max onsite mixed and CHGCAR
   VOSKOWN=      0    Vosko Wilk Nusair interpolation
   ROPT   =   -0.00010  -0.00010  -0.00010  -0.00010
 Ionic relaxation
   EDIFFG = -.5E-01   stopping-criterion for IOM
   NSW    =    100    number of steps for IOM
   NBLOCK =      1;   KBLOCK =    100    inner block; outer block 
   IBRION =      1    ionic relax: 0-MD 1-quasi-New 2-CG
   NFREE  =      0    steps in history (QN), initial steepest desc. (CG)
   ISIF   =      2    stress and relaxation
   IWAVPR =     11    prediction:  0-non 1-charg 2-wave 3-comb
   ISYM   =      0    0-nonsym 1-usesym 2-fastsym
   LCORR  =      T    Harris-Foulkes like correction to forces

   POTIM  = 0.5000    time-step for ionic-motion
   TEIN   =    0.0    initial temperature
   TEBEG  =    0.0;   TEEND  =   0.0 temperature during run
   SMASS  =  -3.00    Nose mass-parameter (am)
   estimated Nose-frequenzy (Omega)   =  0.10E-29 period in steps =****** mass=  -0.544E-26a.u.
   SCALEE = 1.0000    scale energy and forces
   NPACO  =    256;   APACO  = 16.0  distance and # of slots for P.C.
   PSTRESS=    0.0 pullay stress

  Mass of Ions in am
   POMASS =   7.01 47.88 16.00 19.00
  Ionic Valenz
   ZVAL   =   3.00 10.00  6.00  7.00
  Atomic Wigner-Seitz radii
   RWIGS  =  -1.00 -1.00 -1.00 -1.00
  virtual crystal weights 
   VCA    =   1.00  1.00  1.00  1.00
   NELECT =    1923.0000    total number of electrons
   NUPDOWN=       1.0000    fix difference up-down

 DOS related values:
   EMIN   =  10.00;   EMAX   =-10.00  energy-range for DOS
   EFERMI =   0.00
   ISMEAR =     0;   SIGMA  =   0.01  broadening in eV -4-tet -1-fermi 0-gaus

 Electronic relaxation 2 (details)
   IALGO  =     38    algorithm
   LDIAG  =      T    sub-space diagonalisation (order eigenvalues)
   LSUBROT=      F    optimize rotation matrix (better conditioning)
   TURBO    =      0    0=normal 1=particle mesh
   IRESTART =      0    0=no restart 2=restart with 2 vectors
   NREBOOT  =      0    no. of reboots
   NMIN     =      0    reboot dimension
   EREF     =   0.00    reference energy to select bands
   IMIX   =      4    mixing-type and parameters
     AMIX     =   0.40;   BMIX     =  1.00
     AMIX_MAG =   1.60;   BMIX_MAG =  1.00
     AMIN     =   0.10
     WC   =   100.;   INIMIX=   1;  MIXPRE=   1;  MAXMIX= -45

 Intra band minimization:
   WEIMIN = 0.0010     energy-eigenvalue tresh-hold
   EBREAK =  0.21E-09  absolut break condition
   DEPER  =   0.30     relativ break condition  

   TIME   =   0.40     timestep for ELM

  volume/ion in A,a.u.               =      14.28        96.39
  Fermi-wavevector in a.u.,A,eV,Ry     =   1.319690  2.493853 23.695660  1.741582
  Thomas-Fermi vector in A             =   2.449570
 
 Write flags
   LWAVE        =      T    write WAVECAR
   LDOWNSAMPLE  =      F    k-point downsampling of WAVECAR
   LCHARG       =      T    write CHGCAR
   LVTOT        =      F    write LOCPOT, total local potential
   LVHAR        =      F    write LOCPOT, Hartree potential only
   LELF         =      F    write electronic localiz. function (ELF)
   LORBIT       =     11    0 simple, 1 ext, 2 COOP (PROOUT), +10 PAW based schemes


 Dipole corrections
   LMONO  =      F    monopole corrections only (constant potential shift)
   LDIPOL =      F    correct potential (dipole corrections)
   IDIPOL =      0    1-x, 2-y, 3-z, 4-all directions 
   EPSILON=  1.0000000 bulk dielectric constant

 LDA+U is selected, type is set to LDAUTYPE =  2
   angular momentum for each species LDAUL =    -1    2   -1   -1
   U (eV)           for each species LDAUU =   0.0  4.2  0.0  0.0
   J (eV)           for each species LDAUJ =   0.0  0.0  0.0  0.0
 Exchange correlation treatment:
   GGA     =    PS    GGA type
   LEXCH   =    14    internal setting for exchange type
   VOSKOWN=      0    Vosko Wilk Nusair interpolation
   LHFCALC =     F    Hartree Fock is set to
   LHFONE  =     F    Hartree Fock one center treatment
   AEXX    =    0.0000 exact exchange contribution

 Linear response parameters
   LEPSILON=     F    determine dielectric tensor
   LRPA    =     F    only Hartree local field effects (RPA)
   LNABLA  =     F    use nabla operator in PAW spheres
   LVEL    =     F    velocity operator in full k-point grid
   LINTERFAST=   F  fast interpolation
   KINTER  =     0    interpolate to denser k-point grid
   CSHIFT  =0.1000    complex shift for real part using Kramers Kronig
   OMEGAMAX=  -1.0    maximum frequency
   DEG_THRESHOLD= 0.2000000E-02 threshold for treating states as degnerate
   RTIME   =   -0.100 relaxation time in fs
  (WPLASMAI=    0.000 imaginary part of plasma frequency in eV, 0.658/RTIME)
   DFIELD  = 0.0000000 0.0000000 0.0000000 field for delta impulse in time
 
 Orbital magnetization related:
   ORBITALMAG=     F  switch on orbital magnetization
   LCHIMAG   =     F  perturbation theory with respect to B field
   DQ        =  0.001000  dq finite difference perturbation B field
   LLRAUG    =     F  two centre corrections for induced B field



--------------------------------------------------------------------------------------------------------


 quasi-Newton-method for relaxation of ions
 charge density and potential will be updated during run
 spin polarized calculation
 Variant of blocked Davidson
 Davidson routine will perform the subspace rotation
 perform sub-space diagonalisation
    after iterative eigenvector-optimisation
 modified Broyden-mixing scheme, WC =      100.0
 initial mixing is a Kerker type mixing with AMIX =  0.4000 and BMIX =      1.0000
 Hartree-type preconditioning will be used
 using additional bands          202
 real space projection scheme for non local part
 use partial core corrections
 calculate Harris-corrections to forces 
   (improved forces if not selfconsistent)
 use gradient corrections 
 use of overlap-Matrix (Vanderbilt PP)
 Gauss-broadening in eV      SIGMA  =   0.01


--------------------------------------------------------------------------------------------------------


  energy-cutoff  :      500.00
  volume of cell :     3671.03
      direct lattice vectors                 reciprocal lattice vectors
    15.426331000  0.000000000  0.000000000     0.064824228  0.000000000  0.000000000
     0.000000000 15.426331000  0.000000000     0.000000000  0.064824228  0.000000000
     0.000000000  0.000000000 15.426331000     0.000000000  0.000000000  0.064824228

  length of vectors
    15.426331000 15.426331000 15.426331000     0.064824228  0.064824228  0.064824228


 
 old parameters found on file WAVECAR:
  energy-cutoff  :      500.00
  volume of cell :     3671.03
      direct lattice vectors                 reciprocal lattice vectors
    15.426331000  0.000000000  0.000000000     0.064824228  0.000000000  0.000000000
     0.000000000 15.426331000  0.000000000     0.000000000  0.064824228  0.000000000
     0.000000000  0.000000000 15.426331000     0.000000000  0.000000000  0.064824228

  length of vectors

 
 k-points in units of 2pi/SCALE and weight: Title                                   
   0.01620606  0.01620606  0.01620606       0.250
  -0.01620606  0.01620606  0.01620606       0.250
   0.01620606 -0.01620606  0.01620606       0.250
  -0.01620606 -0.01620606  0.01620606       0.250
 
 k-points in reciprocal lattice and weights: Title                                   
   0.25000000  0.25000000  0.25000000       0.250
  -0.25000000  0.25000000  0.25000000       0.250
   0.25000000 -0.25000000  0.25000000       0.250
  -0.25000000 -0.25000000  0.25000000       0.250
 
 position of ions in fractional coordinates (direct lattice) 
   0.13651798  0.58970803  0.59644177
   0.99486925  0.99592318  0.99469462
   0.99989174  0.99287504  0.49371453
   0.00540246  0.49526958  0.99695957
   0.99180005  0.50261985  0.50689132
   0.49407518  0.99457929  0.99958476
   0.50118663  0.00405781  0.50045379
   0.50354788  0.49520189  0.99534146
   0.49314462  0.49738657  0.49536248
   0.00655226  0.00316559  0.25604452
   0.00077432  0.00800180  0.75675721
   0.99389443  0.49417278  0.25101458
   0.99304772  0.50059931  0.74102896
   0.50666366  0.00801723  0.25112134
   0.49208115  0.00372134  0.75121197
   0.49291531  0.49666130  0.25671817
   0.50073726  0.50420009  0.75781027
   0.99505798  0.25734536  0.00128922
   0.99859658  0.24915706  0.49164082
   0.99760969  0.75827756  0.00622376
   0.99672281  0.75764541  0.50605539
   0.49468006  0.25747926  0.00035923
   0.50799426  0.24180032  0.49897893
   0.50733512  0.75638549  0.99955719
   0.50588710  0.75188105  0.50985300
   0.00013811  0.25898629  0.25494374
   0.00569072  0.24250903  0.74719030
   0.00632188  0.74867039  0.24290502
   0.99194886  0.75137934  0.74376538
   0.50812106  0.24185055  0.25181626
   0.50606387  0.24162319  0.74866334
   0.50676251  0.75136573  0.25143950
   0.50120818  0.74221012  0.74384472
   0.25615975  0.99902591  0.00647771
   0.24980263  0.99484084  0.50761314
   0.24346758  0.50740267  0.99719529
   0.25719121  0.49150359  0.50539040
   0.75726949  0.00071602  0.99424913
   0.75054287  0.00673037  0.49417209
   0.74189401  0.50041725  0.00448835
   0.75355449  0.49796215  0.50587260
   0.24497242  0.00294261  0.24434860
   0.25718186  0.99817346  0.74525588
   0.25516832  0.49234972  0.25124888
   0.24750993  0.50658110  0.74197960
   0.74535965  0.00051611  0.25569133
   0.74868088  0.00641619  0.75596041
   0.75571344  0.49933558  0.24249224
   0.75672559  0.49817150  0.74236835
   0.25716116  0.25100946  0.00583601
   0.25281666  0.25480214  0.50640783
   0.25155191  0.74272699  0.99504878
   0.25113814  0.75698078  0.49347860
   0.75716054  0.25054109  0.00705931
   0.74206472  0.24300393  0.49788890
   0.74161619  0.75013130  0.99477703
   0.74098752  0.75305895  0.49476769
   0.25128470  0.25765751  0.24377110
   0.24394427  0.25081599  0.74421556
   0.24357624  0.74839395  0.25625300
   0.24738394  0.74340986  0.75881817
   0.74262845  0.25086122  0.24258786
   0.74395678  0.24190033  0.75032655
   0.74528588  0.75068478  0.25675689
   0.75636884  0.75133345  0.75731275
   0.01982792  0.51630461  0.62418429
   0.99377462  0.00383082  0.37643923
   0.99795426  0.00136067  0.87270380
   0.49718861  0.49512672  0.37556876
   0.49112036  0.49905060  0.87409905
   0.99545992  0.74457498  0.12588271
   0.00105960  0.73989124  0.62448996
   0.49649844  0.75691462  0.62562039
   0.99731841  0.25107188  0.37673522
   0.25325381  0.00610265  0.12562621
   0.25044517  0.00590740  0.62646014
   0.22939423  0.50294977  0.62550285
   0.74952811  0.49354782  0.12547137
   0.74195094  0.49469513  0.62413413
   0.75463363  0.99796904  0.37500739
   0.74839903  0.99639743  0.87372012
   0.24723149  0.24864707  0.12581939
   0.25489541  0.24636556  0.62528694
   0.74483715  0.25773298  0.12593073
   0.25121856  0.74697292  0.37551568
   0.24700122  0.75462892  0.87619012
   0.74857255  0.75346145  0.37439791
   0.74415573  0.75442910  0.87543373
   0.12448494  0.50192891  0.99179436
   0.62589518  0.50464962  0.99576975
   0.12509374  0.00397143  0.25297114
   0.62599826  0.00140760  0.24901326
   0.62634680  0.25767474  0.49810163
   0.62496959  0.74401567  0.00825501
   0.62397304  0.76082237  0.50068772
   0.12466474  0.24899978  0.74726148
   0.12535638  0.75156667  0.24896656
   0.62615842  0.24497780  0.25936392
   0.62536699  0.24968007  0.74386922
   0.62290765  0.75476338  0.24730045
   0.37565166  0.00154910  0.99306903
   0.37533416  0.50347332  0.50836866
   0.87338694  0.00486898  0.00131692
   0.87540864  0.49845134  0.50647848
   0.37484436  0.99381519  0.75783687
   0.37388174  0.49586010  0.24767582
   0.87601782  0.49817498  0.25133541
   0.87607511  0.50634684  0.73864450
   0.37542436  0.24606626  0.00133083
   0.87460868  0.24567671  0.00345173
   0.87462435  0.74577948  0.75216389
   0.50840864  0.12656943  0.49551272
   0.99295672  0.12670007  0.74492393
   0.49497514  0.12553031  0.26144622
   0.49802324  0.12306246  0.74447639
   0.49986041  0.62497645  0.74713288
   0.99816552  0.37567395  0.00518101
   0.99959886  0.87506407  0.00259278
   0.00208012  0.87493229  0.50207174
   0.50013080  0.37408883  0.00508401
   0.50256743  0.87490814  0.00132098
   0.00825821  0.37478170  0.24557382
   0.25375777  0.62517972  0.00003186
   0.74608998  0.12501444  0.50248091
   0.24494408  0.62475426  0.75142841
   0.75488752  0.12480855  0.74645288
   0.24678015  0.37311714  0.49734555
   0.24690233  0.87515708  0.50264788
   0.24094364  0.37507440  0.25536527
   0.00187618  0.00373766  0.12665408
   0.00749817  0.00019275  0.62379966
   0.00219991  0.51040816  0.12491944
   0.49455554  0.00558641  0.12597429
   0.49769502  0.98472101  0.62859518
   0.50380873  0.50669269  0.12711136
   0.51086284  0.49880352  0.62465197
   0.00196753  0.49256159  0.37747494
   0.99157455  0.49510956  0.87146291
   0.50246241  0.98719741  0.37208549
   0.51400497  0.00424062  0.87551116
   0.00676498  0.24494168  0.12714240
   0.99686230  0.25686906  0.62146829
   0.50592923  0.24043500  0.12652951
   0.49070886  0.25143526  0.62326483
   0.49145679  0.74573712  0.12668832
   0.99794027  0.25352186  0.87382790
   0.99706039  0.75336483  0.37570380
   0.00473278  0.75359092  0.87383266
   0.49482665  0.26527946  0.37505698
   0.50343833  0.24885472  0.87412790
   0.49658302  0.75007785  0.37556039
   0.50417386  0.74645924  0.87468720
   0.24276266  0.49599038  0.12459399
   0.74948794  0.00612833  0.12577822
   0.74664387  0.99765408  0.62407583
   0.25126910  0.99860254  0.37556490
   0.24279460  0.99113729  0.87529128
   0.24974908  0.51072451  0.37652667
   0.26265149  0.49597420  0.87301014
   0.75006181  0.50723907  0.37567767
   0.75676223  0.50440003  0.87319002
   0.25580734  0.75217495  0.12553047
   0.24782735  0.74786987  0.62617681
   0.75564699  0.26027798  0.62338917
   0.75680579  0.74568078  0.12587665
   0.75058604  0.74613233  0.62465139
   0.24918096  0.24662890  0.37503375
   0.24910600  0.25505742  0.87508708
   0.76172857  0.24473036  0.37363983
   0.74926421  0.24700232  0.87576803
   0.12580144  0.00002635  0.00120018
   0.12433190  0.01068224  0.49575708
   0.12391248  0.51210029  0.49311958
   0.62542563  0.99896559  0.00706394
   0.62931190  0.98114362  0.50029365
   0.62542113  0.49535950  0.49499419
   0.12636020  0.00411898  0.75058742
   0.12425445  0.50842730  0.25158996
   0.12368368  0.49484186  0.76621052
   0.62407672  0.99754449  0.74449557
   0.62547578  0.49843312  0.25246587
   0.62677892  0.49513774  0.75861494
   0.12498743  0.25253301  0.99610952
   0.12327617  0.24204786  0.50215214
   0.12506488  0.74684434  0.00531751
   0.12335987  0.74176188  0.50034065
   0.62611806  0.25231324  0.99659282
   0.12463656  0.23632703  0.25474386
   0.12286258  0.75281306  0.74815443
   0.62626222  0.75161977  0.74507810
   0.37211359  0.00499547  0.49826579
   0.37304960  0.49718040  0.00946267
   0.87566362  0.00253726  0.51181250
   0.87499930  0.50055001  0.00103210
   0.37634090  0.99650996  0.25384111
   0.37388677  0.49850944  0.73515384
   0.87496640  0.99880483  0.24407261
   0.87464651  0.99090079  0.74095291
   0.37737883  0.24838195  0.49401043
   0.37642726  0.75515621  0.99688945
   0.37553352  0.74044915  0.50081758
   0.87520111  0.25657576  0.50283674
   0.87236347  0.75214647  0.99443932
   0.87242453  0.74528390  0.50130586
   0.37776048  0.25887152  0.24867482
   0.37554622  0.25164500  0.75561306
   0.37673846  0.74746102  0.25143638
   0.37411934  0.75453621  0.75346629
   0.87502792  0.25742343  0.24500272
   0.87463605  0.25761676  0.75009825
   0.87377910  0.74587186  0.25293149
   0.00624843  0.12739417  0.99982503
   0.99296875  0.12664528  0.50718644
   0.99583403  0.62550458  0.99198500
   0.99781385  0.62637716  0.48821570
   0.50650346  0.12470888  0.99904943
   0.49130873  0.62671799  0.00079105
   0.50765777  0.62537636  0.50063427
   0.99104630  0.12828949  0.24883608
   0.99965628  0.62353957  0.26040709
   0.01046245  0.62522218  0.76064839
   0.50252241  0.62542115  0.25349578
   0.00938914  0.37569168  0.50386601
   0.49562941  0.37336527  0.50639065
   0.48511206  0.87392598  0.49389067
   0.99879754  0.37634208  0.74365970
   0.99569133  0.87590399  0.24986848
   0.00161082  0.87590702  0.74434400
   0.50498775  0.37242797  0.23952225
   0.49772858  0.37356300  0.74694024
   0.49542262  0.87511650  0.24380126
   0.50380403  0.87336032  0.76182310
   0.24397329  0.12508151  0.99057440
   0.25088250  0.12527197  0.49482290
   0.24110231  0.62607998  0.51104071
   0.74059164  0.12628429  0.99990335
   0.75866809  0.62548778  0.00024054
   0.74552142  0.62549606  0.50096455
   0.26047383  0.12713783  0.25611510
   0.25416359  0.12477017  0.76148427
   0.25126660  0.62371262  0.24279053
   0.76041032  0.12645941  0.24912976
   0.74523407  0.62514157  0.24859818
   0.74148767  0.62457430  0.74928419
   0.25081680  0.37631352  0.99940179
   0.24724470  0.87373879  0.00685433
   0.75172998  0.37520677  0.98881784
   0.75389848  0.37412462  0.48873323
   0.74880141  0.87492274  0.01057206
   0.76323744  0.87542516  0.50535732
   0.25232581  0.37644638  0.75054350
   0.25383253  0.87548702  0.24920687
   0.24409367  0.87316980  0.74353783
   0.74788480  0.37483242  0.26385230
   0.75279774  0.37444802  0.75698732
   0.75547923  0.87505407  0.24067781
   0.74887494  0.87488151  0.74224714
 
 position of ions in cartesian coordinates  (Angst):
   2.10597152  9.09703123  9.20090815
  15.34718230 15.36344063 15.34448850
  15.42466101 15.31641896  7.61620382
   0.08334019  7.64019250 15.37942836
  15.29983592  7.75358025  7.81947324
   7.62176726 15.34270926 15.41992530
   7.73147086  0.06259715  7.72016582
   7.76789624  7.63914829 15.35446686
   7.60741221  7.67284987  7.64162563
   0.10107740  0.04883342  3.94982744
   0.01194485  0.12343844 11.67398728
  15.33214450  7.62327291  3.87223398
  15.31908287  7.72241071 11.43135806
   7.81596137  0.12367651  3.87388092
   7.59100672  0.05740669 11.58844447
   7.60387479  7.66166167  3.96021948
   7.72453876  7.77795742 11.69023211
  15.35009370  3.96989473  0.01988794
  15.40468144  3.84357933  7.58421408
  15.38945721 11.69744060  0.09600978
  15.37577601 11.68768883  7.80657795
   7.63109832  3.97196031  0.00554163
   7.83648756  3.73009180  7.69741419
   7.82631951 11.66825289 15.41950011
   7.80398187 11.59876597  7.86516111
   0.00213060  3.99520822  3.93284655
   0.08778693  3.74102457 11.52640488
   0.09752337 11.54923728  3.74713324
  15.30213138 11.59102647 11.47357092
   7.83844363  3.73086663  3.88460098
   7.80670877  3.72735928 11.54912845
   7.81748624 11.59081645  3.87878901
   7.73180332 11.44957902 11.47479488
   3.95160512 15.41130439  0.09992726
   3.85353807 15.34674415  7.83060834
   3.75581152  7.82736150 15.38306461
   3.96751678  7.58209702  7.79631963
  11.68188979  0.01104549 15.33761614
  11.57812278  0.10382493  7.62326229
  11.44470261  7.71960219  0.06923871
  11.62458103  7.68172891  7.80375810
   3.77902568  0.04539363  3.76940234
   3.96737257 15.39815411 11.49656381
   3.93631098  7.59514967  3.87584838
   3.81817015  7.81468769 11.44602297
  11.49816467  0.00796165  3.94437914
  11.54939910  0.09897821 11.66169550
  11.65788560  7.70291598  3.74076563
  11.67349935  7.68495851 11.45201993
   3.96705321  3.87215505  0.09002824
   3.90003355  3.93066217  7.81201484
   3.88052297 11.45755241 15.34995182
   3.87414011 11.67743603  7.61256415
  11.68020905  3.86492980  0.10889919
  11.44733605  3.74865904  7.68059892
  11.44041676 11.57177366 15.34575972
  11.43071873 11.61693667  7.63245018
   3.87640101  3.97471003  3.76049367
   3.76316501  3.86917049 11.48051554
   3.75748768 11.54497272  3.95304358
   3.81622651 11.46808658 11.70578020
  11.45603227  3.86986829  3.74224062
  11.47652351  3.73163458 11.57478565
  11.49702675 11.58031189  3.96081682
  11.66799616 11.59031849 11.68255723
   0.30587205  7.96468574  9.62887353
  15.33029627  0.05909556  5.80707622
  15.39477276  0.02099015 13.46261768
   7.66979600  7.63798867  5.79364796
   7.57618523  7.69851971 13.48414134
  15.35629417 11.48606013  1.94190840
   0.01634571 11.41380718  9.63358889
   7.65914923 11.67641554  9.65102717
  15.38496396  3.87311792  5.81164221
   3.90677713  0.09414152  1.93795152
   3.86345011  0.09112944  9.66398151
   3.53871126  7.75866967  9.64921405
  11.56246874  7.61363201  1.93556282
  11.44558084  7.63133084  9.62809967
  11.64122820 15.39500071  5.78498819
  11.54505118 15.37075661 13.47829570
   3.81387476  3.83571196  1.94093153
   3.93210098  3.80051666  9.64588328
  11.49010440  3.97587429  1.94264915
   3.87538067 11.52305153  5.79282921
   3.81032260 11.64115544 13.51639875
  11.54772798 11.62314568  5.77558616
  11.47959256 11.63807303 13.50473056
   1.92034591  7.74292151 15.29974808
   9.65526617  7.78489211 15.36107381
   1.92973737  0.06126466  3.90241649
   9.65685631  0.02171413  3.84136094
   9.66223307  3.97497589  7.68388064
   9.64098783 11.47743206  0.12734452
   9.62561463 11.73669771  7.72377447
   1.92311959  3.84115309 11.52750298
   1.93378901 11.59391625  3.84064054
   9.65932704  3.77910862  4.00103361
   9.64711821  3.85164739 11.47517276
   9.60917953 11.64322973  3.81493862
   5.79492687  0.02389688 15.31941160
   5.79002901  7.76674602  7.84226316
  13.47315607  0.07511055  0.02031519
  13.50434346  7.68927532  7.81310466
   5.78247321 15.33092205 11.69064239
   5.76762353  7.64930208  3.82072921
  13.51374079  7.68501214  3.87718325
  13.51462470  7.81107392 11.39457448
   5.79142039  3.79589964  0.02052981
  13.49200305  3.78989022  0.05324749
  13.49224468 11.50464113 11.60312906
   7.84287992  1.95250193  7.64394326
  15.31767911  1.95451728 11.49144313
   7.63565034  1.93647216  4.03315601
   7.68267142  1.89840231 11.48453924
   7.71101213  9.64109363 11.52551905
  15.39803174  5.79527074  0.07992402
  15.42014289 13.49902801  0.03999705
   0.03208863 13.49699515  7.74512478
   7.71518327  5.77081810  0.07842761
   7.75277145 13.49662255  0.02037792
   0.12739387  5.78150650  3.78830302
   3.91455130  9.64422933  0.00049153
  11.50943100  1.92851418  7.75143691
   3.77858850  9.63766605 11.59178335
  11.64514482  1.92533805 11.51502914
   3.80691225  5.75582843  7.67221713
   3.80879702 13.50046276  7.75401259
   3.71687629  5.78602179  3.93934913
   0.02894256  0.05765835  1.95380784
   0.11566918  0.00297336  9.62294003
   0.03393660  7.87372518  1.92704861
   7.62917751  0.08617782  1.94332109
   7.67760813 15.19063220  9.69691738
   7.77192025  7.81640914  1.96086196
   7.88073921  7.69470819  9.63608800
   0.03035182  7.59841810  5.82305338
  15.29635715  7.63772402 13.44347532
   7.75115147 15.22883397  5.73991393
   7.92921081  0.06541715 13.50592496
   0.10435880  3.77855148  1.96134080
  15.37792783  3.96254707  9.58697560
   7.80463172  3.70902982  1.95188613
   7.56983728  3.87872353  9.61468955
   7.58137504 11.50398764  1.95433598
  15.39455695  3.91091214 13.47995849
  15.38098365 11.62165524  5.79573115
   0.07300945 11.62514292 13.48003180
   7.63335968  4.09228871  5.78575315
   7.76620631  3.83891535 13.48458638
   7.66045409 11.57094927  5.79351885
   7.77755282 11.51512728 13.49321434
   3.74493714  7.65131178  1.92202808
  11.56184900  0.09453761  1.94029640
  11.51797541 15.39014202  9.62720036
   3.87616029 15.40477338  5.79358851
   3.74542982 15.28961188 13.50253303
   3.85271202  7.87860538  5.80842504
   4.05174886  7.65106210 13.46734337
  11.57070169  7.82483780  5.79532809
  11.67406461  7.78104189 13.47011822
   3.94616864 11.60329980  1.93647457
   3.82306678 11.53688816  9.65961067
  11.65686056  4.01513424  9.61660769
  11.67473669 11.50311848  1.94181490
  11.57878874 11.51008430  9.63607903
   3.84394804  3.80457912  5.78539472
   3.84279158  3.93460023 13.49938296
  11.75067702  3.77529160  5.76389167
  11.55839773  3.81033948 13.50988756
   1.94065468  0.00040649  0.01851434
   1.91798509  0.16478778  7.64771277
   1.91151495  7.89982861  7.60702581
   9.64802282 15.41037383  0.10897064
   9.70797371 15.13544621  7.71769539
   9.64795329  7.64157967  7.63594428
   1.94927421  0.06354077 11.57880994
   1.91679027  7.84316782  3.88110993
   1.90798534  7.63359437 11.81981705
   9.62721399 15.38845146 11.48483505
   9.64879640  7.68899434  3.89462208
   9.66889902  7.63815862 11.70264515
   1.92809744  3.89565776 15.36631510
   1.90169899  3.73391038  7.74636518
   1.92929223 11.52106801  0.08202962
   1.90299025 11.44266428  7.71842053
   9.65870445  3.89226758 15.37377078
   1.92268487  3.64565903  3.92976309
   1.89531890 11.61314338 11.54127791
   9.66092831 11.59473536 11.49382138
   5.74034734  0.07706176  7.68641295
   5.75478656  7.66966944  0.14597425
  13.50827682  0.03914059  7.89538906
  13.49802879  7.72165020  0.01592156
   5.80555927 15.37249244  3.91583697
   5.76770101  7.69017168 11.34072641
  13.49752135 15.40789385  3.76514486
  13.49258661 15.28596356 11.43018482
   5.82157074  3.83162215  7.62076836
   5.80689153 11.64928961 15.37834659
   5.79310433 11.42241373  7.72577773
  13.50114208  3.95802257  7.75692606
  13.45736768 11.60286047 15.34055006
  13.45830955 11.49699616  7.73331013
   5.82745813  3.99343779  3.83614005
   5.79330037  3.88195910 11.65633722
   5.81169221 11.53058104  3.87874087
   5.77128874 11.63972533 11.62322042
  13.49847040  3.97109897  3.77949312
  13.49242522  3.97408135 11.57126384
  13.47920563 11.50606612  3.90180489
   0.09639036  1.96522470 15.42363180
  15.31786462  1.95367202  7.82402589
  15.36206534  9.64924065 15.30268899
  15.39260676  9.66270143  7.53137697
   7.81349003  1.92380045 15.41166723
   7.57909107  9.66795911  0.01220305
   7.83129678  9.64726278  7.72295002
  15.28820824  1.97903609  3.83862779
  15.42102869  9.61892773  4.01712597
   0.16139719  9.64488429 11.73401378
   7.75207701  9.64795372  3.91050988
   0.14483991  5.79554418  7.77280380
   7.64574340  5.75965629  7.81174972
   7.48349927 13.48147139  7.61892102
  15.40778138  5.80557749 11.47194062
  15.35986403 13.51198483  3.85455383
   0.02484901 13.51203168 11.48249693
   7.79010815  5.74519707  3.69494959
   7.67812589  5.76270649 11.52254733
   7.64255325 13.49983679  3.76095888
   7.77184775 13.47274543 11.75213526
   3.76361269  1.92954883 15.28092858
   3.87019649  1.93248687  7.63330180
   3.71932408  9.65811707  7.88348318
  11.42461174  1.94810331 15.42484007
  11.70346507  9.64898156  0.00371070
  11.50066023  9.64910931  7.72804490
   4.01815547  1.96127025  3.95091631
   3.92081166  1.92474597 11.74690835
   3.87612180  9.62159732  3.74536702
  11.73034137  1.95080478  3.84315808
  11.49622749  9.64364079  3.83495780
  11.43843422  9.63488983 11.55870592
   3.86918304  5.80513698 15.41710286
   3.81407859 13.47858375  0.10573720
  11.59643552  5.78806388 15.25383133
  11.62988754  5.77137016  7.53936061
  11.55125846 13.49684774  0.16308807
  11.77395331 13.50459828  7.79580928
   3.89246146  5.80718639 11.57813244
   3.91570458 13.50555255  3.84434772
   3.76546976 13.46980640 11.47006074
  11.53711851  5.78228902  4.07027291
  11.61290705  5.77635906 11.67753692
  11.65427271 13.49887375  3.71277558
  11.55239268 13.49621183 11.45015003
 


--------------------------------------------------------------------------------------------------------


 k-point  1 :   0.2500 0.2500 0.2500  plane waves:   93161
 k-point  2 :  -0.2500 0.2500 0.2500  plane waves:   93161
 k-point  3 :   0.2500-0.2500 0.2500  plane waves:   93161
 k-point  4 :  -0.2500-0.2500 0.2500  plane waves:   93161

 maximum and minimum number of plane-waves per node :     11686    11606

 maximum number of plane-waves:     93161
 maximum index in each direction: 
   IXMAX=   28   IYMAX=   28   IZMAX=   27
   IXMIN=  -28   IYMIN=  -28   IZMIN=  -28


 real space projection operators:
  total allocation   :     105590.41 KBytes
  max/ min on nodes  :      13249.40      13148.77


 parallel 3D FFT for wavefunctions:
    minimum data exchange during FFTs selected (reduces bandwidth)
 parallel 3D FFT for charge:
    minimum data exchange during FFTs selected (reduces bandwidth)


 total amount of memory used by VASP MPI-rank0   291551. kBytes
=======================================================================

   base      :      30000. kBytes
   nonlr-proj:      49516. kBytes
   fftplans  :      27976. kBytes
   grid      :      34041. kBytes
   one-center:       1026. kBytes
   wavefun   :     148992. kBytes
 
     INWAV:  cpu time   58.3119: real time   58.8219
 Broyden mixing: mesh for mixing (old mesh)
   NGX = 57   NGY = 57   NGZ = 57
  (NGX  =240   NGY  =240   NGZ  =240)
  gives a total of 185193 points

 charge density for first step will be calculated from the start-wavefunctions


--------------------------------------------------------------------------------------------------------


 Maximum index for non-local projection operator          967
 Maximum index for augmentation-charges         3295 (set IRDMAX)


--------------------------------------------------------------------------------------------------------


 initial charge from wavefunction
 First call to EWALD:  gamma=   0.115
 Maximum number of real-space cells 3x 3x 3
 Maximum number of reciprocal cells 3x 3x 3

    FEWALD:  cpu time    0.0268: real time    0.0268


--------------------------------------- Iteration      1(   1)  ---------------------------------------


    POTLOK:  cpu time    0.2710: real time    0.2739
    SETDIJ:  cpu time    1.3779: real time    1.3791
     EDDAV:  cpu time  138.5064: real time  139.4899
       DOS:  cpu time    0.0023: real time    0.0023
    CHARGE:  cpu time    5.2431: real time    5.2471
    MIXING:  cpu time    0.0160: real time    0.0160
    --------------------------------------------
      LOOP:  cpu time  145.4168: real time  146.4084

 eigenvalue-minimisations  : 24624
 total energy-change (2. order) :-0.1758262E+04  (-0.1353557E-05)
 number of electron    1923.0000024 magnetization       1.0000000
 augmentation part      496.9839926 magnetization       0.5799040

 Broyden mixing:
  rms(total) = 0.88090E-03    rms(broyden)= 0.86344E-03
  rms(prec ) = 0.97804E-03
  weight for this iteration     100.00

 Free energy of the ion-electron system (eV)
  ---------------------------------------------------
  alpha Z        PSCENC =      6118.73324990
  Ewald energy   TEWEN  =   -103207.49285764
  -Hartree energ DENC   =    -65416.40446274
  -exchange      EXHF   =         0.00000000
  -V(xc)+E(xc)   XCENC  =      8971.09488145
  PAW double counting   =    198144.35305534  -199151.16245653
  entropy T*S    EENTRO =        -0.00000000
  eigenvalues    EBANDS =    -25794.63622855
  atomic energy  EATOM  =    178577.25249613
  Solvation  Ediel_sol  =         0.00000000
  ---------------------------------------------------
  free energy    TOTEN  =     -1758.26232264 eV

  energy without entropy =    -1758.26232264  energy(sigma->0) =    -1758.26232264


--------------------------------------------------------------------------------------------------------




--------------------------------------- Iteration      1(   2)  ---------------------------------------


    POTLOK:  cpu time    0.3032: real time    0.3040
    SETDIJ:  cpu time    1.4704: real time    1.4708
     EDDAV:  cpu time  142.2701: real time  143.9669
       DOS:  cpu time    0.0019: real time    0.0019
    CHARGE:  cpu time    5.2111: real time    5.2455
    MIXING:  cpu time    0.0167: real time    0.0169
    --------------------------------------------
      LOOP:  cpu time  149.2734: real time  151.0061

 eigenvalue-minimisations  : 25296
 total energy-change (2. order) : 0.1048029E-05  (-0.1082210E-05)
 number of electron    1923.0000024 magnetization       1.0000000
 augmentation part      496.9837548 magnetization       0.5798984

 Broyden mixing:
  rms(total) = 0.56198E-03    rms(broyden)= 0.53447E-03
  rms(prec ) = 0.59778E-03
  weight for this iteration     100.00

 eigenvalues of (default mixing * dielectric matrix)
  average eigenvalue GAMMA=   0.6596
  0.6596

 Free energy of the ion-electron system (eV)
  ---------------------------------------------------
  alpha Z        PSCENC =      6118.73324990
  Ewald energy   TEWEN  =   -103207.49285764
  -Hartree energ DENC   =    -65416.40320036
  -exchange      EXHF   =         0.00000000
  -V(xc)+E(xc)   XCENC  =      8971.09433288
  PAW double counting   =    198144.31940016  -199151.12789986
  entropy T*S    EENTRO =        -0.00000000
  eigenvalues    EBANDS =    -25794.63784280
  atomic energy  EATOM  =    178577.25249613
  Solvation  Ediel_sol  =         0.00000000
  ---------------------------------------------------
  free energy    TOTEN  =     -1758.26232159 eV

  energy without entropy =    -1758.26232159  energy(sigma->0) =    -1758.26232159


--------------------------------------------------------------------------------------------------------




--------------------------------------- Iteration      1(   3)  ---------------------------------------


    POTLOK:  cpu time    0.2905: real time    0.3019
    SETDIJ:  cpu time    1.4314: real time    1.4520
     EDDAV:  cpu time   89.5352: real time   90.0142
       DOS:  cpu time    0.0019: real time    0.0019
    --------------------------------------------
      LOOP:  cpu time   91.2590: real time   91.7699

 eigenvalue-minimisations  : 12960
 total energy-change (2. order) : 0.3089081E-06  (-0.1845688E-06)
 number of electron    1923.0000024 magnetization       1.0000000
 augmentation part      496.9837548 magnetization       0.5798984

 Free energy of the ion-electron system (eV)
  ---------------------------------------------------
  alpha Z        PSCENC =      6118.73324990
  Ewald energy   TEWEN  =   -103207.49285764
  -Hartree energ DENC   =    -65416.40264799
  -exchange      EXHF   =         0.00000000
  -V(xc)+E(xc)   XCENC  =      8971.09449321
  PAW double counting   =    198144.32597637  -199151.13492284
  entropy T*S    EENTRO =        -0.00000000
  eigenvalues    EBANDS =    -25794.63810843
  atomic energy  EATOM  =    178577.25249613
  Solvation  Ediel_sol  =         0.00000000
  ---------------------------------------------------
  free energy    TOTEN  =     -1758.26232129 eV

  energy without entropy =    -1758.26232129  energy(sigma->0) =    -1758.26232129


--------------------------------------------------------------------------------------------------------




 average (electrostatic) potential at core
  the test charge radii are     0.7079  1.0397  0.7215  0.7167
  (the norm of the test charge is              1.0000)
       1 -63.1563       2 -58.4154       3 -58.8303       4 -58.8212       5 -59.0110
       6 -58.7766       7 -56.9731       8 -58.4794       9 -58.7984      10 -58.8445
      11 -58.5923      12 -58.9670      13 -59.0149      14 -58.9143      15 -58.7772
      16 -58.8204      17 -58.6998      18 -58.8451      19 -59.5268      20 -58.5923
      21 -58.8893      22 -58.6327      23 -58.7858      24 -58.8023      25 -58.8565
      26 -59.1316      27 -58.7162      28 -58.7060      29 -58.8937      30 -58.9899
      31 -58.8769      32 -59.4329      33 -58.7869      34 -58.7590      35 -58.7889
      36 -58.7486      37 -58.4569      38 -58.6421      39 -58.9084      40 -58.7164
      41 -59.0824      42 -58.8052      43 -58.7717      44 -58.7909      45 -58.8295
      46 -58.9530      47 -58.7608      48 -58.8731      49 -59.0273      50 -58.7414
      51 -58.7992      52 -58.7606      53 -58.7618      54 -58.8803      55 -58.8894
      56 -58.8581      57 -59.0044      58 -58.7853      59 -58.8063      60 -58.7868
      61 -58.8025      62 -58.9308      63 -58.8290      64 -59.1226      65 -58.9063
      66 -74.2659      67 -73.9782      68 -73.7994      69 -73.9267      70 -73.8225
      71 -73.8792      72 -74.0277      73 -74.2159      74 -74.5933      75 -73.9039
      76 -73.9355      77 -74.0386      78 -74.0205      79 -74.1474      80 -74.0816
      81 -73.9354      82 -73.9433      83 -73.9587      84 -74.2770      85 -73.9797
      86 -73.9941      87 -74.1921      88 -74.0817      89 -73.9098      90 -73.8461
      91 -73.9642      92 -74.0760      93 -74.2647      94 -74.1451      95 -74.2720
      96 -73.9609      97 -73.9773      98 -74.3210      99 -74.0065     100 -74.3364
     101 -73.8930     102 -73.9930     103 -73.7907     104 -74.2639     105 -74.1000
     106 -73.9895     107 -74.0750     108 -74.2970     109 -73.8929     110 -74.0160
     111 -74.2216     112 -74.0104     113 -74.0727     114 -74.3161     115 -73.9939
     116 -73.9474     117 -73.9292     118 -73.7584     119 -74.2772     120 -73.8148
     121 -73.9450     122 -74.3329     123 -74.0589     124 -74.2700     125 -74.1384
     126 -74.1365     127 -73.9750     128 -74.0123     129 -74.1042     130 -78.3422
     131 -78.3342     132 -79.1610     133 -79.4152     134 -79.1435     135 -78.3284
     136 -78.2965     137 -79.1138     138 -79.0026     139 -79.1770     140 -79.3431
     141 -79.1467     142 -79.1206     143 -79.4243     144 -79.4393     145 -79.3659
     146 -79.2019     147 -78.4271     148 -78.4119     149 -79.5044     150 -79.3436
     151 -79.1959     152 -79.0761     153 -79.0815     154 -78.4394     155 -78.4212
     156 -78.3068     157 -78.3486     158 -78.9930     159 -78.9004     160 -78.4535
     161 -78.4996     162 -78.4740     163 -78.4208     164 -79.2689     165 -78.5206
     166 -78.5500     167 -78.3835     168 -78.3923     169 -79.1043     170 -79.0397
     171 -78.2867     172 -79.4110     173 -78.6901     174 -78.2342     175 -79.1848
     176 -78.6193     177 -78.8940     178 -78.4647     179 -78.9927     180 -78.8926
     181 -78.4610     182 -78.9490     183 -78.3795     184 -79.4547     185 -79.0580
     186 -79.2901     187 -78.3763     188 -79.2839     189 -79.0534     190 -79.0400
     191 -79.0979     192 -78.3199     193 -79.4437     194 -78.2692     195 -78.4249
     196 -79.1689     197 -78.4307     198 -79.0586     199 -79.0761     200 -78.9500
     201 -79.1037     202 -79.3364     203 -78.8825     204 -79.1212     205 -79.0512
     206 -78.4088     207 -78.5315     208 -79.2463     209 -79.1800     210 -78.4572
     211 -78.6305     212 -78.3034     213 -79.3372     214 -78.2906     215 -79.2237
     216 -78.3129     217 -78.3363     218 -79.2593     219 -78.9997     220 -79.0213
     221 -79.2981     222 -79.3562     223 -79.5756     224 -78.9354     225 -79.1081
     226 -79.0924     227 -79.1114     228 -79.0303     229 -79.0692     230 -78.4197
     231 -79.2293     232 -78.4068     233 -79.0323     234 -78.4900     235 -78.5641
     236 -79.3432     237 -79.3666     238 -79.3256     239 -78.9384     240 -79.1106
     241 -78.9251     242 -79.5101     243 -79.5364     244 -79.2777     245 -78.8509
     246 -78.8569     247 -79.3791     248 -79.1260     249 -79.3413     250 -79.1057
     251 -78.9837     252 -79.0889     253 -78.9718     254 -79.5312     255 -79.0621
     256 -79.5251     257 -79.0461
 
 
 
 E-fermi :  -0.7718     XC(G=0):  -9.0407     alpha+bet : -7.7421


 spin component 1

 k-point     1 :       0.2500    0.2500    0.2500
  band No.  band energies     occupation 
      1     -43.8277      1.00000
      2     -35.5161      1.00000
      3     -35.5042      1.00000
      4     -35.4145      1.00000
      5     -35.3972      1.00000
      6     -35.3595      1.00000
      7     -35.2074      1.00000
      8     -35.1670      1.00000
      9     -35.1298      1.00000
     10     -35.0928      1.00000
     11     -35.0543      1.00000
     12     -35.0459      1.00000
     13     -35.0435      1.00000
     14     -35.0430      1.00000
     15     -35.0389      1.00000
     16     -35.0243      1.00000
     17     -35.0145      1.00000
     18     -35.0000      1.00000
     19     -34.9744      1.00000
     20     -34.9700      1.00000
     21     -34.9678      1.00000
     22     -34.9661      1.00000
     23     -34.9606      1.00000
     24     -34.9440      1.00000
     25     -34.9394      1.00000
     26     -34.9372      1.00000
     27     -34.9344      1.00000
     28     -34.9323      1.00000
     29     -34.9322      1.00000
     30     -34.9266      1.00000
     31     -34.9257      1.00000
     32     -34.9195      1.00000
     33     -34.9162      1.00000
     34     -34.9157      1.00000
     35     -34.9112      1.00000
     36     -34.9083      1.00000
     37     -34.9069      1.00000
     38     -34.8977      1.00000
     39     -34.8966      1.00000
     40     -34.8925      1.00000
     41     -34.8864      1.00000
     42     -34.8818      1.00000
     43     -34.8725      1.00000
     44     -34.8689      1.00000
     45     -34.8644      1.00000
     46     -34.8605      1.00000
     47     -34.8592      1.00000
     48     -34.8565      1.00000
     49     -34.8548      1.00000
     50     -34.8480      1.00000
     51     -34.8460      1.00000
     52     -34.8426      1.00000
     53     -34.8400      1.00000
     54     -34.8392      1.00000
     55     -34.8382      1.00000
     56     -34.8377      1.00000
     57     -34.8348      1.00000
     58     -34.8346      1.00000
     59     -34.8311      1.00000
     60     -34.8300      1.00000
     61     -34.8297      1.00000
     62     -34.8278      1.00000
     63     -34.8234      1.00000
     64     -34.8216      1.00000
     65     -34.8190      1.00000
     66     -34.8158      1.00000
     67     -34.8147      1.00000
     68     -34.8142      1.00000
     69     -34.8130      1.00000
     70     -34.8122      1.00000
     71     -34.8036      1.00000
     72     -34.8014      1.00000
     73     -34.7993      1.00000
     74     -34.7959      1.00000
     75     -34.7936      1.00000
     76     -34.7930      1.00000
     77     -34.7867      1.00000
     78     -34.7834      1.00000
     79     -34.7810      1.00000
     80     -34.7762      1.00000
     81     -34.7754      1.00000
     82     -34.7738      1.00000
     83     -34.7727      1.00000
     84     -34.7707      1.00000
     85     -34.7698      1.00000
     86     -34.7669      1.00000
     87     -34.7663      1.00000
     88     -34.7602      1.00000
     89     -34.7551      1.00000
     90     -34.7534      1.00000
     91     -34.7488      1.00000
     92     -34.7479      1.00000
     93     -34.7419      1.00000
     94     -34.7403      1.00000
     95     -34.7390      1.00000
     96     -34.7371      1.00000
     97     -34.7341      1.00000
     98     -34.7297      1.00000
     99     -34.7297      1.00000
    100     -34.7291      1.00000
    101     -34.7234      1.00000
    102     -34.7227      1.00000
    103     -34.7133      1.00000
    104     -34.7132      1.00000
    105     -34.7127      1.00000
    106     -34.7076      1.00000
    107     -34.7072      1.00000
    108     -34.7030      1.00000
    109     -34.7012      1.00000
    110     -34.7009      1.00000
    111     -34.7006      1.00000
    112     -34.7003      1.00000
[...]
   81        1.574   3.460   0.000   5.034
   82        1.574   3.461   0.000   5.035
   83        1.574   3.461   0.000   5.035
   84        1.576   3.473   0.000   5.048
   85        1.575   3.464   0.000   5.039
   86        1.576   3.468   0.000   5.043
   87        1.575   3.462   0.000   5.037
   88        1.574   3.464   0.000   5.038
   89        1.575   3.461   0.000   5.035
   90        1.575   3.456   0.000   5.031
   91        1.574   3.459   0.000   5.033
   92        1.574   3.461   0.000   5.035
   93        1.576   3.476   0.000   5.052
   94        1.577   3.472   0.000   5.049
   95        1.576   3.474   0.000   5.050
   96        1.574   3.463   0.000   5.037
   97        1.575   3.465   0.000   5.040
   98        1.576   3.475   0.000   5.051
   99        1.574   3.462   0.000   5.037
  100        1.576   3.458   0.000   5.033
  101        1.574   3.458   0.000   5.032
  102        1.575   3.467   0.000   5.042
  103        1.576   3.460   0.000   5.036
  104        1.575   3.464   0.000   5.039
  105        1.576   3.472   0.000   5.049
  106        1.575   3.462   0.000   5.037
  107        1.575   3.461   0.000   5.036
  108        1.576   3.470   0.000   5.045
  109        1.575   3.462   0.000   5.037
  110        1.575   3.460   0.000   5.035
  111        1.576   3.473   0.000   5.049
  112        1.575   3.480   0.000   5.055
  113        1.576   3.473   0.000   5.050
  114        1.577   3.474   0.000   5.051
  115        1.574   3.464   0.000   5.038
  116        1.575   3.463   0.000   5.037
  117        1.575   3.461   0.000   5.036
  118        1.575   3.462   0.000   5.037
  119        1.576   3.476   0.000   5.052
  120        1.575   3.460   0.000   5.036
  121        1.574   3.463   0.000   5.037
  122        1.577   3.468   0.000   5.045
  123        1.577   3.473   0.000   5.050
  124        1.575   3.472   0.000   5.047
  125        1.574   3.475   0.000   5.049
  126        1.576   3.471   0.000   5.046
  127        1.575   3.466   0.000   5.040
  128        1.574   3.464   0.000   5.038
  129        1.576   3.470   0.000   5.046
  130        1.737   4.369   0.000   6.106
  131        1.737   4.370   0.000   6.107
  132        1.737   4.377   0.000   6.114
  133        1.738   4.387   0.000   6.125
  134        1.738   4.388   0.000   6.125
  135        1.737   4.368   0.000   6.105
  136        1.737   4.367   0.000   6.104
  137        1.738   4.379   0.000   6.117
  138        1.738   4.379   0.000   6.116
  139        1.739   4.391   0.000   6.130
  140        1.739   4.387   0.000   6.126
  141        1.738   4.380   0.000   6.118
  142        1.738   4.382   0.000   6.120
  143        1.738   4.386   0.000   6.124
  144        1.739   4.387   0.000   6.125
  145        1.738   4.382   0.000   6.120
  146        1.737   4.381   0.000   6.119
  147        1.736   4.369   0.000   6.105
  148        1.736   4.368   0.000   6.105
  149        1.739   4.386   0.000   6.125
  150        1.738   4.387   0.000   6.124
  151        1.738   4.375   0.000   6.113
  152        1.738   4.381   0.000   6.118
  153        1.737   4.381   0.000   6.119
  154        1.737   4.372   0.000   6.109
  155        1.737   4.373   0.000   6.110
  156        1.737   4.369   0.000   6.105
  157        1.737   4.368   0.000   6.105
  158        1.737   4.377   0.000   6.114
  159        1.738   4.375   0.000   6.113
  160        1.737   4.367   0.000   6.104
  161        1.736   4.369   0.000   6.105
  162        1.737   4.371   0.000   6.108
  163        1.736   4.368   0.000   6.104
  164        1.737   4.379   0.000   6.117
  165        1.737   4.368   0.000   6.105
  166        1.736   4.369   0.000   6.106
  167        1.737   4.369   0.000   6.106
  168        1.737   4.371   0.000   6.108
  169        1.738   4.378   0.000   6.116
  170        1.738   4.379   0.000   6.117
  171        1.737   4.370   0.000   6.107
  172        1.739   4.387   0.000   6.125
  173        1.737   4.380   0.000   6.117
  174        1.737   4.369   0.000   6.105
  175        1.738   4.386   0.000   6.124
  176        1.737   4.372   0.000   6.109
  177        1.738   4.380   0.000   6.118
  178        1.737   4.369   0.000   6.106
  179        1.738   4.374   0.000   6.112
  180        1.738   4.379   0.000   6.117
  181        1.736   4.369   0.000   6.105
  182        1.738   4.377   0.000   6.115
  183        1.737   4.369   0.000   6.106
  184        1.738   4.380   0.000   6.118
  185        1.737   4.382   0.000   6.119
  186        1.738   4.383   0.000   6.121
  187        1.737   4.371   0.000   6.108
  188        1.738   4.379   0.000   6.117
  189        1.739   4.383   0.000   6.121
  190        1.738   4.382   0.000   6.120
  191        1.738   4.391   0.000   6.130
  192        1.737   4.370   0.000   6.107
  193        1.739   4.388   0.000   6.127
  194        1.737   4.369   0.000   6.106
  195        1.737   4.370   0.000   6.107
  196        1.737   4.379   0.000   6.116
  197        1.737   4.371   0.000   6.108
  198        1.738   4.380   0.000   6.117
  199        1.738   4.382   0.000   6.120
  200        1.738   4.381   0.000   6.119
  201        1.738   4.379   0.000   6.117
  202        1.739   4.377   0.000   6.116
  203        1.738   4.380   0.000   6.118
  204        1.738   4.380   0.000   6.118
  205        1.737   4.377   0.000   6.115
  206        1.737   4.369   0.000   6.105
  207        1.737   4.369   0.000   6.106
  208        1.737   4.381   0.000   6.118
  209        1.738   4.378   0.000   6.115
  210        1.737   4.369   0.000   6.106
  211        1.737   4.371   0.000   6.108
  212        1.737   4.369   0.000   6.105
  213        1.739   4.375   0.000   6.114
  214        1.736   4.366   0.000   6.103
  215        1.739   4.380   0.000   6.119
  216        1.737   4.369   0.000   6.105
  217        1.737   4.368   0.000   6.105
  218        1.737   4.381   0.000   6.118
  219        1.738   4.378   0.000   6.116
  220        1.738   4.380   0.000   6.118
  221        1.738   4.380   0.000   6.118
  222        1.738   4.381   0.000   6.118
  223        1.737   4.380   0.000   6.118
  224        1.739   4.381   0.000   6.120
  225        1.739   4.387   0.000   6.126
  226        1.738   4.376   0.000   6.114
  227        1.737   4.379   0.000   6.116
  228        1.738   4.377   0.000   6.115
  229        1.738   4.379   0.000   6.117
  230        1.736   4.368   0.000   6.104
  231        1.738   4.376   0.000   6.114
  232        1.737   4.369   0.000   6.106
  233        1.738   4.379   0.000   6.117
  234        1.737   4.374   0.000   6.111
  235        1.736   4.376   0.000   6.113
  236        1.739   4.387   0.000   6.125
  237        1.739   4.387   0.000   6.126
  238        1.737   4.380   0.000   6.117
  239        1.738   4.377   0.000   6.116
  240        1.738   4.380   0.000   6.118
  241        1.738   4.378   0.000   6.116
  242        1.738   4.387   0.000   6.125
  243        1.738   4.387   0.000   6.125
  244        1.738   4.381   0.000   6.118
  245        1.738   4.379   0.000   6.117
  246        1.738   4.378   0.000   6.116
  247        1.738   4.386   0.000   6.125
  248        1.739   4.379   0.000   6.117
  249        1.738   4.385   0.000   6.123
  250        1.739   4.378   0.000   6.117
  251        1.738   4.380   0.000   6.118
  252        1.737   4.380   0.000   6.117
  253        1.738   4.380   0.000   6.119
  254        1.739   4.387   0.000   6.125
  255        1.738   4.377   0.000   6.115
  256        1.739   4.385   0.000   6.123
  257        1.738   4.378   0.000   6.117
--------------------------------------------------
tot        345.5501195.495 112.5061653.551
 


 magnetization (x)
 
# of ion       s       p       d       tot
------------------------------------------
    1       -0.000  -0.000   0.000  -0.000
    2        0.000   0.000   0.000   0.000
    3       -0.000  -0.000   0.000   0.000
    4       -0.000  -0.000   0.000   0.000
    5       -0.000  -0.000  -0.000  -0.000
    6       -0.000  -0.000   0.000   0.000
    7        0.005   0.006   0.918   0.930
    8        0.000   0.000  -0.000  -0.000
    9       -0.000  -0.000  -0.000  -0.000
   10        0.000   0.000   0.000   0.000
   11        0.000  -0.000   0.000   0.000
   12       -0.000  -0.000  -0.000  -0.000
   13       -0.000  -0.000   0.000   0.000
   14       -0.000  -0.000   0.008   0.008
   15       -0.000   0.000   0.007   0.007
   16       -0.000  -0.000  -0.000  -0.000
   17       -0.000  -0.000   0.000   0.000
   18       -0.000  -0.000   0.000  -0.000
   19       -0.000  -0.000  -0.000  -0.000
   20       -0.000  -0.000  -0.000  -0.000
   21       -0.000  -0.000   0.000   0.000
   22        0.000   0.000   0.000   0.000
   23       -0.000  -0.000  -0.004  -0.005
   24       -0.000  -0.000  -0.000  -0.000
   25       -0.000  -0.000  -0.000  -0.000
   26        0.000  -0.000   0.000   0.000
   27       -0.000  -0.000  -0.000  -0.000
   28       -0.000  -0.000   0.000   0.000
   29       -0.000  -0.000   0.000   0.000
   30       -0.000  -0.000  -0.000  -0.000
   31       -0.000  -0.000  -0.000  -0.000
   32       -0.000  -0.000   0.000   0.000
   33       -0.000  -0.000   0.000   0.000
   34        0.000   0.000   0.000   0.000
   35       -0.000   0.000   0.008   0.007
   36       -0.000  -0.000  -0.000  -0.000
   37        0.000  -0.000  -0.000  -0.000
   38       -0.000  -0.000   0.000   0.000
   39       -0.000   0.000   0.007   0.007
   40       -0.000   0.000  -0.000  -0.000
   41       -0.000  -0.000  -0.000  -0.000
   42        0.000  -0.000   0.000   0.000
   43        0.000   0.000   0.004   0.004
   44       -0.000  -0.000  -0.000  -0.000
   45       -0.000  -0.000   0.000   0.000
   46        0.000   0.000   0.004   0.004
   47        0.000  -0.000   0.000   0.000
   48       -0.000  -0.000  -0.000  -0.000
   49       -0.000  -0.000   0.000   0.000
   50       -0.000  -0.000  -0.000  -0.000
   51       -0.000   0.000   0.000   0.000
   52       -0.000  -0.000   0.000   0.000
   53       -0.000  -0.000  -0.000  -0.000
   54       -0.000  -0.000   0.000   0.000
   55       -0.000  -0.000  -0.000  -0.000
   56       -0.000  -0.000   0.000   0.000
   57       -0.000  -0.000  -0.000  -0.000
   58       -0.000  -0.000  -0.000  -0.000
   59       -0.000  -0.000   0.000   0.000
   60       -0.000  -0.000  -0.000  -0.000
   61       -0.000  -0.000   0.000   0.000
   62       -0.000  -0.000  -0.000  -0.000
   63       -0.000  -0.000   0.000   0.000
   64       -0.000  -0.000   0.000   0.000
   65       -0.000  -0.000   0.000  -0.000
   66       -0.000   0.000   0.000   0.000
   67       -0.000  -0.000   0.000  -0.000
   68       -0.000   0.000   0.000   0.000
   69        0.000   0.000   0.000   0.000
   70       -0.000  -0.000   0.000  -0.000
   71       -0.000  -0.000   0.000  -0.000
   72        0.000  -0.000   0.000  -0.000
   73       -0.000  -0.000   0.000  -0.000
   74       -0.000   0.000   0.000   0.000
   75        0.000   0.000   0.000   0.000
   76       -0.000  -0.001   0.000  -0.001
   77       -0.000  -0.000   0.000  -0.000
   78       -0.000   0.000   0.000   0.000
   79       -0.000   0.000   0.000   0.000
   80       -0.000  -0.001   0.000  -0.001
   81        0.000   0.000   0.000   0.000
   82       -0.000   0.000   0.000   0.000
   83       -0.000  -0.000   0.000  -0.000
   84       -0.000  -0.000   0.000  -0.000
   85       -0.000  -0.000   0.000  -0.000
   86       -0.000  -0.000   0.000  -0.000
   87       -0.000  -0.000   0.000  -0.000
   88        0.000  -0.000   0.000  -0.000
   89        0.000  -0.000   0.000  -0.000
   90       -0.000   0.000   0.000  -0.000
   91        0.000   0.000   0.000   0.000
   92       -0.000  -0.001   0.000  -0.001
   93        0.000  -0.000   0.000  -0.000
   94       -0.000  -0.000   0.000  -0.000
   95       -0.000  -0.000   0.000  -0.000
   96       -0.000  -0.000   0.000  -0.000
   97       -0.000  -0.000   0.000  -0.000
   98       -0.000  -0.000   0.000  -0.000
   99       -0.000  -0.000   0.000  -0.000
  100       -0.000  -0.000   0.000  -0.000
  101       -0.000  -0.000   0.000  -0.000
  102        0.000   0.000   0.000   0.000
  103        0.000   0.000   0.000   0.000
  104       -0.000  -0.000   0.000  -0.000
  105       -0.000  -0.001   0.000  -0.001
  106       -0.000   0.000   0.000   0.000
  107       -0.000  -0.000   0.000  -0.000
  108       -0.000   0.000   0.000  -0.000
  109       -0.000  -0.000   0.000  -0.000
  110       -0.000   0.000   0.000   0.000
  111        0.000  -0.000   0.000  -0.000
  112       -0.001  -0.017   0.000  -0.018
  113       -0.000  -0.000   0.000  -0.000
  114       -0.000  -0.000   0.000  -0.000
  115       -0.000  -0.000   0.000  -0.000
  116       -0.000  -0.000   0.000  -0.000
  117       -0.000  -0.000   0.000  -0.000
  118       -0.000  -0.000   0.000  -0.000
  119       -0.000  -0.000   0.000  -0.000
  120       -0.000  -0.000   0.000  -0.000
  121       -0.000  -0.000   0.000  -0.000
  122       -0.000  -0.000   0.000  -0.000
  123       -0.000  -0.000   0.000  -0.000
  124       -0.000  -0.000   0.000  -0.000
  125       -0.000  -0.000   0.000  -0.000
  126       -0.000  -0.000   0.000  -0.000
  127       -0.000  -0.000   0.000  -0.000
  128       -0.000  -0.000   0.000  -0.000
  129       -0.000  -0.000   0.000  -0.000
  130        0.000   0.000   0.000   0.000
  131       -0.000  -0.000   0.000  -0.000
  132       -0.000   0.000   0.000   0.000
  133       -0.000  -0.000   0.000  -0.000
  134       -0.000   0.002   0.000   0.002
  135       -0.000  -0.000   0.000  -0.000
  136       -0.000  -0.000   0.000  -0.000
  137       -0.000  -0.000   0.000  -0.000
  138        0.000   0.000   0.000   0.000
  139       -0.000   0.002   0.000   0.001
  140       -0.000  -0.000   0.000  -0.000
  141       -0.000  -0.000   0.000  -0.000
  142       -0.000  -0.000   0.000  -0.000
  143        0.000  -0.000   0.000  -0.000
  144        0.000  -0.000   0.000  -0.000
  145       -0.000  -0.000   0.000  -0.000
  146        0.000  -0.000   0.000  -0.000
  147       -0.000  -0.000   0.000  -0.000
  148       -0.000   0.000   0.000  -0.000
  149        0.000  -0.000   0.000  -0.000
  150        0.000  -0.000   0.000  -0.000
  151       -0.000  -0.000   0.000  -0.000
  152       -0.000  -0.000   0.000  -0.000
  153       -0.000  -0.000   0.000  -0.000
  154       -0.000   0.000   0.000   0.000
  155        0.000   0.000   0.000   0.000
  156        0.000   0.000   0.000   0.000
  157       -0.000   0.000   0.000   0.000
  158       -0.000   0.000   0.000  -0.000
  159       -0.000  -0.000   0.000  -0.000
  160       -0.000  -0.000   0.000  -0.000
  161       -0.000  -0.000   0.000  -0.000
  162       -0.000  -0.000   0.000  -0.000
  163       -0.000  -0.000   0.000  -0.000
  164        0.000   0.000   0.000   0.000
  165       -0.000  -0.000   0.000  -0.000
  166       -0.000  -0.000   0.000  -0.000
  167       -0.000  -0.000   0.000  -0.000
  168       -0.000  -0.000   0.000  -0.000
  169        0.000   0.000   0.000   0.000
  170        0.000   0.000   0.000   0.000
  171        0.000   0.000   0.000   0.000
  172       -0.000  -0.000   0.000  -0.000
  173       -0.000  -0.000   0.000  -0.000
  174       -0.000  -0.000   0.000  -0.000
  175       -0.000   0.002   0.000   0.002
  176        0.000   0.000   0.000   0.000
  177       -0.000   0.000   0.000   0.000
  178       -0.000  -0.000   0.000  -0.000
  179        0.000  -0.000   0.000  -0.000
  180        0.000   0.000   0.000   0.000
  181        0.000   0.000   0.000   0.000
  182       -0.000  -0.000   0.000  -0.000
  183       -0.000  -0.000   0.000  -0.000
  184       -0.000  -0.000   0.000  -0.000
  185       -0.000  -0.000   0.000  -0.000
  186       -0.000  -0.000   0.000  -0.000
  187        0.000   0.000   0.000   0.000
  188        0.000  -0.000   0.000  -0.000
  189       -0.000  -0.000   0.000  -0.000
  190       -0.000  -0.000   0.000  -0.000
  191       -0.000   0.002   0.000   0.002
  192       -0.000  -0.000   0.000  -0.000
  193       -0.000  -0.000   0.000  -0.000
  194       -0.000   0.000   0.000   0.000
  195        0.000   0.000   0.000   0.000
  196       -0.000  -0.000   0.000  -0.000
  197       -0.000   0.000   0.000   0.000
  198        0.000   0.000   0.000   0.000
  199       -0.000  -0.000   0.000  -0.000
  200        0.000  -0.000   0.000  -0.000
  201       -0.000  -0.000   0.000  -0.000
  202        0.000  -0.000   0.000  -0.000
  203       -0.000  -0.000   0.000  -0.000
  204       -0.000  -0.000   0.000  -0.000
  205       -0.000  -0.000   0.000  -0.000
  206       -0.000  -0.000   0.000  -0.000
  207       -0.000  -0.000   0.000  -0.000
  208       -0.000  -0.000   0.000  -0.000
  209        0.000  -0.000   0.000  -0.000
  210        0.000  -0.000   0.000  -0.000
  211       -0.000  -0.000   0.000  -0.000
  212       -0.000  -0.000   0.000  -0.000
  213       -0.000  -0.000   0.000  -0.000
  214       -0.000  -0.000   0.000  -0.000
  215       -0.000  -0.000   0.000  -0.000
  216       -0.000  -0.000   0.000  -0.000
  217       -0.000  -0.000   0.000  -0.000
  218       -0.000  -0.000   0.000  -0.000
  219       -0.000  -0.000   0.000  -0.000
  220       -0.000  -0.000   0.000  -0.000
  221       -0.000  -0.000   0.000  -0.000
  222       -0.000  -0.000   0.000  -0.000
  223       -0.000  -0.000   0.000  -0.000
  224       -0.000  -0.000   0.000  -0.000
  225       -0.000  -0.004   0.000  -0.005
  226       -0.000  -0.000   0.000  -0.000
  227       -0.000  -0.000   0.000  -0.000
  228       -0.000  -0.000   0.000  -0.000
  229       -0.000  -0.000   0.000  -0.000
  230       -0.000  -0.000   0.000  -0.000
  231       -0.000  -0.000   0.000  -0.000
  232       -0.000  -0.000   0.000  -0.000
  233       -0.000  -0.000   0.000  -0.000
  234       -0.000  -0.000   0.000  -0.000
  235       -0.000  -0.000   0.000  -0.000
  236       -0.000  -0.000   0.000  -0.000
  237       -0.000  -0.000   0.000  -0.000
  238       -0.000  -0.000   0.000  -0.000
  239       -0.000  -0.000   0.000  -0.000
  240       -0.000  -0.000   0.000  -0.000
  241       -0.000  -0.000   0.000  -0.000
  242       -0.000  -0.000   0.000  -0.000
  243       -0.000  -0.000   0.000  -0.000
  244        0.000  -0.000   0.000  -0.000
  245       -0.000  -0.000   0.000  -0.000
  246       -0.000  -0.000   0.000  -0.000
  247       -0.000  -0.000   0.000  -0.000
  248       -0.000  -0.000   0.000  -0.000
  249       -0.000  -0.000   0.000  -0.000
  250       -0.000  -0.000   0.000  -0.000
  251       -0.000  -0.000   0.000  -0.000
  252       -0.000  -0.000   0.000  -0.000
  253       -0.000  -0.000   0.000  -0.000
  254       -0.000  -0.000   0.000  -0.000
  255       -0.000  -0.000   0.000  -0.000
  256       -0.000  -0.000   0.000  -0.000
  257       -0.000  -0.000   0.000  -0.000
--------------------------------------------------
tot          0.002  -0.015   0.953   0.939
 

 total amount of memory used by VASP MPI-rank0   291551. kBytes
=======================================================================

   base      :      30000. kBytes
   nonlr-proj:      49516. kBytes
   fftplans  :      27976. kBytes
   grid      :      34041. kBytes
   one-center:       1026. kBytes
   wavefun   :     148992. kBytes
 
  
  
 General timing and accounting informations for this job:
 ========================================================
  
                  Total CPU time used (sec):     1011.093
                            User time (sec):      673.164
                          System time (sec):      337.929
                         Elapsed time (sec):     1041.883
  
                   Maximum memory used (kb):      622024.
                   Average memory used (kb):           0.
  
                          Minor page faults:        95016
                          Major page faults:            0
                 Voluntary context switches:        17298
