LTO                                     
           1
     7.822813   -0.000873   -0.000937
    -0.000866    7.704264    0.001607
    -0.000983    0.001603    7.662517
   Ti   O    F 
   8   8  16
Direct configuration=     1
   0.00008536  0.98317695  0.99540628
   0.00089665  0.00135198  0.51819992
   0.00086828  0.50830337  0.98452112
   0.98074395  0.50013000  0.50818940
   0.50017981  0.01531138  0.01224379
   0.50015606  0.98408647  0.48829816
   0.50009241  0.48887226  0.01479748
   0.50699695  0.50928616  0.49131482
   0.75248041  0.49928257  0.50017458
   0.00000299  0.75120849  0.00384724
   0.50056940  0.24991289  0.99518352
   0.49905268  0.75196684  0.50525725
   0.99975937  0.00220725  0.74797465
   0.00149039  0.49775503  0.74991774
   0.50048862  0.99972205  0.24960368
   0.49856806  0.50028876  0.24916828
   0.24810399  0.00076287  0.99974769
   0.24657705  0.00328657  0.49928413
   0.24899764  0.50034918  0.00074431
   0.24659329  0.49812089  0.49975863
   0.75219364  0.00070541  0.99979039
   0.75470117  0.00376233  0.49891979
   0.75185088  0.50026484  0.00089503
   0.99996517  0.24813687  0.00661550
   0.00470280  0.24748273  0.48861448
   0.00466869  0.75410793  0.48706397
   0.49775288  0.24696575  0.50979730
   0.50059269  0.75141994  0.99069848
   0.99975293  0.00430816  0.25303089
   0.00409611  0.49645558  0.24821114
   0.50065625  0.00001621  0.75008247
   0.49636342  0.50099228  0.75264790
