 vasp.5.4.4.18Apr17-6-g9f103f2a35 (build Jul 16 2019 12:12:28) complex          
  
 executed on             LinuxIFC date 2020.02.03  21:20:34
 running on   96 total cores
 distrk:  each k-point on   96 cores,    1 groups
 distr:  one band on NCORES_PER_BAND=   8 cores,   12 groups


--------------------------------------------------------------------------------------------------------


 INCAR:
 POTCAR:    PAW_PBE Li_sv 10Sep2004               
 POTCAR:    PAW_PBE Ti_pv 07Sep2000               
 POTCAR:    PAW_PBE O 08Apr2002                   
 POTCAR:    PAW_PBE F 08Apr2002                   
 POTCAR:    PAW_PBE Li_sv 10Sep2004               
   VRHFIN =Li: 1s2s2p                                                           
   LEXCH  = PE                                                                  
   EATOM  =   202.7858 eV,   14.9043 Ry                                         
                                                                                
   TITEL  = PAW_PBE Li_sv 10Sep2004                                             
   LULTRA =        F    use ultrasoft PP ?                                      
   IUNSCR =        0    unscreen: 0-lin 1-nonlin 2-no                           
   RPACOR =    0.000    partial core radius                                     
   POMASS =    7.010; ZVAL   =    3.000    mass and valenz                      
   RCORE  =    1.700    outmost cutoff radius                                   
   RWIGS  =    2.050; RWIGS  =    1.085    wigner-seitz radius (au A)           
   ENMAX  =  499.034; ENMIN  =  374.276 eV                                      
   ICORE  =        2    local potential                                         
   LCOR   =        T    correct aug charges                                     
   LPAW   =        T    paw PP                                                  
   EAUG   =  628.945                                                            
   RMAX   =    1.732    core radius for proj-oper                               
   RAUG   =    1.300    factor for augmentation sphere                          
   RDEP   =    1.728    radius for radial grids                                 
   RDEPT  =    1.329    core radius for aug-charge                              
                                                                                
   Atomic configuration                                                         
    4 entries                                                                   
     n  l   j            E        occ.                                          
     1  0  0.50       -51.8549   2.0000                                         
     2  0  0.50        -2.8742   1.0000                                         
     2  1  0.50        -1.3606   0.0000                                         
     3  2  1.50        -1.3606   0.0000                                         
   Description                                                                  
     l       E           TYP  RCUT    TYP  RCUT                                 
     0    -51.8548813     23  1.400                                             
     0     -2.8742052     23  1.700                                             
     1     -1.3605826     23  1.400                                             
     2     -1.3605826     23  1.400                                             
  local pseudopotential read in
  atomic valenz-charges read in
  non local Contribution for L=           0  read in
    real space projection operators read in
  non local Contribution for L=           0  read in
    real space projection operators read in
  non local Contribution for L=           1  read in
    real space projection operators read in
    PAW grid and wavefunctions read in
 
   number of l-projection  operators is LMAX  =           3
   number of lm-projection operators is LMMAX =           5
 
 POTCAR:    PAW_PBE Ti_pv 07Sep2000               
   VRHFIN =Ti: d3 s1                                                            
   LEXCH  = PE                                                                  
   EATOM  =  1042.5995 eV,   76.6289 Ry                                         
                                                                                
   TITEL  = PAW_PBE Ti_pv 07Sep2000                                             
   LULTRA =        F    use ultrasoft PP ?                                      
   IUNSCR =        1    unscreen: 0-lin 1-nonlin 2-no                           
   RPACOR =    2.200    partial core radius                                     
   POMASS =   47.880; ZVAL   =   10.000    mass and valenz                      
   RCORE  =    2.500    outmost cutoff radius                                   
   RWIGS  =    2.500; RWIGS  =    1.323    wigner-seitz radius (au A)           
   ENMAX  =  222.335; ENMIN  =  166.751 eV                                      
   RCLOC  =    1.701    cutoff for local pot                                    
   LCOR   =        T    correct aug charges                                     
   LPAW   =        T    paw PP                                                  
   EAUG   =  482.848                                                            
   DEXC   =    0.000                                                            
   RMAX   =    2.564    core radius for proj-oper                               
   RAUG   =    1.300    factor for augmentation sphere                          
   RDEP   =    2.538    radius for radial grids                                 
   RDEPT  =    1.952    core radius for aug-charge                              
                                                                                
   Atomic configuration                                                         
    8 entries                                                                   
     n  l   j            E        occ.                                          
     1  0  0.50     -4865.3608   2.0000                                         
     2  0  0.50      -533.1368   2.0000                                         
     2  1  1.50      -440.5031   6.0000                                         
     3  0  0.50       -59.3186   2.0000                                         
     3  1  1.50       -35.7012   6.0000                                         
     3  2  2.50        -1.9157   3.0000                                         
     4  0  0.50        -3.7291   1.0000                                         
     4  3  2.50        -1.3606   0.0000                                         
   Description                                                                  
     l       E           TYP  RCUT    TYP  RCUT                                 
     1    -35.7012140     23  2.300                                             
     1     -1.3605826     23  2.300                                             
     2     -1.9156996     23  2.500                                             
     2     -0.4063033     23  2.500                                             
     0     -3.7290856     23  2.500                                             
     0     20.4087390     23  2.500                                             
  local pseudopotential read in
  partial core-charges read in
  partial kinetic energy density read in
  atomic valenz-charges read in
  non local Contribution for L=           1  read in
    real space projection operators read in
  non local Contribution for L=           1  read in
    real space projection operators read in
  non local Contribution for L=           2  read in
    real space projection operators read in
  non local Contribution for L=           2  read in
    real space projection operators read in
  non local Contribution for L=           0  read in
    real space projection operators read in
  non local Contribution for L=           0  read in
    real space projection operators read in
    PAW grid and wavefunctions read in
 
   number of l-projection  operators is LMAX  =           6
   number of lm-projection operators is LMMAX =          18
 
 POTCAR:    PAW_PBE O 08Apr2002                   
   VRHFIN =O: s2p4                                                              
   LEXCH  = PE                                                                  
   EATOM  =   432.3788 eV,   31.7789 Ry                                         
                                                                                
   TITEL  = PAW_PBE O 08Apr2002                                                 
   LULTRA =        F    use ultrasoft PP ?                                      
   IUNSCR =        1    unscreen: 0-lin 1-nonlin 2-no                           
   RPACOR =    1.200    partial core radius                                     
   POMASS =   16.000; ZVAL   =    6.000    mass and valenz                      
   RCORE  =    1.520    outmost cutoff radius                                   
   RWIGS  =    1.550; RWIGS  =    0.820    wigner-seitz radius (au A)           
   ENMAX  =  400.000; ENMIN  =  300.000 eV                                      
   ICORE  =        2    local potential                                         
   LCOR   =        T    correct aug charges                                     
   LPAW   =        T    paw PP                                                  
   EAUG   =  605.392                                                            
   DEXC   =    0.000                                                            
   RMAX   =    1.553    core radius for proj-oper                               
   RAUG   =    1.300    factor for augmentation sphere                          
   RDEP   =    1.550    radius for radial grids                                 
   RDEPT  =    1.329    core radius for aug-charge                              
                                                                                
   Atomic configuration                                                         
    4 entries                                                                   
     n  l   j            E        occ.                                          
     1  0  0.50      -514.6923   2.0000                                         
     2  0  0.50       -23.9615   2.0000                                         
     2  1  0.50        -9.0305   4.0000                                         
     3  2  1.50        -9.5241   0.0000                                         
   Description                                                                  
     l       E           TYP  RCUT    TYP  RCUT                                 
     0    -23.9615318     23  1.200                                             
     0     -9.5240782     23  1.200                                             
     1     -9.0304911     23  1.520                                             
     1      8.1634956     23  1.520                                             
     2     -9.5240782      7  1.500                                             
  local pseudopotential read in
  partial core-charges read in
  partial kinetic energy density read in
  kinetic energy density of atom read in
  atomic valenz-charges read in
  non local Contribution for L=           0  read in
    real space projection operators read in
  non local Contribution for L=           0  read in
    real space projection operators read in
  non local Contribution for L=           1  read in
    real space projection operators read in
  non local Contribution for L=           1  read in
    real space projection operators read in
    PAW grid and wavefunctions read in
 
   number of l-projection  operators is LMAX  =           4
   number of lm-projection operators is LMMAX =           8
 
 POTCAR:    PAW_PBE F 08Apr2002                   
   VRHFIN =F: s2p5                                                              
   LEXCH  = PE                                                                  
   EATOM  =   659.6475 eV,   48.4827 Ry                                         
                                                                                
   TITEL  = PAW_PBE F 08Apr2002                                                 
   LULTRA =        F    use ultrasoft PP ?                                      
   IUNSCR =        1    unscreen: 0-lin 1-nonlin 2-no                           
   RPACOR =    1.200    partial core radius                                     
   POMASS =   18.998; ZVAL   =    7.000    mass and valenz                      
   RCORE  =    1.520    outmost cutoff radius                                   
   RWIGS  =    1.500; RWIGS  =    0.794    wigner-seitz radius (au A)           
   ENMAX  =  400.000; ENMIN  =  300.000 eV                                      
   ICORE  =        2    local potential                                         
   LCOR   =        T    correct aug charges                                     
   LPAW   =        T    paw PP                                                  
   EAUG   =  613.614                                                            
   RMAX   =    1.555    core radius for proj-oper                               
   RAUG   =    1.300    factor for augmentation sphere                          
   RDEP   =    1.539    radius for radial grids                                 
   RDEPT  =    1.299    core radius for aug-charge                              
                                                                                
   Atomic configuration                                                         
    4 entries                                                                   
     n  l   j            E        occ.                                          
     1  0  0.50      -663.3661   2.0000                                         
     2  0  0.50       -29.8995   2.0000                                         
     2  1  0.50       -11.1114   5.0000                                         
     3  2  1.50       -10.8847   0.0000                                         
   Description                                                                  
     l       E           TYP  RCUT    TYP  RCUT                                 
     0    -29.8995018     23  1.200                                             
     0     -9.5240782     23  1.200                                             
     1    -11.1113914     23  1.520                                             
     1      1.3605826     23  1.520                                             
     2    -10.8846608      7  1.500                                             
  local pseudopotential read in
  partial core-charges read in
  partial kinetic energy density read in
  atomic valenz-charges read in
  non local Contribution for L=           0  read in
    real space projection operators read in
  non local Contribution for L=           0  read in
    real space projection operators read in
  non local Contribution for L=           1  read in
    real space projection operators read in
  non local Contribution for L=           1  read in
    real space projection operators read in
    PAW grid and wavefunctions read in
 
   number of l-projection  operators is LMAX  =           4
   number of lm-projection operators is LMMAX =           8
 
 Optimization of the real space projectors (new method)

 maximal supplied QI-value         = 22.11
 optimisation between [QCUT,QGAM] = [ 11.28, 22.77] = [ 35.61,145.23] Ry 
 Optimized for a Real-space Cutoff    1.31 Angstroem

   l    n(q)    QCUT    max X(q) W(low)/X(q) W(high)/X(q)  e(spline) 
   0      9    11.276    10.506    0.19E-04    0.17E-04    0.32E-07
   0      9    11.276     8.367    0.38E-04    0.40E-04    0.65E-07
   1      8    11.276     8.983    0.55E-04    0.98E-04    0.20E-06
 Optimization of the real space projectors (new method)

 maximal supplied QI-value         = 15.12
 optimisation between [QCUT,QGAM] = [ 11.34, 22.83] = [ 36.00,145.93] Ry 
 Optimized for a Real-space Cutoff    1.56 Angstroem

   l    n(q)    QCUT    max X(q) W(low)/X(q) W(high)/X(q)  e(spline) 
   1     10    11.338     4.216    0.27E-04    0.12E-04    0.66E-07
   1     10    11.338     5.422    0.81E-04    0.24E-04    0.19E-06
   2     10    11.338    72.084    0.64E-04    0.21E-03    0.51E-06
   2     10    11.338    65.965    0.63E-04    0.21E-03    0.50E-06
   0     11    11.338    41.531    0.33E-04    0.54E-04    0.13E-06
   0     11    11.338    16.290    0.26E-04    0.41E-04    0.11E-06
 Optimization of the real space projectors (new method)

 maximal supplied QI-value         = 24.76
 optimisation between [QCUT,QGAM] = [ 11.39, 22.77] = [ 36.31,145.25] Ry 
 Optimized for a Real-space Cutoff    1.20 Angstroem

   l    n(q)    QCUT    max X(q) W(low)/X(q) W(high)/X(q)  e(spline) 
   0      8    11.387    20.381    0.89E-04    0.31E-03    0.27E-06
   0      8    11.387    15.268    0.93E-04    0.32E-03    0.29E-06
   1      8    11.387     5.964    0.53E-04    0.28E-03    0.29E-06
   1      8    11.387     5.382    0.37E-04    0.22E-03    0.26E-06
 Optimization of the real space projectors (new method)

 maximal supplied QI-value         = 24.76
 optimisation between [QCUT,QGAM] = [ 11.39, 22.77] = [ 36.31,145.25] Ry 
 Optimized for a Real-space Cutoff    1.20 Angstroem

   l    n(q)    QCUT    max X(q) W(low)/X(q) W(high)/X(q)  e(spline) 
   0      8    11.387    14.049    0.69E-04    0.23E-03    0.18E-06
   0      8    11.387     8.945    0.88E-04    0.30E-03    0.26E-06
   1      8    11.387     7.086    0.62E-04    0.27E-03    0.27E-06
   1      8    11.387     6.747    0.46E-04    0.23E-03    0.25E-06

 ----------------------------------------------------------------------------- 
|                                                                             |
|  ADVICE TO THIS USER RUNNING 'VASP/VAMP'   (HEAR YOUR MASTER'S VOICE ...):  |
|                                                                             |
|      You enforced a specific xc-type in the INCAR file,                     |
|      a different type was found on the POTCAR file                          |
|          I HOPE YOU KNOW, WHAT YOU ARE  DOING                               |
|                                                                             |
 ----------------------------------------------------------------------------- 

  PAW_PBE Li_sv 10Sep2004               :
 energy of atom  1       EATOM= -202.7858
 kinetic energy error for atom=    0.0143 (will be added to EATOM!!)
  PAW_PBE Ti_pv 07Sep2000               :
 energy of atom  2       EATOM=-1042.5995
 kinetic energy error for atom=    0.0024 (will be added to EATOM!!)
  PAW_PBE O 08Apr2002                   :
 energy of atom  3       EATOM= -432.3788
 kinetic energy error for atom=    0.0224 (will be added to EATOM!!)
  PAW_PBE F 08Apr2002                   :
 energy of atom  4       EATOM= -659.6475
 kinetic energy error for atom=    0.0354 (will be added to EATOM!!)
 
 
 POSCAR: config 26                               
  positions in direct lattice
  velocities in cartesian coordinates
 exchange correlation table for  LEXCH =       14
   RHO(1)=    0.500       N(1)  =     2000
   RHO(2)=  100.500       N(2)  =     4000

 VTST: version 3.2, (02/03/18)

 CHAIN: initializing optimizer
 
 OPT: Using VASP QUASI-newton optimizer
 CHAIN: Read ICHAIN            0
 
 POSCAR: config 26                               
  positions in direct lattice
  velocities in cartesian coordinates
 


--------------------------------------------------------------------------------------------------------


 ion  position               nearest neighbor table
   1  0.330  0.617  0.401- 158 2.00 235 2.06  85 2.11 102 2.20  37 2.83  53 2.88
   2  0.996  0.996  0.995- 118 1.86  68 1.88 103 1.89 171 2.02 212 2.04 130 2.04
   3  0.999  0.992  0.493- 119 1.81  67 1.82 172 1.95 193 1.95 131 2.01 213 2.08
   4  0.006  0.495  0.998-  89 1.84 117 1.85 138 1.93 132 1.98 214 2.01 194 2.02
   5  0.993  0.503  0.507- 104 1.82  66 1.82 215 1.92 223 2.00 137 2.03 173 2.05
   6  0.495  0.995  0.999- 121 1.83 101 1.84 140 1.95 133 1.96 216 2.02 174 2.03
   7  0.502  0.008  0.500- 112 1.78 139 1.91 134 1.91 191 1.91 175 1.93 225 2.02
   8  0.504  0.496  0.995-  70 1.87 120 1.88  90 1.88 192 2.03 217 2.03 135 2.04
   9  0.491  0.499  0.494-  69 1.84 102 1.84 224 1.97 218 1.98 136 2.00 176 2.05
  10  0.007  0.003  0.256-  91 1.83  67 1.86 219 1.94 227 1.97 130 2.00 197 2.05
  11  0.002  0.008  0.757-  68 1.79 113 1.84 177 1.95 198 1.98 228 2.04 131 2.06
  12  0.993  0.494  0.252- 107 1.81 122 1.86 137 1.93 132 1.96 220 2.00 178 2.04
  13  0.993  0.499  0.742- 108 1.81  66 1.83 226 1.93 221 1.96 138 2.02 179 2.04
  14  0.507  0.007  0.250- 114 1.84  92 1.84 133 1.93 231 1.95 139 1.98 195 2.02
  15  0.493  0.005  0.751- 105 1.81 115 1.83 140 1.92 134 1.99 232 2.01 180 2.03
  16  0.494  0.497  0.257-  69 1.84 106 1.86 222 1.92 229 1.95 135 2.01 181 2.04
  17  0.501  0.505  0.758-  70 1.80 116 1.86 182 1.94 196 1.97 230 2.04 136 2.07
  18  0.995  0.257  0.001- 117 1.82 110 1.87 141 1.96 146 1.97 183 2.01 212 2.02
  19  0.999  0.248  0.491-  74 1.77 213 1.91 202 1.93 184 1.94 223 1.94 142 2.01
  20  0.999  0.758  0.006- 118 1.80  71 1.86 203 1.94 185 1.97 148 2.04 214 2.06
  21  0.997  0.757  0.506- 119 1.83  72 1.83 204 1.93 186 1.98 147 2.01 215 2.03
  22  0.495  0.258  0.001- 120 1.79 109 1.85 150 1.96 143 1.97 187 2.03 216 2.05
  23  0.508  0.246  0.499-  93 1.80 112 1.89 144 1.92 149 1.93 224 1.98 199 2.01
  24  0.508  0.757  0.999-  94 1.83 121 1.85 145 1.91 152 1.95 217 2.02 200 2.03
  25  0.508  0.754  0.508-  95 1.81  73 1.81 225 1.97 151 1.98 218 1.98 201 2.07
  26  1.000  0.259  0.255- 122 1.79  74 1.88 209 1.94 188 1.95 141 1.98 219 2.02
  27  0.006  0.242  0.747- 113 1.80  96 1.84 142 1.96 146 1.97 210 2.04 226 2.04
  28  0.005  0.749  0.244-  71 1.81  97 1.87 220 1.95 227 1.98 211 1.99 147 2.05
  29  0.993  0.751  0.743- 111 1.82  72 1.85 228 1.93 221 1.98 148 2.02 189 2.02
  30  0.508  0.242  0.251- 114 1.80  98 1.82 143 1.93 149 1.97 229 2.01 205 2.02
  31  0.507  0.243  0.750-  99 1.84 115 1.85 150 1.92 144 1.97 230 2.01 206 2.02
  32  0.504  0.752  0.252- 100 1.92 207 2.01 231 2.01 145 2.01 222 2.02 151 2.03
  33  0.502  0.743  0.742- 116 1.82  73 1.82 190 1.93 208 1.98 152 2.02 232 2.06
  34  0.257  0.998  0.006- 101 1.85  75 1.85 246 1.93 233 1.96 171 2.01 157 2.05
  35  0.250  0.995  0.506-  76 1.82 128 1.85 172 1.94 191 1.98 234 2.00 156 2.01
  36  0.244  0.508  0.998- 123 1.82  89 1.83 159 1.93 153 1.97 192 2.01 245 2.03
  37  0.253  0.491  0.508-  77 1.82 127 1.85 102 1.91 173 1.99 235 2.08 158 2.12   1 2.83
  38  0.758  0.001  0.994- 103 1.79  81 1.87 249 1.95 236 1.95 154 2.04 174 2.04
  39  0.750  0.007  0.494-  80 1.82 124 1.84 193 1.93 175 1.99 155 2.00 250 2.02
  40  0.742  0.501  0.005-  90 1.80  78 1.87 237 1.95 247 1.96 161 2.03 194 2.06
  41  0.755  0.498  0.505-  79 1.84 104 1.86 248 1.95 238 1.97 160 2.02 176 2.02
  42  0.246  0.002  0.244-  75 1.83  91 1.85 239 1.94 252 1.98 195 2.03 156 2.04
  43  0.258  0.997  0.745- 105 1.83  76 1.86 253 1.93 240 1.96 157 2.01 177 2.02
  44  0.255  0.491  0.250- 129 1.81 106 1.84 153 1.94 158 1.97 178 2.02 241 2.05
  45  0.248  0.506  0.742-  77 1.81 125 1.82 179 1.94 196 1.96 159 2.03 251 2.03
  46  0.746  0.000  0.255-  92 1.84  80 1.87 256 1.93 242 1.96 154 2.00 197 2.00
  47  0.749  0.006  0.756-  81 1.82 126 1.84 180 1.95 198 1.97 257 2.03 155 2.05
  48  0.756  0.500  0.243-  78 1.81 107 1.86 243 1.93 254 1.96 181 2.01 160 2.05
  49  0.757  0.498  0.743- 108 1.83  79 1.84 255 1.93 244 1.97 182 2.02 161 2.03
  50  0.257  0.251  0.006- 109 1.82  82 1.86 245 1.93 233 1.97 168 2.02 183 2.05
  51  0.254  0.255  0.506- 127 1.82  83 1.84 199 1.95 184 2.00 234 2.03 167 2.03
  52  0.252  0.742  0.995- 123 1.82  86 1.84 200 1.93 185 1.96 246 2.03 162 2.04
  53  0.251  0.757  0.494- 128 1.82  85 1.87 186 1.95 201 1.95 163 2.00 235 2.05   1 2.88
  54  0.757  0.251  0.007- 110 1.81  84 1.85 236 1.94 247 1.94 170 2.03 187 2.03
  55  0.742  0.243  0.498- 124 1.81  93 1.85 169 1.93 164 1.95 248 2.02 202 2.04
  56  0.742  0.750  0.993-  94 1.81  88 1.84 237 1.94 249 1.95 203 2.02 165 2.03
  57  0.743  0.753  0.492-  87 1.81  95 1.83 250 1.95 238 1.97 204 2.03 166 2.05
  58  0.251  0.257  0.244-  82 1.82 129 1.83 205 1.95 188 1.98 239 2.02 167 2.04
  59  0.244  0.252  0.744-  96 1.84  83 1.85 251 1.93 240 1.98 168 2.03 206 2.04
  60  0.242  0.748  0.256-  97 1.81  85 1.89 241 1.95 252 1.97 162 2.02 207 2.04
  61  0.248  0.742  0.757- 125 1.82  86 1.82 189 1.93 208 1.96 253 2.03 163 2.06
  62  0.742  0.251  0.242-  84 1.80  98 1.82 254 1.93 242 1.94 209 2.04 169 2.06
  63  0.744  0.242  0.751- 126 1.81  99 1.84 170 1.93 164 1.99 210 2.02 255 2.04
  64  0.743  0.751  0.255- 100 1.78  87 1.87 243 1.96 256 1.96 165 2.03 211 2.06
  65  0.758  0.751  0.756- 111 1.83  88 1.84 257 1.93 244 1.97 190 2.02 166 2.03
  66  0.006  0.502  0.624-   5 1.82  13 1.83
  67  0.996  0.006  0.376-   3 1.82  10 1.86
  68  0.000  0.002  0.873-  11 1.79   2 1.88
  69  0.504  0.493  0.376-   9 1.84  16 1.84
  70  0.497  0.498  0.874-  17 1.80   8 1.87
  71  0.002  0.747  0.126-  28 1.81  20 1.86
  72  0.005  0.746  0.624-  21 1.83  29 1.85
  73  0.502  0.757  0.625-  25 1.81  33 1.82
  74  0.996  0.247  0.377-  19 1.77  26 1.88
  75  0.254  0.999  0.126-  42 1.83  34 1.85
  76  0.254  1.000  0.624-  35 1.82  43 1.86
  77  0.245  0.491  0.626-  45 1.81  37 1.82
  78  0.753  0.493  0.125-  48 1.81  40 1.87
  79  0.748  0.494  0.624-  41 1.84  49 1.84
  80  0.752  1.000  0.376-  39 1.82  46 1.87
  81  0.747  0.998  0.873-  47 1.82  38 1.87
  82  0.247  0.253  0.126-  58 1.82  50 1.86
  83  0.253  0.252  0.625-  51 1.84  59 1.85
  84  0.744  0.258  0.126-  62 1.80  54 1.85
  85  0.263  0.733  0.376-  53 1.87  60 1.89   1 2.11
  86  0.252  0.749  0.875-  61 1.82  52 1.84
  87  0.757  0.752  0.376-  57 1.81  64 1.87
  88  0.751  0.753  0.874-  65 1.84  56 1.84
  89  0.125  0.504  0.997-  36 1.83   4 1.84
  90  0.626  0.507  0.001-  40 1.80   8 1.88
  91  0.126  0.002  0.253-  10 1.83  42 1.85
  92  0.626  0.001  0.250-  14 1.84  46 1.84
  93  0.624  0.260  0.497-  23 1.80  55 1.85
  94  0.626  0.743  0.000-  56 1.81  24 1.83
  95  0.624  0.764  0.494-  25 1.81  57 1.83
  96  0.125  0.250  0.748-  27 1.84  59 1.84
  97  0.125  0.754  0.258-  60 1.81  28 1.87
  98  0.626  0.248  0.260-  62 1.82  30 1.82
  99  0.625  0.252  0.746-  31 1.84  63 1.84
 100  0.628  0.758  0.253-  64 1.78  32 1.92
 101  0.376  0.000  0.993-   6 1.84  34 1.85
 102  0.373  0.515  0.491-   9 1.84  37 1.91   1 2.20
 103  0.874  0.003  0.000-  38 1.79   2 1.89
 104  0.875  0.503  0.498-   5 1.82  41 1.86
 105  0.376  0.996  0.756-  15 1.81  43 1.83
 106  0.373  0.502  0.256-  44 1.84  16 1.86
 107  0.876  0.499  0.255-  12 1.81  48 1.86
 108  0.875  0.507  0.748-  13 1.81  49 1.83
 109  0.375  0.248  0.003-  50 1.82  22 1.85
 110  0.875  0.248  0.004-  54 1.81  18 1.87
 111  0.875  0.745  0.747-  29 1.82  65 1.83
 112  0.512  0.123  0.499-   7 1.78  23 1.89
 113  0.996  0.126  0.744-  27 1.80  11 1.84
 114  0.497  0.126  0.261-  30 1.80  14 1.84
 115  0.500  0.124  0.745-  15 1.83  31 1.85
 116  0.501  0.625  0.747-  33 1.82  17 1.86
 117  0.000  0.375  0.004-  18 1.82   4 1.85
 118  0.002  0.875  0.001-  20 1.80   2 1.86
 119  0.996  0.875  0.499-   3 1.81  21 1.83
 120  0.502  0.374  0.005-  22 1.79   8 1.88
 121  0.504  0.876  0.999-   6 1.83  24 1.85
 122  0.006  0.374  0.248-  26 1.79  12 1.86
 123  0.255  0.625  0.006-  52 1.82  36 1.82
 124  0.740  0.125  0.504-  55 1.81  39 1.84
 125  0.248  0.624  0.747-  61 1.82  45 1.82
 126  0.752  0.125  0.745-  63 1.81  47 1.84
 127  0.256  0.372  0.490-  51 1.82  37 1.85
 128  0.255  0.876  0.494-  53 1.82  35 1.85
 129  0.245  0.375  0.261-  44 1.81  58 1.83
 130  0.001  0.003  0.127-  10 2.00   2 2.04
 131  0.005  0.998  0.624-   3 2.01  11 2.06
 132  0.999  0.508  0.125-  12 1.96   4 1.98
 133  0.495  0.008  0.125-  14 1.93   6 1.96
 134  0.498  0.992  0.623-   7 1.91  15 1.99
 135  0.498  0.504  0.127-  16 2.01   8 2.04
 136  0.500  0.497  0.624-   9 2.00  17 2.07
 137  0.006  0.496  0.376-  12 1.93   5 2.03
 138  0.998  0.498  0.873-   4 1.93  13 2.02
 139  0.504  0.994  0.377-   7 1.91  14 1.98
 140  0.514  0.004  0.874-  15 1.92   6 1.95
 141  0.007  0.246  0.127-  18 1.96  26 1.98
 142  0.999  0.258  0.621-  27 1.96  19 2.01
 143  0.507  0.240  0.126-  30 1.93  22 1.97
 144  0.494  0.250  0.623-  23 1.92  31 1.97
 145  0.497  0.749  0.122-  24 1.91  32 2.01
 146  0.997  0.251  0.874-  18 1.97  27 1.97
 147  0.992  0.750  0.376-  21 2.01  28 2.05
 148  0.001  0.751  0.874-  29 2.02  20 2.04
 149  0.493  0.261  0.376-  23 1.93  30 1.97
 150  0.501  0.250  0.874-  31 1.92  22 1.96
 151  0.484  0.746  0.382-  25 1.98  32 2.03
 152  0.497  0.750  0.873-  24 1.95  33 2.02
 153  0.249  0.490  0.125-  44 1.94  36 1.97
 154  0.750  0.005  0.126-  46 2.00  38 2.04
 155  0.746  0.997  0.623-  39 2.00  47 2.05
 156  0.253  0.004  0.376-  35 2.01  42 2.04
 157  0.244  0.996  0.874-  43 2.01  34 2.05
 158  0.247  0.521  0.375-  44 1.97   1 2.00  37 2.12
 159  0.256  0.500  0.874-  36 1.93  45 2.03
 160  0.744  0.506  0.375-  41 2.02  48 2.05
 161  0.750  0.505  0.874-  49 2.03  40 2.03
 162  0.249  0.757  0.126-  60 2.02  52 2.04
 163  0.245  0.752  0.624-  53 2.00  61 2.06
 164  0.753  0.260  0.623-  55 1.95  63 1.99
 165  0.754  0.748  0.124-  64 2.03  56 2.03
 166  0.746  0.748  0.625-  65 2.03  57 2.05
 167  0.251  0.241  0.375-  51 2.03  58 2.04
 168  0.251  0.249  0.875-  50 2.02  59 2.03
 169  0.761  0.244  0.374-  55 1.93  62 2.06
 170  0.751  0.246  0.876-  63 1.93  54 2.03
 171  0.126  0.002  0.001-  34 2.01   2 2.02
 172  0.125  0.002  0.498-  35 1.94   3 1.95
 173  0.125  0.497  0.494-  37 1.99   5 2.05
 174  0.626  0.002  0.007-   6 2.03  38 2.04
 175  0.624  0.982  0.502-   7 1.93  39 1.99
 176  0.624  0.490  0.501-  41 2.02   9 2.05
 177  0.127  0.001  0.747-  11 1.95  43 2.02
 178  0.125  0.505  0.248-  44 2.02  12 2.04
 179  0.124  0.494  0.759-  45 1.94  13 2.04
 180  0.624  0.996  0.742-  47 1.95  15 2.03
 181  0.626  0.494  0.247-  48 2.01  16 2.04
 182  0.626  0.493  0.751-  17 1.94  49 2.02
 183  0.125  0.250  0.996-  18 2.01  50 2.05
 184  0.124  0.249  0.499-  19 1.94  51 2.00
 185  0.126  0.745  0.999-  52 1.96  20 1.97
 186  0.125  0.751  0.492-  53 1.95  21 1.98
 187  0.626  0.250  0.995-  54 2.03  22 2.03
 188  0.125  0.240  0.256-  26 1.95  58 1.98
 189  0.124  0.753  0.752-  61 1.93  29 2.02
 190  0.626  0.754  0.752-  33 1.93  65 2.02
 191  0.378  0.010  0.497-   7 1.91  35 1.98
 192  0.373  0.496  0.004-  36 2.01   8 2.03
 193  0.875  0.009  0.509-  39 1.93   3 1.95
 194  0.875  0.498  0.997-   4 2.02  40 2.06
 195  0.377  0.001  0.256-  14 2.02  42 2.03
 196  0.374  0.498  0.746-  45 1.96  17 1.97
 197  0.875  0.002  0.247-  46 2.00  10 2.05
 198  0.875  0.994  0.742-  47 1.97  11 1.98
 199  0.378  0.237  0.496-  51 1.95  23 2.01
 200  0.376  0.757  0.001-  52 1.93  24 2.03
 201  0.375  0.737  0.508-  53 1.95  25 2.07
 202  0.874  0.248  0.504-  19 1.93  55 2.04
 203  0.873  0.754  1.000-  20 1.94  56 2.02
 204  0.873  0.741  0.508-  21 1.93  57 2.03
 205  0.378  0.254  0.248-  58 1.95  30 2.02
 206  0.376  0.250  0.753-  31 2.02  59 2.04
 207  0.374  0.744  0.245-  32 2.01  60 2.04
 208  0.374  0.755  0.747-  61 1.96  33 1.98
 209  0.874  0.254  0.245-  26 1.94  62 2.04
 210  0.874  0.255  0.748-  63 2.02  27 2.04
 211  0.876  0.746  0.248-  28 1.99  64 2.06
 212  0.004  0.127  0.001-  18 2.02   2 2.04
 213  0.000  0.126  0.509-  19 1.91   3 2.08
 214  0.995  0.625  0.995-   4 2.01  20 2.06
 215  0.005  0.626  0.493-   5 1.92  21 2.03
 216  0.505  0.125  0.997-   6 2.02  22 2.05
 217  0.490  0.627  0.999-  24 2.02   8 2.03
 218  0.511  0.625  0.502-   9 1.98  25 1.98
 219  0.995  0.128  0.247-  10 1.94  26 2.02
 220  0.002  0.623  0.257-  28 1.95  12 2.00
 221  0.010  0.624  0.755-  13 1.96  29 1.98
 222  0.506  0.621  0.255-  16 1.92  32 2.02
 223  0.000  0.374  0.498-  19 1.94   5 2.00
 224  0.486  0.372  0.506-   9 1.97  23 1.98
 225  0.485  0.878  0.496-  25 1.97   7 2.02
 226  0.997  0.374  0.751-  13 1.93  27 2.04
 227  0.995  0.876  0.252-  10 1.97  28 1.98
 228  0.001  0.876  0.747-  29 1.93  11 2.04
 229  0.500  0.372  0.241-  16 1.95  30 2.01
 230  0.497  0.373  0.746-  31 2.01  17 2.04
 231  0.494  0.882  0.248-  14 1.95  32 2.01
 232  0.502  0.876  0.756-  15 2.01  33 2.06
 233  0.246  0.125  0.997-  34 1.96  50 1.97
 234  0.247  0.124  0.499-  35 2.00  51 2.03
 235  0.246  0.625  0.504-  53 2.05   1 2.06  37 2.08
 236  0.744  0.126  0.001-  54 1.94  38 1.95
 237  0.761  0.625  0.001-  56 1.94  40 1.95
 238  0.741  0.625  0.502-  41 1.97  57 1.97
 239  0.257  0.127  0.251-  42 1.94  58 2.02
 240  0.252  0.124  0.754-  43 1.96  59 1.98
 241  0.248  0.623  0.238-  60 1.95  44 2.05
 242  0.758  0.127  0.249-  62 1.94  46 1.96
 243  0.746  0.625  0.248-  48 1.93  64 1.96
 244  0.740  0.625  0.748-  49 1.97  65 1.97
 245  0.249  0.376  0.995-  50 1.93  36 2.03
 246  0.245  0.873  0.001-  34 1.93  52 2.03
 247  0.749  0.375  0.988-  54 1.94  40 1.96
 248  0.756  0.373  0.490-  41 1.95  55 2.02
 249  0.747  0.875  0.008-  56 1.95  38 1.95
 250  0.763  0.877  0.504-  57 1.95  39 2.02
 251  0.253  0.376  0.759-  59 1.93  45 2.03
 252  0.256  0.875  0.258-  60 1.97  42 1.98
 253  0.246  0.873  0.748-  43 1.93  61 2.03
 254  0.751  0.375  0.264-  62 1.93  48 1.96
 255  0.754  0.374  0.757-  49 1.93  63 2.04
 256  0.760  0.877  0.243-  46 1.93  64 1.96
 257  0.751  0.875  0.743-  65 1.93  47 2.03
 

IMPORTANT INFORMATION: All symmetrisations will be switched off!
NOSYMM: (Re-)initialisation of all symmetry stuff for point group C_1.

 
 
 KPOINTS: Title                                   

Automatic generation of k-mesh.
Space group operators:
 irot       det(A)        alpha          n_x          n_y          n_z        tau_x        tau_y        tau_z
    1     1.000000     0.000001     1.000000     0.000000     0.000000     0.000000     0.000000     0.000000
 
 Subroutine IBZKPT returns following result:
 ===========================================
 
 Found      4 irreducible k-points:
 
 Following reciprocal coordinates:
            Coordinates               Weight
  0.250000  0.250000  0.250000      2.000000
 -0.250000  0.250000  0.250000      2.000000
  0.250000 -0.250000  0.250000      2.000000
 -0.250000 -0.250000  0.250000      2.000000
 
 Following cartesian coordinates:
            Coordinates               Weight
  0.016206  0.016206  0.016206      2.000000
 -0.016206  0.016206  0.016206      2.000000
  0.016206 -0.016206  0.016206      2.000000
 -0.016206 -0.016206  0.016206      2.000000
 


--------------------------------------------------------------------------------------------------------




 Dimension of arrays:
   k-points           NKPTS =      4   k-points in BZ     NKDIM =      4   number of bands    NBANDS=   1164
   number of dos      NEDOS =   3001   number of ions     NIONS =    257
   non local maximal  LDIM  =      6   non local SUM 2l+1 LMDIM =     18
   total plane-waves  NPLWV = ******
   max r-space proj   IRMAX =   7595   max aug-charges    IRDMAX= 146383
   dimension x,y,z NGX =   120 NGY =  120 NGZ =  120
   dimension x,y,z NGXF=   240 NGYF=  240 NGZF=  240
   support grid    NGXF=   480 NGYF=  480 NGZF=  480
   ions per type =               1  64  64 128
   NGX,Y,Z   is equivalent  to a cutoff of  12.93, 12.93, 12.93 a.u.
   NGXF,Y,Z  is equivalent  to a cutoff of  25.86, 25.86, 25.86 a.u.

 SYSTEM =  LTO                                     
 POSCAR =  config 26                               

 Startparameter for this run:
   NWRITE =      2    write-flag & timer
   PREC   = accura    normal or accurate (medium, high low for compatibility)
   ISTART =      1    job   : 0-new  1-cont  2-samecut
   ICHARG =      0    charge: 1-file 2-atom 10-const
   ISPIN  =      2    spin polarized calculation?
   LNONCOLLINEAR =      F non collinear calculations
   LSORBIT =      F    spin-orbit coupling
   INIWAV =      1    electr: 0-lowe 1-rand  2-diag
   LASPH  =      T    aspherical Exc in radial PAW
   METAGGA=      F    non-selfconsistent MetaGGA calc.

 Electronic Relaxation 1
   ENCUT  =  500.0 eV  36.75 Ry    6.06 a.u.  28.13 28.13 28.13*2*pi/ulx,y,z
   ENINI  =  500.0     initial cutoff
   ENAUG  =  628.9 eV  augmentation charge cutoff
   NELM   =     60;   NELMIN=  2; NELMDL=  0     # of ELM steps 
   EDIFF  = 0.1E-05   stopping-criterion for ELM
   LREAL  =      T    real-space projection
   NLSPLINE    = F    spline interpolate recip. space projectors
   LCOMPAT=      F    compatible to vasp.4.4
   GGA_COMPAT  = T    GGA compatible to vasp.4.4-vasp.4.6
   LMAXPAW     = -100 max onsite density
   LMAXMIX     =    4 max onsite mixed and CHGCAR
   VOSKOWN=      0    Vosko Wilk Nusair interpolation
   ROPT   =   -0.00010  -0.00010  -0.00010  -0.00010
 Ionic relaxation
   EDIFFG = -.5E-01   stopping-criterion for IOM
   NSW    =    100    number of steps for IOM
   NBLOCK =      1;   KBLOCK =    100    inner block; outer block 
   IBRION =      1    ionic relax: 0-MD 1-quasi-New 2-CG
   NFREE  =      0    steps in history (QN), initial steepest desc. (CG)
   ISIF   =      2    stress and relaxation
   IWAVPR =     11    prediction:  0-non 1-charg 2-wave 3-comb
   ISYM   =      0    0-nonsym 1-usesym 2-fastsym
   LCORR  =      T    Harris-Foulkes like correction to forces

   POTIM  = 0.5000    time-step for ionic-motion
   TEIN   =    0.0    initial temperature
   TEBEG  =    0.0;   TEEND  =   0.0 temperature during run
   SMASS  =  -3.00    Nose mass-parameter (am)
   estimated Nose-frequenzy (Omega)   =  0.10E-29 period in steps =****** mass=  -0.544E-26a.u.
   SCALEE = 1.0000    scale energy and forces
   NPACO  =    256;   APACO  = 16.0  distance and # of slots for P.C.
   PSTRESS=    0.0 pullay stress

  Mass of Ions in am
   POMASS =   7.01 47.88 16.00 19.00
  Ionic Valenz
   ZVAL   =   3.00 10.00  6.00  7.00
  Atomic Wigner-Seitz radii
   RWIGS  =  -1.00 -1.00 -1.00 -1.00
  virtual crystal weights 
   VCA    =   1.00  1.00  1.00  1.00
   NELECT =    1923.0000    total number of electrons
   NUPDOWN=       1.0000    fix difference up-down

 DOS related values:
   EMIN   =  10.00;   EMAX   =-10.00  energy-range for DOS
   EFERMI =   0.00
   ISMEAR =     0;   SIGMA  =   0.01  broadening in eV -4-tet -1-fermi 0-gaus

 Electronic relaxation 2 (details)
   IALGO  =     38    algorithm
   LDIAG  =      T    sub-space diagonalisation (order eigenvalues)
   LSUBROT=      F    optimize rotation matrix (better conditioning)
   TURBO    =      0    0=normal 1=particle mesh
   IRESTART =      0    0=no restart 2=restart with 2 vectors
   NREBOOT  =      0    no. of reboots
   NMIN     =      0    reboot dimension
   EREF     =   0.00    reference energy to select bands
   IMIX   =      4    mixing-type and parameters
     AMIX     =   0.40;   BMIX     =  1.00
     AMIX_MAG =   1.60;   BMIX_MAG =  1.00
     AMIN     =   0.10
     WC   =   100.;   INIMIX=   1;  MIXPRE=   1;  MAXMIX= -45

 Intra band minimization:
   WEIMIN = 0.0010     energy-eigenvalue tresh-hold
   EBREAK =  0.21E-09  absolut break condition
   DEPER  =   0.30     relativ break condition  

   TIME   =   0.40     timestep for ELM

  volume/ion in A,a.u.               =      14.28        96.39
  Fermi-wavevector in a.u.,A,eV,Ry     =   1.319690  2.493853 23.695660  1.741582
  Thomas-Fermi vector in A             =   2.449570
 
 Write flags
   LWAVE        =      T    write WAVECAR
   LDOWNSAMPLE  =      F    k-point downsampling of WAVECAR
   LCHARG       =      T    write CHGCAR
   LVTOT        =      F    write LOCPOT, total local potential
   LVHAR        =      F    write LOCPOT, Hartree potential only
   LELF         =      F    write electronic localiz. function (ELF)
   LORBIT       =     11    0 simple, 1 ext, 2 COOP (PROOUT), +10 PAW based schemes


 Dipole corrections
   LMONO  =      F    monopole corrections only (constant potential shift)
   LDIPOL =      F    correct potential (dipole corrections)
   IDIPOL =      0    1-x, 2-y, 3-z, 4-all directions 
   EPSILON=  1.0000000 bulk dielectric constant

 LDA+U is selected, type is set to LDAUTYPE =  2
   angular momentum for each species LDAUL =    -1    2   -1   -1
   U (eV)           for each species LDAUU =   0.0  4.2  0.0  0.0
   J (eV)           for each species LDAUJ =   0.0  0.0  0.0  0.0
 Exchange correlation treatment:
   GGA     =    PS    GGA type
   LEXCH   =    14    internal setting for exchange type
   VOSKOWN=      0    Vosko Wilk Nusair interpolation
   LHFCALC =     F    Hartree Fock is set to
   LHFONE  =     F    Hartree Fock one center treatment
   AEXX    =    0.0000 exact exchange contribution

 Linear response parameters
   LEPSILON=     F    determine dielectric tensor
   LRPA    =     F    only Hartree local field effects (RPA)
   LNABLA  =     F    use nabla operator in PAW spheres
   LVEL    =     F    velocity operator in full k-point grid
   LINTERFAST=   F  fast interpolation
   KINTER  =     0    interpolate to denser k-point grid
   CSHIFT  =0.1000    complex shift for real part using Kramers Kronig
   OMEGAMAX=  -1.0    maximum frequency
   DEG_THRESHOLD= 0.2000000E-02 threshold for treating states as degnerate
   RTIME   =   -0.100 relaxation time in fs
  (WPLASMAI=    0.000 imaginary part of plasma frequency in eV, 0.658/RTIME)
   DFIELD  = 0.0000000 0.0000000 0.0000000 field for delta impulse in time
 
 Orbital magnetization related:
   ORBITALMAG=     F  switch on orbital magnetization
   LCHIMAG   =     F  perturbation theory with respect to B field
   DQ        =  0.001000  dq finite difference perturbation B field
   LLRAUG    =     F  two centre corrections for induced B field



--------------------------------------------------------------------------------------------------------


 quasi-Newton-method for relaxation of ions
 charge density and potential will be updated during run
 spin polarized calculation
 Variant of blocked Davidson
 Davidson routine will perform the subspace rotation
 perform sub-space diagonalisation
    after iterative eigenvector-optimisation
 modified Broyden-mixing scheme, WC =      100.0
 initial mixing is a Kerker type mixing with AMIX =  0.4000 and BMIX =      1.0000
 Hartree-type preconditioning will be used
 using additional bands          202
 real space projection scheme for non local part
 use partial core corrections
 calculate Harris-corrections to forces 
   (improved forces if not selfconsistent)
 use gradient corrections 
 use of overlap-Matrix (Vanderbilt PP)
 Gauss-broadening in eV      SIGMA  =   0.01


--------------------------------------------------------------------------------------------------------


  energy-cutoff  :      500.00
  volume of cell :     3671.03
      direct lattice vectors                 reciprocal lattice vectors
    15.426331000  0.000000000  0.000000000     0.064824228  0.000000000  0.000000000
     0.000000000 15.426331000  0.000000000     0.000000000  0.064824228  0.000000000
     0.000000000  0.000000000 15.426331000     0.000000000  0.000000000  0.064824228

  length of vectors
    15.426331000 15.426331000 15.426331000     0.064824228  0.064824228  0.064824228


 
 old parameters found on file WAVECAR:
  energy-cutoff  :      500.00
  volume of cell :     3671.03
      direct lattice vectors                 reciprocal lattice vectors
    15.426331000  0.000000000  0.000000000     0.064824228  0.000000000  0.000000000
     0.000000000 15.426331000  0.000000000     0.000000000  0.064824228  0.000000000
     0.000000000  0.000000000 15.426331000     0.000000000  0.000000000  0.064824228

  length of vectors

 
 k-points in units of 2pi/SCALE and weight: Title                                   
   0.01620606  0.01620606  0.01620606       0.250
  -0.01620606  0.01620606  0.01620606       0.250
   0.01620606 -0.01620606  0.01620606       0.250
  -0.01620606 -0.01620606  0.01620606       0.250
 
 k-points in reciprocal lattice and weights: Title                                   
   0.25000000  0.25000000  0.25000000       0.250
  -0.25000000  0.25000000  0.25000000       0.250
   0.25000000 -0.25000000  0.25000000       0.250
  -0.25000000 -0.25000000  0.25000000       0.250
 
 position of ions in fractional coordinates (direct lattice) 
   0.33044400  0.61688941  0.40051157
   0.99556950  0.99561060  0.99459952
   0.99940652  0.99191375  0.49349878
   0.00569017  0.49541427  0.99785969
   0.99274545  0.50281194  0.50688888
   0.49469915  0.99453499  0.99906965
   0.50157814  0.00809937  0.49996021
   0.50434228  0.49572719  0.99527886
   0.49141597  0.49896714  0.49402145
   0.00745116  0.00302499  0.25620848
   0.00151589  0.00752701  0.75674803
   0.99321774  0.49417193  0.25174390
   0.99252461  0.49911610  0.74194066
   0.50733623  0.00738653  0.24961299
   0.49305694  0.00530508  0.75135138
   0.49387424  0.49717773  0.25668892
   0.50122456  0.50485537  0.75770167
   0.99543708  0.25744263  0.00114736
   0.99857986  0.24821205  0.49120902
   0.99867968  0.75825424  0.00623012
   0.99740439  0.75665654  0.50625671
   0.49506103  0.25803198  0.00053690
   0.50819798  0.24554879  0.49937365
   0.50766982  0.75666038  0.99861716
   0.50845177  0.75360564  0.50765832
   0.99953341  0.25858126  0.25499976
   0.00623068  0.24231373  0.74711339
   0.00494049  0.74886324  0.24358299
   0.99303405  0.75078041  0.74313804
   0.50812598  0.24165415  0.25116133
   0.50668198  0.24312840  0.74965192
   0.50380354  0.75185903  0.25216819
   0.50190371  0.74258421  0.74237323
   0.25687513  0.99817445  0.00629813
   0.25044165  0.99472413  0.50633678
   0.24362539  0.50772011  0.99795971
   0.25290330  0.49065045  0.50835493
   0.75760456  0.00063054  0.99392494
   0.75040552  0.00656581  0.49405758
   0.74207208  0.50075632  0.00507007
   0.75461166  0.49809627  0.50518337
   0.24556540  0.00179545  0.24409196
   0.25789039  0.99742484  0.74460600
   0.25492143  0.49137641  0.25046604
   0.24774028  0.50618461  0.74244086
   0.74569988  0.00036491  0.25532181
   0.74860132  0.00638917  0.75588176
   0.75582606  0.49971287  0.24262082
   0.75728149  0.49816040  0.74260393
   0.25742300  0.25149750  0.00579778
   0.25357037  0.25528508  0.50550123
   0.25227026  0.74217164  0.99452505
   0.25111522  0.75743605  0.49435346
   0.75740655  0.25106046  0.00703911
   0.74230849  0.24264637  0.49796453
   0.74246297  0.74988360  0.99327674
   0.74284803  0.75257442  0.49194553
   0.25146071  0.25724958  0.24385301
   0.24393981  0.25159513  0.74393870
   0.24228850  0.74805130  0.25647529
   0.24806310  0.74168394  0.75743612
   0.74228714  0.25141790  0.24223802
   0.74416983  0.24201892  0.75062895
   0.74295684  0.75115372  0.25535795
   0.75750250  0.75092951  0.75562321
   0.00639633  0.50173852  0.62436373
   0.99588533  0.00595476  0.37635530
   0.00002032  0.00220832  0.87268764
   0.50373439  0.49340505  0.37564551
   0.49731411  0.49834196  0.87414061
   0.00243968  0.74652947  0.12622177
   0.00503048  0.74608164  0.62413283
   0.50248826  0.75664253  0.62492566
   0.99560258  0.24701319  0.37654150
   0.25448379  0.99928473  0.12594801
   0.25380440  0.99999475  0.62441903
   0.24505598  0.49144461  0.62618514
   0.75314421  0.49297193  0.12545228
   0.74789084  0.49422439  0.62391891
   0.75155870  0.99951485  0.37616039
   0.74696771  0.99826075  0.87330012
   0.24654043  0.25297139  0.12607801
   0.25349953  0.25161044  0.62454664
   0.74406925  0.25796840  0.12584930
   0.26306217  0.73311633  0.37618989
   0.25163465  0.74905201  0.87532418
   0.75681684  0.75217809  0.37563818
   0.75081183  0.75305920  0.87444754
   0.12481729  0.50361652  0.99744585
   0.62588545  0.50662083  0.00093089
   0.12608021  0.00160032  0.25278704
   0.62640423  0.00068791  0.24958749
   0.62385445  0.25965889  0.49677807
   0.62553022  0.74312394  0.00049584
   0.62447422  0.76395966  0.49390126
   0.12494902  0.25049023  0.74817650
   0.12536646  0.75365720  0.25765453
   0.62580476  0.24843460  0.26011621
   0.62531775  0.25173370  0.74606844
   0.62793067  0.75783622  0.25281968
   0.37570847  0.00041051  0.99293963
   0.37319993  0.51510401  0.49102614
   0.87359931  0.00255628  0.00032565
   0.87486163  0.50311309  0.49771279
   0.37583106  0.99630726  0.75553621
   0.37335268  0.50198116  0.25596296
   0.87593515  0.49910269  0.25451136
   0.87530429  0.50682850  0.74825017
   0.37545758  0.24819396  0.00266731
   0.87467503  0.24822324  0.00402010
   0.87543456  0.74456572  0.74699074
   0.51181638  0.12278006  0.49874340
   0.99593145  0.12613955  0.74381723
   0.49738473  0.12558231  0.26116524
   0.50042557  0.12370193  0.74472393
   0.50123602  0.62493091  0.74671014
   0.00032469  0.37544411  0.00386654
   0.00209484  0.87509860  0.00135905
   0.99575372  0.87490713  0.49872654
   0.50227125  0.37404082  0.00498997
   0.50431956  0.87648633  0.99931940
   0.00564661  0.37419284  0.24774781
   0.25548025  0.62507725  0.00563672
   0.74045653  0.12533858  0.50356881
   0.24808179  0.62415818  0.74671096
   0.75218326  0.12480349  0.74491276
   0.25612459  0.37226129  0.49028092
   0.25453623  0.87550615  0.49449863
   0.24492374  0.37465040  0.26065453
   0.00104956  0.00255801  0.12679135
   0.00483490  0.99807908  0.62353500
   0.99874086  0.50813941  0.12538925
   0.49542250  0.00839645  0.12538725
   0.49773923  0.99207956  0.62298591
   0.49774896  0.50431727  0.12690767
   0.49981129  0.49686528  0.62355246
   0.00590703  0.49641320  0.37641490
   0.99816782  0.49794944  0.87282851
   0.50375489  0.99415585  0.37725734
   0.51409186  0.00404839  0.87430783
   0.00683283  0.24597519  0.12716020
   0.99853647  0.25844008  0.62128680
   0.50723192  0.24031897  0.12626068
   0.49357989  0.25036552  0.62285982
   0.49656669  0.74872495  0.12178862
   0.99687065  0.25072002  0.87394620
   0.99227517  0.74983223  0.37604447
   0.00128419  0.75085434  0.87391921
   0.49293203  0.26129152  0.37616159
   0.50124747  0.24995866  0.87410570
   0.48390505  0.74614909  0.38188532
   0.49712334  0.74973005  0.87301377
   0.24926867  0.49013724  0.12454399
   0.75010657  0.00480894  0.12607653
   0.74619571  0.99682612  0.62307942
   0.25332598  0.00448593  0.37619406
   0.24390395  0.99615058  0.87399281
   0.24693853  0.52144787  0.37462652
   0.25642546  0.50040184  0.87358980
   0.74393233  0.50575422  0.37500746
   0.75019003  0.50451420  0.87370165
   0.24912340  0.75691391  0.12604355
   0.24517914  0.75237455  0.62405234
   0.75254171  0.26028454  0.62302092
   0.75440835  0.74780519  0.12447269
   0.74564115  0.74821716  0.62465906
   0.25130708  0.24095395  0.37480124
   0.25085544  0.24850857  0.87499755
   0.76051555  0.24421170  0.37432789
   0.75112940  0.24604675  0.87569819
   0.12642914  0.00202927  0.00140164
   0.12526788  0.00243660  0.49776190
   0.12472621  0.49734564  0.49410685
   0.62571229  0.00211380  0.00680196
   0.62402112  0.98229487  0.50201019
   0.62400272  0.49003917  0.50109679
   0.12724371  0.00130661  0.74727037
   0.12490863  0.50479824  0.24775581
   0.12381264  0.49387312  0.75946818
   0.62373401  0.99555992  0.74162430
   0.62560461  0.49429269  0.24711762
   0.62637559  0.49338345  0.75102063
   0.12518014  0.25014062  0.99551068
   0.12393150  0.24855482  0.49947986
   0.12551786  0.74532536  0.99920246
   0.12473910  0.75104731  0.49156593
   0.62632238  0.24967717  0.99524113
   0.12474273  0.23963354  0.25576843
   0.12373462  0.75339804  0.75240319
   0.62642210  0.75373313  0.75184185
   0.37750599  0.00993469  0.49665888
   0.37323903  0.49560278  0.00396321
   0.87479790  0.00883584  0.50901534
   0.87507629  0.49841243  0.99729770
   0.37670357  0.00053222  0.25604513
   0.37431254  0.49751612  0.74575369
   0.87520717  0.00219159  0.24686104
   0.87463289  0.99357793  0.74192168
   0.37828353  0.23723763  0.49640606
   0.37607848  0.75717589  0.00071975
   0.37537865  0.73675986  0.50798492
   0.87405685  0.24818630  0.50423829
   0.87343666  0.75382626  0.99957782
   0.87308313  0.74132991  0.50759000
   0.37757762  0.25441027  0.24806229
   0.37581338  0.24978471  0.75297573
   0.37389205  0.74361967  0.24530530
   0.37434784  0.75461873  0.74713185
   0.87445425  0.25401496  0.24531963
   0.87440527  0.25451525  0.74750556
   0.87622749  0.74586639  0.24807374
   0.00408649  0.12710174  0.00104133
   0.00031200  0.12580726  0.50909489
   0.99450680  0.62543998  0.99497351
   0.00468529  0.62618277  0.49292215
   0.50453591  0.12529674  0.99699309
   0.49046112  0.62681204  0.99879611
   0.51124130  0.62537208  0.50158519
   0.99466492  0.12796723  0.24670818
   0.00233540  0.62326213  0.25710117
   0.01020581  0.62441187  0.75528354
   0.50582283  0.62091185  0.25501781
   0.00031383  0.37400238  0.49808444
   0.48567032  0.37199675  0.50572600
   0.48516964  0.87840884  0.49615535
   0.99665338  0.37447793  0.75086334
   0.99509164  0.87629472  0.25159198
   0.00083539  0.87586719  0.74731523
   0.49958251  0.37157990  0.24116796
   0.49691419  0.37304741  0.74599290
   0.49401281  0.88200541  0.24792248
   0.50241214  0.87566377  0.75556410
   0.24608446  0.12472572  0.99662266
   0.24682745  0.12412712  0.49921062
   0.24635773  0.62520101  0.50416629
   0.74402256  0.12635094  0.00138934
   0.76078531  0.62546166  0.00142242
   0.74077892  0.62500890  0.50155505
   0.25704531  0.12662561  0.25082863
   0.25212134  0.12420976  0.75412993
   0.24827933  0.62340284  0.23778776
   0.75761822  0.12657183  0.24882010
   0.74645693  0.62462088  0.24756997
   0.74016540  0.62459737  0.74786364
   0.24871781  0.37606962  0.99463392
   0.24536437  0.87348811  0.00064198
   0.74876752  0.37520193  0.98845259
   0.75615479  0.37254607  0.48983073
   0.74659158  0.87530626  0.00791202
   0.76317623  0.87697386  0.50436470
   0.25294674  0.37567704  0.75851446
   0.25646877  0.87482044  0.25808525
   0.24639608  0.87298837  0.74779625
   0.75087944  0.37453062  0.26376960
   0.75388502  0.37376492  0.75706686
   0.76016891  0.87662589  0.24301869
   0.75085622  0.87548107  0.74343913
 
 position of ions in cartesian coordinates  (Angst):
   5.09753858  9.51634025  6.17842403
  15.35798466 15.35861867 15.34302148
  15.41717570 15.30158988  7.61287555
   0.08777839  7.64242451 15.39331387
  15.31441994  7.75654336  7.81943559
   7.63139286 15.34202596 15.41197908
   7.73751037  0.12494355  7.71255169
   7.78015090  7.64725169 15.35350121
   7.58074547  7.69723220  7.62093841
   0.11494408  0.04666454  3.95235689
   0.02338455  0.11611408 11.67384557
  15.32170566  7.62325982  3.88348470
  15.31101320  7.69953019 11.44542217
   7.82633667  0.11394702  3.85061261
   7.60605950  0.08183789 11.59059507
   7.61866749  7.66962816  3.95976817
   7.73205595  7.78806608 11.68855675
  15.35594194  3.97139521  0.01769960
  15.40442348  3.82900127  7.57755294
  15.40596328 11.69708084  0.09610789
  15.38629033 11.67243424  7.80968355
   7.63697535  3.98048678  0.00828246
   7.83963026  3.78791695  7.70350315
   7.83148271 11.67249350 15.40499888
   7.84354529 11.62536997  7.83130532
  15.41913318  3.98896011  3.93371075
   0.09611657  3.73801182 11.52521839
   0.07621356 11.55221219  3.75759188
  15.31887201 11.58178714 11.46389335
   7.83851956  3.72783686  3.87449777
   7.81624389  3.75057914 11.56437871
   7.77184022 11.59842630  3.89002993
   7.74253278 11.45534985 11.45209523
   3.96264083 15.39816942  0.09715705
   3.86339576 15.34494368  7.81091877
   3.75824596  7.83225853 15.39485677
   3.90136996  7.56893630  7.84205140
  11.68705867  0.00972688 15.33261507
  11.57600390  0.10128631  7.62149581
  11.44744949  7.72483270  0.07821253
  11.64088930  7.68379794  7.79312591
   3.78817307  0.02769717  3.76544341
   3.97830245 15.38660570 11.48653868
   3.93250236  7.58013519  3.86377209
   3.82172353  7.80857132 11.45313850
  11.50341316  0.00562926  3.93867868
  11.54817170  0.09856144 11.66048223
  11.65962297  7.70873610  3.74274910
  11.68207485  7.68478724 11.45565404
   3.97109245  3.87968362  0.08943847
   3.91166049  3.93811220  7.79802933
   3.89160452 11.44898537 15.34187268
   3.87378647 11.68445923  7.62606008
  11.68400407  3.87294177  0.10858764
  11.45109640  3.74314316  7.68176573
  11.45347946 11.56795262 15.32261570
  11.45941953 11.60946215  7.58891458
   3.87911611  3.96841712  3.76175718
   3.76309630  3.88118974 11.47624470
   3.73762252 11.53968689  3.95647275
   3.82670350 11.44146190 11.68446025
  11.45076707  3.87845573  3.73684385
  11.47981011  3.73346400 11.57945061
  11.46109816 11.58754599  3.93923624
  11.68548435 11.58408712 11.65649370
   0.09867192  7.73998445  9.63164156
  15.36285677  0.09186017  5.80578146
   0.00031341  0.03406628 13.46236837
   7.77077351  7.61142961  5.79483196
   7.67173213  7.68758799 13.48478235
   0.03763530 11.51621067  1.94713875
   0.07760184 11.50930226  9.62807964
   7.75155025 11.67221815  9.64031005
  15.35849487  3.81050721  5.80865387
   3.92575125 15.41529700  1.94291576
   3.91527069 15.42625006  9.63249458
   3.78031466  7.58118721  9.65973924
  11.61825181  7.60474818  1.93526844
  11.53721163  7.62406905  9.62477969
  11.59379329 15.41884685  5.80277470
  11.52297109 15.39950080 13.47181678
   3.80321427  3.90242034  1.94492107
   3.91056767  3.88142591  9.63446319
  11.47825857  3.97950587  1.94139293
   4.05808410 11.30929517  5.80322976
   3.88179946 11.55512419 13.50304051
  11.67490705 11.60334823  5.79471888
  11.58227178 11.61694050 13.48951721
   1.92547287  7.76895515 15.38692989
   9.65511609  7.81530059  0.01436028
   1.94495508  0.02468708  3.89957649
   9.66311903  0.01061198  3.85021923
   9.62378527  4.00558403  7.66346294
   9.64963627 11.46367595  0.00764907
   9.63334607 11.78509460  7.61908435
   1.92750500  3.86414515 11.54161828
   1.93394444 11.62616547  3.97466407
   9.65387145  3.83243433  4.01263869
   9.64635855  3.88332738 11.50909875
   9.68666629 11.69063238  3.90008002
   5.79580326  0.00633268 15.31741536
   5.75710557  7.94616493  7.57473176
  13.47643215  0.03943410  0.00502358
  13.49590505  7.76118908  7.67788228
   5.79769439 15.36936558 11.65515172
   5.75946195  7.74372754  3.94856936
  13.51246553  7.69932325  3.92617654
  13.50273376  7.81850421 11.54275477
   5.79193289  3.82872225  0.04114681
  13.49302649  3.82917383  0.06201538
  13.50474322 11.48591726 11.52332641
   7.89544892  1.89404584  7.69378084
  15.36356815  1.94587040 11.47437081
   7.67282148  1.93727428  4.02882149
   7.71973042  1.90826687 11.48835783
   7.73223283  9.64039103 11.51899779
   0.00500884  5.79172507  0.05964655
   0.03231563 13.49956060  0.02096519
  15.36082651 13.49660703  7.69352073
   7.74820255  5.77007751  0.07697689
   7.77980043 13.52096818 15.41583184
   0.08710649  5.77242254  3.82183975
   3.94112293  9.64264861  0.08695386
  11.42252746  1.93351441  7.76821911
   3.82699179  9.62847066 11.51901050
  11.60342794  1.92525999 11.49127085
   3.95106274  5.74262583  7.56323568
   3.92656019 13.50584765  7.62829961
   3.77827461  5.77948105  4.02094303
   0.01619089  0.03946075  1.95592526
   0.07458482 15.39669824  9.61885727
  15.40690704  7.83872675  1.93429613
   7.64255142  0.12952646  1.93426528
   7.67829017 15.30414775  9.61038685
   7.67844016  7.77976510  1.95771970
   7.71025435  7.66480834  9.61912662
   0.09112377  7.65783437  5.80670078
  15.39806720  7.68153293 13.46454153
   7.77108964 15.33617728  5.81969654
   7.93055122  0.06245185 13.48736193
   0.10540546  3.79449466  1.96161526
  15.40375412  3.98678218  9.58417589
   7.82472752  3.70723995  1.94773907
   7.61412668  3.86222134  9.60844172
   7.66020207 11.55007883  1.87875155
  15.37805664  3.86769000 13.48178338
  15.30716520 11.56716024  5.80098645
   0.01981035 11.58292761 13.48136698
   7.60413261  4.03076947  5.80279320
   7.73240933  3.85594500 13.48424387
   7.46487940 11.51034291  5.89108940
   7.66878912 11.56558384 13.46739939
   3.84530100  7.56101927  1.92125688
  11.57139217  0.07418430  1.94489833
  11.51106195 15.37736961  9.61182943
   3.90789049  0.06920142  5.80329414
   3.76254302 15.36694855 13.48250237
   3.80935557  8.04402750  5.77911275
   3.95570406  7.71936442 13.47628535
  11.47614630  7.80193195  5.78498925
  11.57267969  7.78280306 13.47801083
   3.84306006 11.67640444  1.94438955
   3.78221463 11.60637887  9.62683792
  11.60895754  4.01523546  9.61092695
  11.63775287 11.53589046  1.92015686
  11.50250720 11.54224557  9.63619745
   3.87674616  3.71703542  5.78180795
   3.86977906  3.83357547 13.49800188
  11.73196465  3.76729049  5.77450599
  11.58717070  3.79559857 13.50881020
   1.95033779  0.03130415  0.02162210
   1.93242372  0.03758785  7.67863980
   1.92406788  7.67221848  7.62225580
   9.65244482  0.03260821  0.10492936
   9.62635637 15.15320578  7.74417541
   9.62607247  7.55950645  7.73008491
   1.96290363  0.02015620 11.52764000
   1.92688186  7.78718471  3.82196320
   1.90997483  7.61865024 11.71580749
   9.62192726 15.35783685 11.44054192
   9.65078380  7.62512263  3.81211815
   9.66267725  7.61109643 11.58549284
   1.93107021  3.85875204 15.35707730
   1.91180832  3.83428888  7.70514172
   1.93628002 11.49763568 15.41402790
   1.92426665 11.58590439  7.58305873
   9.66185640  3.85160260 15.35291912
   1.92432261  3.69666626  3.94556848
   1.90877115 11.62216761 11.60682067
   9.66339458 11.62733675 11.59816120
   5.82353233  0.15325583  7.66162433
   5.75770888  7.64533249  0.06113778
  13.49492199  0.13630457  7.85223918
  13.49921651  7.68867517 15.38464437
   5.81115390  0.00821013  3.94983697
   5.77426908  7.67484834 11.50424329
  13.50123543  0.03380813  3.80816008
  13.49237639 15.32726199 11.44512947
   5.83552690  3.65970615  7.65772425
   5.80151115 11.68044587  0.01110310
   5.79071526 11.36550146  7.83634352
  13.48349031  3.82860400  7.77854670
  13.47392305 11.62877346 15.41981833
  13.46846930 11.43600053  7.83025136
   5.82463734  3.92461708  3.82669099
   5.79742160  3.85326166 11.61565281
   5.76778245 11.47132320  3.78416079
   5.77481364 11.64099831 11.52550327
  13.48962069  3.91851883  3.78438180
  13.48886515  3.92623651 11.53126812
  13.51697528 11.50598176  3.82686758
   0.06303948  1.96071356  0.01606395
   0.00481308  1.94074447  7.85346635
  15.34159103  9.64824409 15.34879066
   0.07227676  9.65970264  7.60398017
   7.78313800  1.93286899 15.37994549
   7.56601566  9.66941006 15.40775936
   7.88657757  9.64719666  7.73761916
  15.34403031  1.97406477  3.80580205
   0.03602670  9.61464789  3.96612782
   0.15743827  9.63238419 11.65125389
   7.80299040  9.57839171  3.93398911
   0.00484130  5.76948446  7.68361542
   7.49211105  5.73854499  7.80149671
   7.48438748 13.55062555  7.65385672
  15.37470488  5.77682046 11.58306648
  15.35061306 13.51801245  3.88114113
   0.01288697 13.51141713 11.52833215
   7.70672511  5.73211445  3.72033680
   7.66556274  5.75475283 11.50793333
   7.62080519 13.60610736  3.82453424
   7.75037604 13.50827921 11.65558196
   3.79618034  1.92406026 15.37423097
   3.80764198  1.91482599  7.70098819
   3.80039585  9.64455778  7.77743614
  11.47753829  1.94913146  0.02143249
  11.73612595  9.64857862  0.02194271
  11.42750085  9.64159421  7.73715423
   3.96526609  1.95336851  3.86936543
   3.88930729  1.91610089 11.63345785
   3.83003907  9.61681849  3.66819268
  11.68726943  1.95253889  3.83838126
  11.51509175  9.63560846  3.81909625
  11.41803645  9.63524582 11.53679201
   3.83680333  5.80137445 15.34355213
   3.78507196 13.47471671  0.00990334
  11.55073568  5.78798923 15.24819678
  11.66469415  5.74701896  7.55629099
  11.51716889 13.50276408  0.12205344
  11.77300908 13.52848900  7.78049675
   3.90204011  5.79531832 11.70109514
   3.95637212 13.49526974  3.98130854
   3.80098747 13.46700750 11.53575248
  11.58331472  5.77763327  4.06899715
  11.62967982  5.76582134 11.67876394
  11.72661725 13.52312113  3.74888679
  11.58295655 13.50546078 11.46853803
 


--------------------------------------------------------------------------------------------------------


 k-point  1 :   0.2500 0.2500 0.2500  plane waves:   93161
 k-point  2 :  -0.2500 0.2500 0.2500  plane waves:   93161
 k-point  3 :   0.2500-0.2500 0.2500  plane waves:   93161
 k-point  4 :  -0.2500-0.2500 0.2500  plane waves:   93161

 maximum and minimum number of plane-waves per node :     11686    11606

 maximum number of plane-waves:     93161
 maximum index in each direction: 
   IXMAX=   28   IYMAX=   28   IZMAX=   27
   IXMIN=  -28   IYMIN=  -28   IZMIN=  -28


 real space projection operators:
  total allocation   :     105565.69 KBytes
  max/ min on nodes  :      13237.98      13154.77


 parallel 3D FFT for wavefunctions:
    minimum data exchange during FFTs selected (reduces bandwidth)
 parallel 3D FFT for charge:
    minimum data exchange during FFTs selected (reduces bandwidth)


 total amount of memory used by VASP MPI-rank0   291485. kBytes
=======================================================================

   base      :      30000. kBytes
   nonlr-proj:      49450. kBytes
   fftplans  :      27976. kBytes
   grid      :      34041. kBytes
   one-center:       1026. kBytes
   wavefun   :     148992. kBytes
 
     INWAV:  cpu time   57.0758: real time   60.8309
 Broyden mixing: mesh for mixing (old mesh)
   NGX = 57   NGY = 57   NGZ = 57
  (NGX  =240   NGY  =240   NGZ  =240)
  gives a total of 185193 points

 charge density for first step will be calculated from the start-wavefunctions


--------------------------------------------------------------------------------------------------------


 Maximum index for non-local projection operator          969
 Maximum index for augmentation-charges         3296 (set IRDMAX)


--------------------------------------------------------------------------------------------------------


 initial charge from wavefunction
 First call to EWALD:  gamma=   0.115
 Maximum number of real-space cells 3x 3x 3
 Maximum number of reciprocal cells 3x 3x 3

    FEWALD:  cpu time    0.0381: real time    0.0381


--------------------------------------- Iteration      1(   1)  ---------------------------------------


    POTLOK:  cpu time    0.2957: real time    0.3098
    SETDIJ:  cpu time    1.4108: real time    1.4120
     EDDAV:  cpu time   87.2232: real time   87.7559
       DOS:  cpu time    0.0020: real time    0.0021
    CHARGE:  cpu time    5.2443: real time    5.2472
    MIXING:  cpu time    0.0120: real time    0.0120
    --------------------------------------------
      LOOP:  cpu time   94.1881: real time   94.7392

 eigenvalue-minimisations  : 13416
 total energy-change (2. order) :-0.1758049E+04  (-0.1054375E-06)
 number of electron    1923.0000028 magnetization       1.0000000
 augmentation part      497.0280624 magnetization       0.5793198

 Broyden mixing:
  rms(total) = 0.32022E-03    rms(broyden)= 0.27841E-03
  rms(prec ) = 0.30352E-03
  weight for this iteration     100.00
  WARNING: grid for Broyden might be to small

 Free energy of the ion-electron system (eV)
  ---------------------------------------------------
  alpha Z        PSCENC =      6118.73324990
  Ewald energy   TEWEN  =   -103154.03249893
  -Hartree energ DENC   =    -65465.96903552
  -exchange      EXHF   =         0.00000000
  -V(xc)+E(xc)   XCENC  =      8971.81949198
  PAW double counting   =    198425.11075473  -199432.15746249
  entropy T*S    EENTRO =        -0.00000000
  eigenvalues    EBANDS =    -25798.80641732
  atomic energy  EATOM  =    178577.25249613
  Solvation  Ediel_sol  =         0.00000000
  ---------------------------------------------------
  free energy    TOTEN  =     -1758.04942152 eV

  energy without entropy =    -1758.04942152  energy(sigma->0) =    -1758.04942152


--------------------------------------------------------------------------------------------------------




--------------------------------------- Iteration      1(   2)  ---------------------------------------


    POTLOK:  cpu time    0.2659: real time    0.2687
    SETDIJ:  cpu time    1.4110: real time    1.4614
     EDDAV:  cpu time   83.9633: real time   84.6678
       DOS:  cpu time    0.0019: real time    0.0019
    --------------------------------------------
      LOOP:  cpu time   85.6421: real time   86.3998

 eigenvalue-minimisations  : 12504
 total energy-change (2. order) : 0.5209586E-08  (-0.8865327E-07)
 number of electron    1923.0000028 magnetization       1.0000000
 augmentation part      497.0280624 magnetization       0.5793198

 Free energy of the ion-electron system (eV)
  ---------------------------------------------------
  alpha Z        PSCENC =      6118.73324990
  Ewald energy   TEWEN  =   -103154.03249893
  -Hartree energ DENC   =    -65465.97013238
  -exchange      EXHF   =         0.00000000
  -V(xc)+E(xc)   XCENC  =      8971.81968142
  PAW double counting   =    198425.10694779  -199432.15395465
  entropy T*S    EENTRO =        -0.00000000
  eigenvalues    EBANDS =    -25798.80521079
  atomic energy  EATOM  =    178577.25249613
  Solvation  Ediel_sol  =         0.00000000
  ---------------------------------------------------
  free energy    TOTEN  =     -1758.04942152 eV

  energy without entropy =    -1758.04942152  energy(sigma->0) =    -1758.04942152


--------------------------------------------------------------------------------------------------------




 average (electrostatic) potential at core
  the test charge radii are     0.7079  1.0397  0.7215  0.7167
  (the norm of the test charge is              1.0000)
       1 -63.1682       2 -58.4284       3 -58.7996       4 -58.7894       5 -58.8512
       6 -58.7198       7 -59.7777       8 -58.4267       9 -58.8067      10 -58.8429
      11 -58.6000      12 -58.8920      13 -58.8355      14 -58.9977      15 -58.9104
      16 -58.7807      17 -58.6175      18 -58.8255      19 -59.5221      20 -58.5864
      21 -58.8411      22 -58.5978      23 -59.4165      24 -58.7043      25 -58.7184
      26 -59.0914      27 -58.7213      28 -58.7250      29 -58.8170      30 -58.9710
      31 -58.9522      32 -56.7864      33 -58.6771      34 -58.7735      35 -58.9822
      36 -58.7081      37 -58.4517      38 -58.6678      39 -59.1092      40 -58.6603
      41 -58.9322      42 -58.8038      43 -58.9451      44 -58.7794      45 -58.7322
      46 -59.0799      47 -58.7954      48 -58.8130      49 -58.8608      50 -58.7497
      51 -58.8017      52 -58.7268      53 -58.9205      54 -58.8721      55 -59.2063
      56 -58.7479      57 -58.7566      58 -58.8017      59 -58.8221      60 -58.8050
      61 -58.7505      62 -58.9309      63 -58.8870      64 -58.5542      65 -58.8259
      66 -74.1573      67 -73.9808      68 -73.8190      69 -73.9164      70 -73.7878
      71 -73.8662      72 -73.9750      73 -74.0429      74 -74.5856      75 -73.9580
      76 -74.1031      77 -74.0842      78 -73.9565      79 -74.0086      80 -74.2314
      81 -73.9985      82 -73.9659      83 -73.9787      84 -74.3061      85 -73.9574
      86 -73.9588      87 -73.9020      88 -73.9693      89 -73.8890      90 -73.8079
      91 -73.9915      92 -74.1791      93 -74.6325      94 -74.0587      95 -74.1416
      96 -73.9870      97 -73.9501      98 -74.3337      99 -74.0733     100 -73.6666
     101 -73.8962     102 -73.8849     103 -73.8185     104 -74.0345     105 -74.2428
     106 -73.9700     107 -74.0396     108 -74.1479     109 -73.8964     110 -74.0147
     111 -74.1374     112 -74.8345     113 -74.0610     114 -74.2812     115 -74.0821
     116 -73.8998     117 -73.9177     118 -73.7579     119 -74.2300     120 -73.7931
     121 -73.8866     122 -74.3093     123 -74.0422     124 -74.4533     125 -74.0976
     126 -74.1713     127 -74.0118     128 -74.1901     129 -74.1636     130 -78.3505
     131 -78.3603     132 -79.1454     133 -79.5293     134 -79.8584     135 -78.3246
     136 -78.3370     137 -79.0108     138 -78.9419     139 -79.8403     140 -79.4967
     141 -79.1435     142 -79.1102     143 -79.4941     144 -79.6962     145 -78.7920
     146 -79.1806     147 -78.3358     148 -78.3597     149 -79.7266     150 -79.4423
     151 -78.6706     152 -78.8984     153 -79.2170     154 -78.5384     155 -78.5359
     156 -78.4528     157 -78.4476     158 -79.1385     159 -78.9529     160 -78.3823
     161 -78.4137     162 -78.4455     163 -78.4949     164 -79.3804     165 -78.3944
     166 -78.3607     167 -78.4102     168 -78.4026     169 -79.2229     170 -79.0979
     171 -78.2972     172 -79.5653     173 -78.5440     174 -78.2590     175 -79.8562
     176 -78.3772     177 -78.9518     178 -78.4776     179 -78.9559     180 -78.9956
     181 -78.4420     182 -78.9014     183 -78.3814     184 -79.4906     185 -79.0345
     186 -79.2773     187 -78.3752     188 -79.2996     189 -78.9778     190 -78.9345
     191 -79.8259     192 -78.3032     193 -79.6018     194 -78.2421     195 -78.4775
     196 -79.0825     197 -78.4779     198 -79.1022     199 -79.2099     200 -78.8882
     201 -79.0325     202 -79.4431     203 -78.8336     204 -79.0325     205 -79.0888
     206 -78.4515     207 -78.4288     208 -79.1467     209 -79.1974     210 -78.5043
     211 -78.3368     212 -78.2865     213 -79.3173     214 -78.2733     215 -79.1243
     216 -78.2670     217 -78.2819     218 -79.2138     219 -78.9992     220 -78.9965
     221 -79.1812     222 -78.8778     223 -79.4705     224 -79.2579     225 -79.2057
     226 -79.0028     227 -79.1093     228 -78.9674     229 -79.0401     230 -78.4679
     231 -78.7781     232 -78.4395     233 -79.0397     234 -78.6184     235 -78.6142
     236 -79.3488     237 -79.3102     238 -79.2053     239 -78.9850     240 -79.1544
     241 -78.9656     242 -79.5354     243 -79.3651     244 -79.1866     245 -78.8513
     246 -78.8778     247 -79.3603     248 -79.1117     249 -79.3172     250 -79.1019
     251 -78.9312     252 -79.1609     253 -79.0048     254 -79.4982     255 -79.0045
     256 -79.3995     257 -79.0066
 
 
 
 E-fermi :  -0.7067     XC(G=0):  -9.0382     alpha+bet : -7.7421


 spin component 1

 k-point     1 :       0.2500    0.2500    0.2500
  band No.  band energies     occupation 
      1     -43.8378      1.00000
      2     -35.8049      1.00000
      3     -35.7805      1.00000
      4     -35.6000      1.00000
      5     -35.5145      1.00000
      6     -35.4995      1.00000
      7     -35.4594      1.00000
      8     -35.3540      1.00000
      9     -35.3034      1.00000
     10     -35.2873      1.00000
     11     -35.2045      1.00000
     12     -35.1516      1.00000
     13     -35.1185      1.00000
     14     -35.1069      1.00000
     15     -35.0991      1.00000
     16     -35.0861      1.00000
     17     -35.0621      1.00000
     18     -35.0423      1.00000
     19     -35.0390      1.00000
     20     -35.0125      1.00000
     21     -35.0116      1.00000
     22     -35.0027      1.00000
     23     -34.9968      1.00000
     24     -34.9818      1.00000
     25     -34.9647      1.00000
     26     -34.9566      1.00000
     27     -34.9493      1.00000
     28     -34.9398      1.00000
     29     -34.9373      1.00000
     30     -34.9264      1.00000
     31     -34.9241      1.00000
     32     -34.9208      1.00000
     33     -34.9083      1.00000
     34     -34.9005      1.00000
     35     -34.8992      1.00000
     36     -34.8974      1.00000
     37     -34.8946      1.00000
     38     -34.8929      1.00000
     39     -34.8775      1.00000
     40     -34.8710      1.00000
     41     -34.8678      1.00000
     42     -34.8658      1.00000
     43     -34.8612      1.00000
     44     -34.8582      1.00000
     45     -34.8567      1.00000
     46     -34.8553      1.00000
     47     -34.8498      1.00000
     48     -34.8476      1.00000
     49     -34.8423      1.00000
     50     -34.8397      1.00000
     51     -34.8393      1.00000
     52     -34.8312      1.00000
     53     -34.8275      1.00000
     54     -34.8252      1.00000
     55     -34.8218      1.00000
     56     -34.8174      1.00000
     57     -34.8160      1.00000
     58     -34.8144      1.00000
     59     -34.8137      1.00000
     60     -34.8121      1.00000
     61     -34.8096      1.00000
     62     -34.8063      1.00000
     63     -34.8035      1.00000
     64     -34.8029      1.00000
     65     -34.8012      1.00000
     66     -34.7952      1.00000
     67     -34.7946      1.00000
     68     -34.7935      1.00000
     69     -34.7881      1.00000
     70     -34.7879      1.00000
     71     -34.7866      1.00000
     72     -34.7826      1.00000
     73     -34.7788      1.00000
     74     -34.7776      1.00000
     75     -34.7767      1.00000
     76     -34.7756      1.00000
     77     -34.7751      1.00000
     78     -34.7734      1.00000
     79     -34.7653      1.00000
     80     -34.7616      1.00000
     81     -34.7584      1.00000
     82     -34.7558      1.00000
     83     -34.7524      1.00000
     84     -34.7512      1.00000
     85     -34.7476      1.00000
     86     -34.7465      1.00000
     87     -34.7422      1.00000
     88     -34.7390      1.00000
     89     -34.7333      1.00000
     90     -34.7310      1.00000
     91     -34.7302      1.00000
     92     -34.7272      1.00000
     93     -34.7263      1.00000
     94     -34.7253      1.00000
     95     -34.7221      1.00000
     96     -34.7201      1.00000
     97     -34.7189      1.00000
     98     -34.7145      1.00000
     99     -34.7105      1.00000
    100     -34.7049      1.00000
    101     -34.7039      1.00000
    102     -34.7000      1.00000
    103     -34.6962      1.00000
    104     -34.6952      1.00000
    105     -34.6940      1.00000
    106     -34.6876      1.00000
    107     -34.6869      1.00000
    108     -34.6859      1.00000
    109     -34.6814      1.00000
    110     -34.6799      1.00000
    111     -34.6785      1.00000
    112     -34.6782      1.00000
    113     -34.6767      1.00000
    114     -34.6751      1.00000
    115     -34.6729      1.00000
    116     -34.6714      1.00000
    117     -34.6680      1.00000
    118     -34.6661      1.00000
    119     -34.6659      1.00000
    120     -34.6655      1.00000
    121     -34.6628      1.00000
    122     -34.6621      1.00000
    123     -34.6595      1.00000
    124     -34.6565      1.00000
    125     -34.6501      1.00000
    126     -34.6492      1.00000
    127     -34.6479      1.00000
    128     -34.6440      1.00000
    129     -34.6415      1.00000
    130     -34.6386      1.00000
    131     -34.6384      1.00000
    132     -34.6374      1.00000
    133     -34.6364      1.00000
    134     -34.6353      1.00000
    135     -34.6343      1.00000
    136     -34.6324      1.00000
    137     -34.6286      1.00000
    138     -34.6273      1.00000
    139     -34.6243      1.00000
    140     -34.6220      1.00000
    141     -34.6217      1.00000
    142     -34.6207      1.00000
    143     -34.6191      1.00000
    144     -34.6161      1.00000
    145     -34.6157      1.00000
    146     -34.6089      1.00000
    147     -34.6037      1.00000
    148     -34.6030      1.00000
    149     -34.6010      1.00000
    150     -34.5995      1.00000
    151     -34.5989      1.00000
    152     -34.5965      1.00000
    153     -34.5946      1.00000
    154     -34.5904      1.00000
    155     -34.5887      1.00000
    156     -34.5821      1.00000
    157     -34.5795      1.00000
    158     -34.5793      1.00000
    159     -34.5780      1.00000
    160     -34.5723      1.00000
    161     -34.5672      1.00000
    162     -34.5611      1.00000
    163     -34.5539      1.00000
    164     -34.5524      1.00000
    165     -34.5421      1.00000
[...]
   81        1.574   3.461   0.000   5.035
   82        1.574   3.461   0.000   5.036
   83        1.574   3.461   0.000   5.035
   84        1.576   3.474   0.000   5.050
   85        1.567   3.476   0.000   5.043
   86        1.575   3.467   0.000   5.042
   87        1.575   3.465   0.000   5.040
   88        1.575   3.465   0.000   5.039
   89        1.575   3.463   0.000   5.038
   90        1.575   3.459   0.000   5.034
   91        1.574   3.461   0.000   5.036
   92        1.575   3.461   0.000   5.036
   93        1.577   3.470   0.000   5.048
   94        1.577   3.474   0.000   5.050
   95        1.576   3.475   0.000   5.051
   96        1.575   3.464   0.000   5.039
   97        1.575   3.463   0.000   5.038
   98        1.576   3.477   0.000   5.053
   99        1.575   3.464   0.000   5.039
  100        1.575   3.471   0.000   5.046
  101        1.574   3.460   0.000   5.034
  102        1.568   3.471   0.000   5.039
  103        1.576   3.460   0.000   5.036
  104        1.574   3.462   0.000   5.036
  105        1.577   3.473   0.000   5.049
  106        1.573   3.464   0.000   5.037
  107        1.575   3.464   0.000   5.039
  108        1.576   3.474   0.000   5.050
  109        1.575   3.463   0.000   5.038
  110        1.575   3.462   0.000   5.037
  111        1.576   3.473   0.000   5.049
  112        1.577   3.464   0.000   5.040
  113        1.576   3.474   0.000   5.050
  114        1.577   3.477   0.000   5.054
  115        1.574   3.465   0.000   5.039
  116        1.574   3.464   0.000   5.038
  117        1.575   3.462   0.000   5.037
  118        1.576   3.463   0.000   5.038
  119        1.576   3.477   0.000   5.053
  120        1.576   3.461   0.000   5.036
  121        1.575   3.464   0.000   5.039
  122        1.577   3.470   0.000   5.047
  123        1.577   3.474   0.000   5.050
  124        1.576   3.470   0.000   5.045
  125        1.576   3.476   0.000   5.052
  126        1.576   3.471   0.000   5.047
  127        1.575   3.466   0.000   5.041
  128        1.575   3.466   0.000   5.041
  129        1.576   3.472   0.000   5.048
  130        1.737   4.369   0.000   6.106
  131        1.737   4.370   0.000   6.107
  132        1.737   4.379   0.000   6.117
  133        1.738   4.388   0.000   6.126
  134        1.739   4.385   0.000   6.123
  135        1.737   4.369   0.000   6.106
  136        1.736   4.368   0.000   6.104
  137        1.738   4.380   0.000   6.119
  138        1.738   4.381   0.000   6.119
  139        1.740   4.388   0.000   6.128
  140        1.739   4.388   0.000   6.127
  141        1.738   4.381   0.000   6.119
  142        1.738   4.380   0.000   6.118
  143        1.738   4.387   0.000   6.126
  144        1.739   4.387   0.000   6.126
  145        1.738   4.385   0.000   6.123
  146        1.737   4.382   0.000   6.119
  147        1.737   4.369   0.000   6.105
  148        1.736   4.368   0.000   6.104
  149        1.739   4.386   0.000   6.125
  150        1.738   4.388   0.000   6.127
  151        1.737   4.381   0.000   6.118
  152        1.738   4.380   0.000   6.118
  153        1.738   4.384   0.000   6.122
  154        1.737   4.372   0.000   6.109
  155        1.737   4.372   0.000   6.109
  156        1.737   4.370   0.000   6.107
  157        1.737   4.368   0.000   6.104
  158        1.737   4.384   0.000   6.121
  159        1.738   4.380   0.000   6.118
  160        1.737   4.367   0.000   6.104
  161        1.736   4.370   0.000   6.106
  162        1.736   4.368   0.000   6.104
  163        1.736   4.367   0.000   6.104
  164        1.738   4.379   0.000   6.117
  165        1.736   4.370   0.000   6.107
  166        1.736   4.368   0.000   6.104
  167        1.737   4.369   0.000   6.106
  168        1.737   4.370   0.000   6.107
  169        1.738   4.377   0.000   6.115
  170        1.738   4.379   0.000   6.117
  171        1.737   4.370   0.000   6.107
  172        1.738   4.388   0.000   6.126
  173        1.737   4.371   0.000   6.108
  174        1.737   4.369   0.000   6.106
  175        1.739   4.382   0.000   6.120
  176        1.737   4.366   0.000   6.103
  177        1.738   4.380   0.000   6.117
  178        1.737   4.370   0.000   6.107
  179        1.738   4.377   0.000   6.115
  180        1.738   4.379   0.000   6.117
  181        1.737   4.370   0.000   6.107
  182        1.738   4.379   0.000   6.116
  183        1.737   4.369   0.000   6.106
  184        1.737   4.380   0.000   6.117
  185        1.738   4.383   0.000   6.121
  186        1.738   4.382   0.000   6.119
  187        1.737   4.371   0.000   6.107
  188        1.738   4.381   0.000   6.119
  189        1.739   4.382   0.000   6.120
  190        1.738   4.381   0.000   6.119
  191        1.739   4.386   0.000   6.125
  192        1.737   4.371   0.000   6.108
  193        1.739   4.388   0.000   6.126
  194        1.737   4.368   0.000   6.105
  195        1.737   4.371   0.000   6.108
  196        1.738   4.384   0.000   6.121
  197        1.737   4.370   0.000   6.108
  198        1.737   4.380   0.000   6.117
  199        1.738   4.381   0.000   6.119
  200        1.738   4.380   0.000   6.119
  201        1.738   4.376   0.000   6.114
  202        1.738   4.379   0.000   6.117
  203        1.738   4.381   0.000   6.119
  204        1.738   4.379   0.000   6.117
  205        1.737   4.380   0.000   6.117
  206        1.737   4.369   0.000   6.105
  207        1.737   4.378   0.000   6.115
  208        1.737   4.381   0.000   6.118
  209        1.738   4.379   0.000   6.116
  210        1.737   4.370   0.000   6.107
  211        1.737   4.371   0.000   6.109
  212        1.737   4.369   0.000   6.106
  213        1.739   4.375   0.000   6.114
  214        1.736   4.367   0.000   6.104
  215        1.739   4.380   0.000   6.119
  216        1.736   4.369   0.000   6.106
  217        1.737   4.368   0.000   6.104
  218        1.737   4.379   0.000   6.116
  219        1.738   4.380   0.000   6.118
  220        1.738   4.381   0.000   6.119
  221        1.738   4.381   0.000   6.118
  222        1.737   4.384   0.000   6.122
  223        1.738   4.382   0.000   6.120
  224        1.738   4.380   0.000   6.118
  225        1.738   4.378   0.000   6.116
  226        1.738   4.379   0.000   6.117
  227        1.737   4.380   0.000   6.117
  228        1.738   4.378   0.000   6.116
  229        1.738   4.380   0.000   6.118
  230        1.737   4.370   0.000   6.106
  231        1.737   4.383   0.000   6.120
  232        1.737   4.369   0.000   6.106
  233        1.738   4.381   0.000   6.118
  234        1.737   4.374   0.000   6.112
  235        1.737   4.379   0.000   6.115
  236        1.739   4.388   0.000   6.126
  237        1.739   4.387   0.000   6.126
  238        1.737   4.380   0.000   6.117
  239        1.738   4.380   0.000   6.118
  240        1.737   4.381   0.000   6.118
  241        1.738   4.377   0.000   6.115
  242        1.738   4.387   0.000   6.126
  243        1.738   4.388   0.000   6.126
  244        1.738   4.380   0.000   6.118
  245        1.738   4.379   0.000   6.117
  246        1.738   4.379   0.000   6.117
  247        1.738   4.386   0.000   6.125
  248        1.738   4.378   0.000   6.116
  249        1.738   4.386   0.000   6.124
  250        1.738   4.378   0.000   6.116
  251        1.738   4.379   0.000   6.118
  252        1.737   4.379   0.000   6.116
  253        1.738   4.380   0.000   6.118
  254        1.739   4.387   0.000   6.126
  255        1.738   4.378   0.000   6.116
  256        1.739   4.386   0.000   6.124
  257        1.738   4.379   0.000   6.118
--------------------------------------------------
tot        345.5831195.691 112.6501653.924
 


 magnetization (x)
 
# of ion       s       p       d       tot
------------------------------------------
    1        0.000   0.000   0.000   0.000
    2       -0.000  -0.000  -0.000  -0.000
    3       -0.000  -0.000   0.000  -0.000
    4       -0.000  -0.000  -0.000  -0.000
    5       -0.000  -0.000  -0.000  -0.000
    6        0.000   0.000   0.003   0.003
    7        0.000   0.000   0.001   0.001
    8        0.000   0.000   0.000   0.000
    9        0.000   0.000   0.002   0.002
   10       -0.000  -0.000  -0.000  -0.000
   11       -0.000  -0.000  -0.000  -0.000
   12       -0.000  -0.000  -0.000  -0.000
   13       -0.000  -0.000  -0.000  -0.000
   14        0.000  -0.000   0.011   0.011
   15        0.000   0.000   0.000   0.000
   16       -0.000  -0.000   0.006   0.006
   17        0.000   0.000   0.000   0.000
   18       -0.000  -0.000  -0.000  -0.000
   19       -0.000  -0.000  -0.000  -0.000
   20       -0.000  -0.000   0.000  -0.000
   21       -0.000   0.000  -0.000  -0.000
   22        0.000   0.000   0.000   0.000
   23        0.000   0.000   0.000   0.000
   24       -0.000  -0.000   0.007   0.007
   25       -0.000  -0.000   0.006   0.006
   26       -0.000  -0.000  -0.000  -0.000
   27       -0.000  -0.000  -0.000  -0.000
   28       -0.000  -0.000  -0.000  -0.000
   29       -0.000  -0.000  -0.000  -0.000
   30       -0.000  -0.000   0.001   0.001
   31        0.000   0.000   0.000   0.000
   32        0.005   0.006   0.918   0.930
   33       -0.000  -0.000   0.000   0.000
   34       -0.000  -0.000  -0.000  -0.000
   35       -0.000  -0.000   0.000   0.000
   36       -0.000  -0.000   0.000   0.000
   37       -0.000  -0.000  -0.000  -0.000
   38       -0.000  -0.000   0.000   0.000
   39       -0.000  -0.000  -0.000  -0.000
   40       -0.000  -0.000  -0.000  -0.000
   41       -0.000  -0.000   0.000   0.000
   42       -0.000  -0.000   0.000   0.000
   43       -0.000  -0.000  -0.000  -0.000
   44       -0.000  -0.000  -0.000  -0.000
   45       -0.000  -0.000  -0.000  -0.000
   46       -0.000  -0.000  -0.000  -0.000
   47       -0.000  -0.000  -0.000  -0.000
   48        0.000   0.000  -0.000   0.000
   49       -0.000  -0.000   0.000   0.000
   50       -0.000  -0.000  -0.000  -0.000
   51       -0.000  -0.000  -0.000  -0.000
   52       -0.000  -0.000   0.000   0.000
   53       -0.000  -0.000   0.000   0.000
   54       -0.000  -0.000  -0.000  -0.000
   55       -0.000  -0.000  -0.000  -0.000
   56       -0.000  -0.000  -0.000  -0.000
   57       -0.000  -0.000  -0.000  -0.000
   58       -0.000  -0.000  -0.000  -0.000
   59       -0.000  -0.000  -0.000  -0.000
   60       -0.000  -0.000   0.000  -0.000
   61       -0.000  -0.000   0.000   0.000
   62       -0.000  -0.000  -0.000  -0.000
   63       -0.000  -0.000  -0.000  -0.000
   64       -0.000  -0.000  -0.004  -0.004
   65        0.000  -0.000   0.000   0.000
   66        0.000   0.000   0.000   0.000
   67        0.000   0.000   0.000   0.000
   68        0.000   0.000   0.000   0.000
   69       -0.000  -0.001   0.000  -0.001
   70        0.000  -0.000   0.000  -0.000
   71        0.000   0.000   0.000   0.000
   72       -0.000  -0.000   0.000  -0.000
   73       -0.000  -0.000   0.000  -0.000
   74        0.000   0.000   0.000   0.000
   75       -0.000  -0.000   0.000  -0.000
   76        0.000  -0.000   0.000  -0.000
   77       -0.000  -0.000   0.000  -0.000
   78       -0.000  -0.000   0.000  -0.000
   79       -0.000  -0.000   0.000  -0.000
   80       -0.000  -0.000   0.000  -0.000
   81       -0.000  -0.000   0.000  -0.000
   82       -0.000  -0.000   0.000  -0.000
   83        0.000   0.000   0.000   0.000
   84       -0.000  -0.000   0.000  -0.000
   85       -0.000  -0.000   0.000  -0.000
   86       -0.000  -0.000   0.000  -0.000
   87        0.000  -0.000   0.000  -0.000
   88       -0.000  -0.000   0.000  -0.000
   89       -0.000  -0.000   0.000  -0.000
   90       -0.000  -0.000   0.000  -0.000
   91       -0.000  -0.000   0.000  -0.000
   92       -0.000  -0.000   0.000  -0.001
   93       -0.000  -0.000   0.000  -0.000
   94       -0.000  -0.000   0.000  -0.000
   95       -0.000  -0.000   0.000  -0.000
   96        0.000   0.000   0.000   0.000
   97       -0.000  -0.000   0.000  -0.000
   98       -0.000  -0.000   0.000  -0.000
   99       -0.000  -0.000   0.000  -0.000
  100       -0.001  -0.016   0.000  -0.017
  101       -0.000  -0.000   0.000  -0.000
  102       -0.000  -0.000   0.000  -0.000
  103       -0.000  -0.000   0.000  -0.000
  104       -0.000  -0.000   0.000  -0.000
  105       -0.000  -0.000   0.000  -0.000
  106       -0.000  -0.000   0.000  -0.000
  107       -0.000  -0.000   0.000  -0.000
  108        0.000   0.000   0.000   0.000
  109       -0.000  -0.000   0.000  -0.000
  110        0.000   0.000   0.000   0.000
  111       -0.000  -0.000   0.000  -0.000
  112       -0.000  -0.000   0.000  -0.000
  113        0.000   0.000   0.000   0.000
  114       -0.000  -0.001   0.000  -0.001
  115       -0.000  -0.000   0.000  -0.000
  116       -0.000  -0.000   0.000  -0.000
  117        0.000   0.000   0.000   0.000
  118        0.000  -0.000   0.000  -0.000
  119        0.000   0.000   0.000   0.000
  120        0.000  -0.000   0.000  -0.000
  121       -0.000  -0.001   0.000  -0.001
  122        0.000  -0.000   0.000  -0.000
  123       -0.000  -0.000   0.000  -0.000
  124        0.000   0.000   0.000   0.000
  125       -0.000  -0.000   0.000  -0.000
  126        0.000   0.000   0.000   0.000
  127        0.000  -0.000   0.000  -0.000
  128       -0.000  -0.000   0.000  -0.000
  129       -0.000  -0.000   0.000  -0.000
  130        0.000   0.000   0.000   0.000
  131        0.000   0.000   0.000   0.000
  132        0.000   0.000   0.000   0.000
  133        0.000  -0.000   0.000  -0.000
  134        0.000   0.000   0.000   0.000
  135        0.000   0.000   0.000   0.000
  136       -0.000  -0.000   0.000  -0.000
  137       -0.000  -0.000   0.000  -0.000
  138        0.000   0.000   0.000   0.000
  139        0.000   0.000   0.000   0.000
  140       -0.000   0.000   0.000   0.000
  141        0.000   0.000   0.000   0.000
  142        0.000   0.000   0.000   0.000
  143       -0.000  -0.000   0.000  -0.000
  144       -0.000  -0.000   0.000  -0.000
  145       -0.000   0.002   0.000   0.001
  146       -0.000   0.000   0.000   0.000
  147       -0.000  -0.000   0.000  -0.000
  148       -0.000  -0.000   0.000  -0.000
  149       -0.000  -0.000   0.000  -0.000
  150        0.000  -0.000   0.000  -0.000
  151       -0.000   0.002   0.000   0.002
  152       -0.000  -0.000   0.000  -0.000
  153       -0.000  -0.000   0.000  -0.000
  154       -0.000  -0.000   0.000  -0.000
  155       -0.000  -0.000   0.000  -0.000
  156       -0.000  -0.000   0.000  -0.000
  157       -0.000  -0.000   0.000  -0.000
  158       -0.000  -0.000   0.000  -0.000
  159        0.000   0.000   0.000   0.000
  160       -0.000  -0.000   0.000  -0.000
  161       -0.000  -0.000   0.000  -0.000
  162       -0.000  -0.000   0.000  -0.000
  163       -0.000  -0.000   0.000  -0.000
  164       -0.000  -0.000   0.000  -0.000
  165       -0.000  -0.000   0.000  -0.000
  166        0.000  -0.000   0.000  -0.000
  167       -0.000  -0.000   0.000  -0.000
  168        0.000   0.000   0.000   0.000
  169       -0.000  -0.000   0.000  -0.000
  170        0.000   0.000   0.000   0.000
  171       -0.000  -0.000   0.000  -0.000
  172        0.000   0.000   0.000   0.000
  173       -0.000  -0.000   0.000  -0.000
  174       -0.000  -0.000   0.000  -0.000
  175       -0.000  -0.000   0.000  -0.000
  176       -0.000  -0.000   0.000  -0.000
  177       -0.000   0.000   0.000   0.000
  178       -0.000  -0.000   0.000  -0.000
  179        0.000   0.000   0.000   0.000
  180       -0.000  -0.000   0.000  -0.000
  181       -0.000  -0.000   0.000  -0.000
  182       -0.000  -0.000   0.000  -0.000
  183        0.000   0.000   0.000   0.000
  184        0.000   0.000   0.000   0.000
  185       -0.000  -0.000   0.000  -0.000
  186       -0.000  -0.000   0.000  -0.000
  187       -0.000  -0.000   0.000  -0.000
  188       -0.000  -0.000   0.000  -0.000
  189       -0.000  -0.000   0.000  -0.000
  190       -0.000  -0.000   0.000  -0.000
  191       -0.000  -0.000   0.000  -0.000
  192       -0.000  -0.000   0.000  -0.000
  193        0.000  -0.000   0.000  -0.000
  194        0.000  -0.000   0.000  -0.000
  195       -0.000  -0.000   0.000  -0.000
  196       -0.000  -0.000   0.000  -0.000
  197       -0.000  -0.000   0.000  -0.000
  198        0.000   0.000   0.000   0.000
  199       -0.000  -0.000   0.000  -0.000
  200       -0.000  -0.000   0.000  -0.000
  201       -0.000  -0.000   0.000  -0.000
  202       -0.000  -0.000   0.000  -0.000
  203       -0.000  -0.000   0.000  -0.000
  204       -0.000  -0.000   0.000  -0.000
  205       -0.000  -0.000   0.000  -0.000
  206       -0.000  -0.000   0.000  -0.000
  207       -0.000  -0.006   0.000  -0.006
  208       -0.000  -0.000   0.000  -0.000
  209       -0.000  -0.000   0.000  -0.000
  210        0.000   0.000   0.000   0.000
  211       -0.000  -0.000   0.000  -0.000
  212        0.000   0.000   0.000   0.000
  213        0.000   0.000   0.000   0.000
  214       -0.000   0.000   0.000   0.000
  215        0.000   0.000   0.000   0.000
  216       -0.000  -0.000   0.000  -0.000
  217        0.000   0.000   0.000   0.000
  218        0.000  -0.000   0.000  -0.000
  219       -0.000  -0.000   0.000  -0.000
  220        0.000  -0.000   0.000   0.000
  221        0.000   0.000   0.000   0.000
  222       -0.000   0.002   0.000   0.001
  223        0.000   0.000   0.000   0.000
  224       -0.000   0.000   0.000   0.000
  225        0.000   0.000   0.000   0.000
  226        0.000   0.000   0.000   0.000
  227        0.000   0.000   0.000   0.000
  228        0.000   0.000   0.000   0.000
  229       -0.000  -0.000   0.000  -0.000
  230        0.000   0.000   0.000   0.000
  231       -0.000   0.001   0.000   0.000
  232       -0.000  -0.000   0.000  -0.000
  233       -0.000  -0.000   0.000  -0.000
  234       -0.000  -0.000   0.000  -0.000
  235       -0.000  -0.000   0.000  -0.000
  236       -0.000  -0.000   0.000  -0.000
  237       -0.000  -0.000   0.000  -0.000
  238        0.000   0.000   0.000   0.000
  239       -0.000  -0.000   0.000  -0.000
  240        0.000   0.000   0.000   0.000
  241       -0.000  -0.000   0.000  -0.000
  242        0.000  -0.000   0.000  -0.000
  243        0.000  -0.000   0.000  -0.000
  244       -0.000   0.000   0.000   0.000
  245       -0.000  -0.000   0.000  -0.000
  246       -0.000  -0.000   0.000  -0.000
  247       -0.000  -0.000   0.000  -0.000
  248        0.000  -0.000   0.000  -0.000
  249       -0.000  -0.000   0.000  -0.000
  250       -0.000   0.000   0.000   0.000
  251        0.000   0.000   0.000   0.000
  252       -0.000  -0.000   0.000  -0.000
  253       -0.000  -0.000   0.000  -0.000
  254       -0.000  -0.000   0.000  -0.000
  255       -0.000   0.000   0.000   0.000
  256        0.000  -0.000   0.000  -0.000
  257        0.000   0.000   0.000   0.000
--------------------------------------------------
tot          0.002  -0.017   0.952   0.937
 

 total amount of memory used by VASP MPI-rank0   291485. kBytes
=======================================================================

   base      :      30000. kBytes
   nonlr-proj:      49450. kBytes
   fftplans  :      27976. kBytes
   grid      :      34041. kBytes
   one-center:       1026. kBytes
   wavefun   :     148992. kBytes
 
  
  
 General timing and accounting informations for this job:
 ========================================================
  
                  Total CPU time used (sec):      801.226
                            User time (sec):      468.262
                          System time (sec):      332.964
                         Elapsed time (sec):      828.778
  
                   Maximum memory used (kb):      623496.
                   Average memory used (kb):           0.
  
                          Minor page faults:        73166
                          Major page faults:            0
                 Voluntary context switches:        15574
