       N       E                     dE             d eps       ncg     rms          rms(c)
DAV:   1    -0.213256437727E+03   -0.21326E+03   -0.64229E-03 20736   0.527E-01    0.443E-03
DAV:   2    -0.213256437401E+03    0.32611E-06   -0.22777E-06 18512   0.119E-02
   1 F= -.21325644E+03 E0= -.21325644E+03  d E =-.213256E+03  mag=    -0.0000
