LTO                                     
           1
     7.820995   -0.000810    0.001314
    -0.000801    7.717865    0.004283
     0.001359    0.004327    7.669595
   Ti   O    F 
   8   8  16
Direct configuration=     1
   0.00002978  0.98315902  0.99454451
   0.00084416  0.00137371  0.51897702
   0.00085033  0.50846544  0.01528111
   0.98076376  0.50006413  0.49000310
   0.50010657  0.01536853  0.01306403
   0.50011598  0.98389754  0.48753534
   0.50009708  0.48867623  0.98429174
   0.50699984  0.50933334  0.50949391
   0.75254766  0.49921167  0.49971831
   0.99999262  0.75144395  0.99997537
   0.50047915  0.24985994  0.99943707
   0.49910304  0.75189311  0.50021371
   0.99966747  0.00196786  0.74820213
   0.00134609  0.49841497  0.24881524
   0.50041509  0.99985235  0.24959812
   0.49859496  0.50031782  0.75061860
   0.24806996  0.00084624  0.99983502
   0.24652430  0.00324288  0.49894873
   0.24901347  0.50033789  0.99879518
   0.24662256  0.49802820  0.50003777
   0.75210077  0.00078752  0.99988568
   0.75470725  0.00368835  0.49867988
   0.75183657  0.50025091  0.99853736
   0.99995190  0.24807590  0.99922446
   0.00486094  0.24765060  0.49773798
   0.00491220  0.75387856  0.49793826
   0.49786312  0.24690768  0.50081158
   0.50049288  0.75152178  0.99904114
   0.99970924  0.00430622  0.25330646
   0.00422970  0.49617667  0.75033249
   0.50052626  0.99994195  0.74994341
   0.49662533  0.50105902  0.24717529
