 vasp.5.4.4.18Apr17-6-g9f103f2a35 (build Jul 16 2019 12:12:28) complex          
  
 executed on             LinuxIFC date 2020.01.06  11:58:46
 running on   96 total cores
 distrk:  each k-point on   96 cores,    1 groups
 distr:  one band on NCORES_PER_BAND=   8 cores,   12 groups


--------------------------------------------------------------------------------------------------------


 INCAR:
 POTCAR:    PAW_PBE Li_sv 10Sep2004               
 POTCAR:    PAW_PBE Ti_pv 07Sep2000               
 POTCAR:    PAW_PBE O 08Apr2002                   
 POTCAR:    PAW_PBE F 08Apr2002                   
 POTCAR:    PAW_PBE Li_sv 10Sep2004               
   VRHFIN =Li: 1s2s2p                                                           
   LEXCH  = PE                                                                  
   EATOM  =   202.7858 eV,   14.9043 Ry                                         
                                                                                
   TITEL  = PAW_PBE Li_sv 10Sep2004                                             
   LULTRA =        F    use ultrasoft PP ?                                      
   IUNSCR =        0    unscreen: 0-lin 1-nonlin 2-no                           
   RPACOR =    0.000    partial core radius                                     
   POMASS =    7.010; ZVAL   =    3.000    mass and valenz                      
   RCORE  =    1.700    outmost cutoff radius                                   
   RWIGS  =    2.050; RWIGS  =    1.085    wigner-seitz radius (au A)           
   ENMAX  =  499.034; ENMIN  =  374.276 eV                                      
   ICORE  =        2    local potential                                         
   LCOR   =        T    correct aug charges                                     
   LPAW   =        T    paw PP                                                  
   EAUG   =  628.945                                                            
   RMAX   =    1.732    core radius for proj-oper                               
   RAUG   =    1.300    factor for augmentation sphere                          
   RDEP   =    1.728    radius for radial grids                                 
   RDEPT  =    1.329    core radius for aug-charge                              
                                                                                
   Atomic configuration                                                         
    4 entries                                                                   
     n  l   j            E        occ.                                          
     1  0  0.50       -51.8549   2.0000                                         
     2  0  0.50        -2.8742   1.0000                                         
     2  1  0.50        -1.3606   0.0000                                         
     3  2  1.50        -1.3606   0.0000                                         
   Description                                                                  
     l       E           TYP  RCUT    TYP  RCUT                                 
     0    -51.8548813     23  1.400                                             
     0     -2.8742052     23  1.700                                             
     1     -1.3605826     23  1.400                                             
     2     -1.3605826     23  1.400                                             
  local pseudopotential read in
  atomic valenz-charges read in
  non local Contribution for L=           0  read in
    real space projection operators read in
  non local Contribution for L=           0  read in
    real space projection operators read in
  non local Contribution for L=           1  read in
    real space projection operators read in
    PAW grid and wavefunctions read in
 
   number of l-projection  operators is LMAX  =           3
   number of lm-projection operators is LMMAX =           5
 
 POTCAR:    PAW_PBE Ti_pv 07Sep2000               
   VRHFIN =Ti: d3 s1                                                            
   LEXCH  = PE                                                                  
   EATOM  =  1042.5995 eV,   76.6289 Ry                                         
                                                                                
   TITEL  = PAW_PBE Ti_pv 07Sep2000                                             
   LULTRA =        F    use ultrasoft PP ?                                      
   IUNSCR =        1    unscreen: 0-lin 1-nonlin 2-no                           
   RPACOR =    2.200    partial core radius                                     
   POMASS =   47.880; ZVAL   =   10.000    mass and valenz                      
   RCORE  =    2.500    outmost cutoff radius                                   
   RWIGS  =    2.500; RWIGS  =    1.323    wigner-seitz radius (au A)           
   ENMAX  =  222.335; ENMIN  =  166.751 eV                                      
   RCLOC  =    1.701    cutoff for local pot                                    
   LCOR   =        T    correct aug charges                                     
   LPAW   =        T    paw PP                                                  
   EAUG   =  482.848                                                            
   DEXC   =    0.000                                                            
   RMAX   =    2.564    core radius for proj-oper                               
   RAUG   =    1.300    factor for augmentation sphere                          
   RDEP   =    2.538    radius for radial grids                                 
   RDEPT  =    1.952    core radius for aug-charge                              
                                                                                
   Atomic configuration                                                         
    8 entries                                                                   
     n  l   j            E        occ.                                          
     1  0  0.50     -4865.3608   2.0000                                         
     2  0  0.50      -533.1368   2.0000                                         
     2  1  1.50      -440.5031   6.0000                                         
     3  0  0.50       -59.3186   2.0000                                         
     3  1  1.50       -35.7012   6.0000                                         
     3  2  2.50        -1.9157   3.0000                                         
     4  0  0.50        -3.7291   1.0000                                         
     4  3  2.50        -1.3606   0.0000                                         
   Description                                                                  
     l       E           TYP  RCUT    TYP  RCUT                                 
     1    -35.7012140     23  2.300                                             
     1     -1.3605826     23  2.300                                             
     2     -1.9156996     23  2.500                                             
     2     -0.4063033     23  2.500                                             
     0     -3.7290856     23  2.500                                             
     0     20.4087390     23  2.500                                             
  local pseudopotential read in
  partial core-charges read in
  partial kinetic energy density read in
  atomic valenz-charges read in
  non local Contribution for L=           1  read in
    real space projection operators read in
  non local Contribution for L=           1  read in
    real space projection operators read in
  non local Contribution for L=           2  read in
    real space projection operators read in
  non local Contribution for L=           2  read in
    real space projection operators read in
  non local Contribution for L=           0  read in
    real space projection operators read in
  non local Contribution for L=           0  read in
    real space projection operators read in
    PAW grid and wavefunctions read in
 
   number of l-projection  operators is LMAX  =           6
   number of lm-projection operators is LMMAX =          18
 
 POTCAR:    PAW_PBE O 08Apr2002                   
   VRHFIN =O: s2p4                                                              
   LEXCH  = PE                                                                  
   EATOM  =   432.3788 eV,   31.7789 Ry                                         
                                                                                
   TITEL  = PAW_PBE O 08Apr2002                                                 
   LULTRA =        F    use ultrasoft PP ?                                      
   IUNSCR =        1    unscreen: 0-lin 1-nonlin 2-no                           
   RPACOR =    1.200    partial core radius                                     
   POMASS =   16.000; ZVAL   =    6.000    mass and valenz                      
   RCORE  =    1.520    outmost cutoff radius                                   
   RWIGS  =    1.550; RWIGS  =    0.820    wigner-seitz radius (au A)           
   ENMAX  =  400.000; ENMIN  =  300.000 eV                                      
   ICORE  =        2    local potential                                         
   LCOR   =        T    correct aug charges                                     
   LPAW   =        T    paw PP                                                  
   EAUG   =  605.392                                                            
   DEXC   =    0.000                                                            
   RMAX   =    1.553    core radius for proj-oper                               
   RAUG   =    1.300    factor for augmentation sphere                          
   RDEP   =    1.550    radius for radial grids                                 
   RDEPT  =    1.329    core radius for aug-charge                              
                                                                                
   Atomic configuration                                                         
    4 entries                                                                   
     n  l   j            E        occ.                                          
     1  0  0.50      -514.6923   2.0000                                         
     2  0  0.50       -23.9615   2.0000                                         
     2  1  0.50        -9.0305   4.0000                                         
     3  2  1.50        -9.5241   0.0000                                         
   Description                                                                  
     l       E           TYP  RCUT    TYP  RCUT                                 
     0    -23.9615318     23  1.200                                             
     0     -9.5240782     23  1.200                                             
     1     -9.0304911     23  1.520                                             
     1      8.1634956     23  1.520                                             
     2     -9.5240782      7  1.500                                             
  local pseudopotential read in
  partial core-charges read in
  partial kinetic energy density read in
  kinetic energy density of atom read in
  atomic valenz-charges read in
  non local Contribution for L=           0  read in
    real space projection operators read in
  non local Contribution for L=           0  read in
    real space projection operators read in
  non local Contribution for L=           1  read in
    real space projection operators read in
  non local Contribution for L=           1  read in
    real space projection operators read in
    PAW grid and wavefunctions read in
 
   number of l-projection  operators is LMAX  =           4
   number of lm-projection operators is LMMAX =           8
 
 POTCAR:    PAW_PBE F 08Apr2002                   
   VRHFIN =F: s2p5                                                              
   LEXCH  = PE                                                                  
   EATOM  =   659.6475 eV,   48.4827 Ry                                         
                                                                                
   TITEL  = PAW_PBE F 08Apr2002                                                 
   LULTRA =        F    use ultrasoft PP ?                                      
   IUNSCR =        1    unscreen: 0-lin 1-nonlin 2-no                           
   RPACOR =    1.200    partial core radius                                     
   POMASS =   18.998; ZVAL   =    7.000    mass and valenz                      
   RCORE  =    1.520    outmost cutoff radius                                   
   RWIGS  =    1.500; RWIGS  =    0.794    wigner-seitz radius (au A)           
   ENMAX  =  400.000; ENMIN  =  300.000 eV                                      
   ICORE  =        2    local potential                                         
   LCOR   =        T    correct aug charges                                     
   LPAW   =        T    paw PP                                                  
   EAUG   =  613.614                                                            
   RMAX   =    1.555    core radius for proj-oper                               
   RAUG   =    1.300    factor for augmentation sphere                          
   RDEP   =    1.539    radius for radial grids                                 
   RDEPT  =    1.299    core radius for aug-charge                              
                                                                                
   Atomic configuration                                                         
    4 entries                                                                   
     n  l   j            E        occ.                                          
     1  0  0.50      -663.3661   2.0000                                         
     2  0  0.50       -29.8995   2.0000                                         
     2  1  0.50       -11.1114   5.0000                                         
     3  2  1.50       -10.8847   0.0000                                         
   Description                                                                  
     l       E           TYP  RCUT    TYP  RCUT                                 
     0    -29.8995018     23  1.200                                             
     0     -9.5240782     23  1.200                                             
     1    -11.1113914     23  1.520                                             
     1      1.3605826     23  1.520                                             
     2    -10.8846608      7  1.500                                             
  local pseudopotential read in
  partial core-charges read in
  partial kinetic energy density read in
  atomic valenz-charges read in
  non local Contribution for L=           0  read in
    real space projection operators read in
  non local Contribution for L=           0  read in
    real space projection operators read in
  non local Contribution for L=           1  read in
    real space projection operators read in
  non local Contribution for L=           1  read in
    real space projection operators read in
    PAW grid and wavefunctions read in
 
   number of l-projection  operators is LMAX  =           4
   number of lm-projection operators is LMMAX =           8
 
 Optimization of the real space projectors (new method)

 maximal supplied QI-value         = 22.11
 optimisation between [QCUT,QGAM] = [ 11.28, 22.77] = [ 35.61,145.23] Ry 
 Optimized for a Real-space Cutoff    1.31 Angstroem

   l    n(q)    QCUT    max X(q) W(low)/X(q) W(high)/X(q)  e(spline) 
   0      9    11.276    10.506    0.19E-04    0.17E-04    0.32E-07
   0      9    11.276     8.367    0.38E-04    0.40E-04    0.65E-07
   1      8    11.276     8.983    0.55E-04    0.98E-04    0.20E-06
 Optimization of the real space projectors (new method)

 maximal supplied QI-value         = 15.12
 optimisation between [QCUT,QGAM] = [ 11.34, 22.83] = [ 36.00,145.93] Ry 
 Optimized for a Real-space Cutoff    1.56 Angstroem

   l    n(q)    QCUT    max X(q) W(low)/X(q) W(high)/X(q)  e(spline) 
   1     10    11.338     4.216    0.27E-04    0.12E-04    0.66E-07
   1     10    11.338     5.422    0.81E-04    0.24E-04    0.19E-06
   2     10    11.338    72.084    0.64E-04    0.21E-03    0.51E-06
   2     10    11.338    65.965    0.63E-04    0.21E-03    0.50E-06
   0     11    11.338    41.531    0.33E-04    0.54E-04    0.13E-06
   0     11    11.338    16.290    0.26E-04    0.41E-04    0.11E-06
 Optimization of the real space projectors (new method)

 maximal supplied QI-value         = 24.76
 optimisation between [QCUT,QGAM] = [ 11.39, 22.77] = [ 36.31,145.25] Ry 
 Optimized for a Real-space Cutoff    1.20 Angstroem

   l    n(q)    QCUT    max X(q) W(low)/X(q) W(high)/X(q)  e(spline) 
   0      8    11.387    20.381    0.89E-04    0.31E-03    0.27E-06
   0      8    11.387    15.268    0.93E-04    0.32E-03    0.29E-06
   1      8    11.387     5.964    0.53E-04    0.28E-03    0.29E-06
   1      8    11.387     5.382    0.37E-04    0.22E-03    0.26E-06
 Optimization of the real space projectors (new method)

 maximal supplied QI-value         = 24.76
 optimisation between [QCUT,QGAM] = [ 11.39, 22.77] = [ 36.31,145.25] Ry 
 Optimized for a Real-space Cutoff    1.20 Angstroem

   l    n(q)    QCUT    max X(q) W(low)/X(q) W(high)/X(q)  e(spline) 
   0      8    11.387    14.049    0.69E-04    0.23E-03    0.18E-06
   0      8    11.387     8.945    0.88E-04    0.30E-03    0.26E-06
   1      8    11.387     7.086    0.62E-04    0.27E-03    0.27E-06
   1      8    11.387     6.747    0.46E-04    0.23E-03    0.25E-06

 ----------------------------------------------------------------------------- 
|                                                                             |
|  ADVICE TO THIS USER RUNNING 'VASP/VAMP'   (HEAR YOUR MASTER'S VOICE ...):  |
|                                                                             |
|      You enforced a specific xc-type in the INCAR file,                     |
|      a different type was found on the POTCAR file                          |
|          I HOPE YOU KNOW, WHAT YOU ARE  DOING                               |
|                                                                             |
 ----------------------------------------------------------------------------- 

  PAW_PBE Li_sv 10Sep2004               :
 energy of atom  1       EATOM= -202.7858
 kinetic energy error for atom=    0.0143 (will be added to EATOM!!)
  PAW_PBE Ti_pv 07Sep2000               :
 energy of atom  2       EATOM=-1042.5995
 kinetic energy error for atom=    0.0024 (will be added to EATOM!!)
  PAW_PBE O 08Apr2002                   :
 energy of atom  3       EATOM= -432.3788
 kinetic energy error for atom=    0.0224 (will be added to EATOM!!)
  PAW_PBE F 08Apr2002                   :
 energy of atom  4       EATOM= -659.6475
 kinetic energy error for atom=    0.0354 (will be added to EATOM!!)
 
 
 POSCAR: config 35                               
  positions in direct lattice
  velocities in cartesian coordinates
 exchange correlation table for  LEXCH =       14
   RHO(1)=    0.500       N(1)  =     2000
   RHO(2)=  100.500       N(2)  =     4000

 VTST: version 3.2, (02/03/18)

 CHAIN: initializing optimizer
 
 OPT: Using VASP QUASI-newton optimizer
 CHAIN: Read ICHAIN            0
 
 POSCAR: config 35                               
  positions in direct lattice
  velocities in cartesian coordinates
 


--------------------------------------------------------------------------------------------------------


 ion  position               nearest neighbor table
   1  0.623  0.126  0.656- 115 2.05 126 2.10  99 2.27
   2  0.996  0.995  0.994- 118 1.86  68 1.88 103 1.91 171 2.01 130 2.04 212 2.04
   3  0.998  0.992  0.494- 119 1.82  67 1.82 172 1.95 193 1.97 131 2.01 213 2.10
   4  0.006  0.496  0.997-  89 1.84 117 1.86 138 1.93 132 1.98 214 2.01 194 2.03
   5  0.994  0.504  0.507-  66 1.83 104 1.84 215 1.93 223 2.01 173 2.02 137 2.03
   6  0.495  0.994  0.998- 101 1.83 121 1.85 133 1.97 140 1.98 216 2.02 174 2.03
   7  0.501  0.006  0.503- 112 1.94 139 2.00 191 2.00 134 2.02 175 2.03 225 2.04
   8  0.504  0.496  0.995-  70 1.88 120 1.88  90 1.89 192 2.03 135 2.04 217 2.05
   9  0.492  0.498  0.496- 102 1.82  69 1.86 224 1.97 136 2.02 218 2.02 176 2.08
  10  0.007  0.003  0.256-  91 1.83  67 1.86 219 1.95 227 1.97 130 2.01 197 2.06
  11  0.003  0.008  0.757-  68 1.79 113 1.84 177 1.94 198 1.99 228 2.05 131 2.05
  12  0.994  0.493  0.251- 107 1.83 122 1.86 137 1.93 132 1.97 220 2.01 178 2.03
  13  0.992  0.499  0.741-  66 1.82 108 1.82 226 1.94 221 1.97 138 2.02 179 2.06
  14  0.506  0.008  0.249- 114 1.82  92 1.85 139 1.92 133 1.95 195 2.01 231 2.05
  15  0.490  0.004  0.751- 105 1.78 115 1.91 134 1.93 140 1.95 232 1.99 180 2.09
  16  0.493  0.497  0.258-  69 1.82 106 1.84 229 1.96 222 2.00 135 2.03 181 2.05
  17  0.501  0.506  0.757-  70 1.80 116 1.88 182 1.95 196 1.97 136 2.06 230 2.07
  18  0.995  0.258  0.001- 117 1.82 110 1.88 141 1.96 146 1.97 183 2.01 212 2.02
  19  0.999  0.248  0.492-  74 1.78 213 1.92 184 1.94 202 1.94 223 1.95 142 2.02
  20  0.998  0.758  0.006- 118 1.81  71 1.85 203 1.95 185 1.98 148 2.05 214 2.06
  21  0.997  0.757  0.506- 119 1.83  72 1.84 204 1.95 186 1.98 147 2.02 215 2.04
  22  0.495  0.258  0.998- 120 1.80 109 1.84 143 1.97 150 1.99 187 2.03 216 2.07
  23  0.509  0.241  0.504- 112 1.82  93 1.85 149 1.95 144 1.95 199 2.02 224 2.05
  24  0.508  0.756  0.998-  94 1.83 121 1.84 152 1.94 145 1.99 217 2.02 200 2.02
  25  0.507  0.754  0.509-  73 1.80  95 1.84 225 1.97 218 1.97 201 2.03 151 2.07
  26  0.001  0.258  0.255- 122 1.80  74 1.88 209 1.95 188 1.96 141 1.99 219 2.03
  27  0.007  0.243  0.746- 113 1.81  96 1.83 142 1.96 146 1.97 226 2.04 210 2.08
  28  0.007  0.748  0.243-  71 1.82  97 1.83 220 1.95 227 1.98 147 2.05 211 2.06
  29  0.993  0.750  0.743- 111 1.83  72 1.84 228 1.94 221 1.98 148 2.02 189 2.03
  30  0.508  0.241  0.250- 114 1.81  98 1.82 143 1.94 149 1.97 229 2.02 205 2.03
  31  0.505  0.243  0.748- 115 1.87  99 1.87 150 1.93 144 1.96 206 1.99 230 2.01
  32  0.507  0.751  0.252- 100 1.79 151 1.93 231 1.93 222 1.94 145 1.95 207 2.00
  33  0.502  0.743  0.742- 116 1.81  73 1.84 190 1.94 208 1.96 152 2.03 232 2.10
  34  0.257  0.998  0.005-  75 1.84 101 1.86 246 1.93 233 1.97 171 2.02 157 2.04
  35  0.252  0.994  0.506- 128 1.84  76 1.86 191 1.93 172 1.97 156 2.02 234 2.04
  36  0.244  0.508  0.998- 123 1.82  89 1.85 159 1.94 153 1.98 192 2.02 245 2.04
  37  0.255  0.494  0.507-  77 1.86 102 1.87 127 1.89 158 2.05 173 2.05 235 2.06
  38  0.757  0.001  0.995- 103 1.78  81 1.90 249 1.96 236 1.96 154 2.02 174 2.05
  39  0.749  0.009  0.495-  80 1.84 124 1.86 175 1.93 193 1.96 155 2.01 250 2.07
  40  0.742  0.500  0.005-  90 1.80  78 1.88 237 1.96 247 1.97 161 2.04 194 2.05
  41  0.756  0.498  0.505-  79 1.85 104 1.86 248 1.97 238 2.00 176 2.02 160 2.03
  42  0.245  0.003  0.243-  75 1.84  91 1.85 239 1.94 252 1.97 156 2.04 195 2.05
  43  0.257  0.999  0.744-  76 1.82 105 1.86 253 1.93 240 1.97 177 2.01 157 2.03
  44  0.255  0.492  0.252- 129 1.83 106 1.83 158 1.94 153 1.97 241 2.04 178 2.04
  45  0.246  0.506  0.741-  77 1.79 125 1.84 179 1.95 196 1.99 251 2.03 159 2.06
  46  0.745  0.002  0.256-  92 1.84  80 1.86 256 1.95 242 1.97 197 2.00 154 2.02
  47  0.748  0.006  0.756-  81 1.80 126 1.88 198 1.94 180 1.97 257 2.02 155 2.07
  48  0.755  0.497  0.242-  78 1.82 107 1.86 243 1.96 254 1.97 181 2.01 160 2.06
  49  0.757  0.498  0.742- 108 1.83  79 1.83 255 1.96 244 1.98 182 2.03 161 2.05
  50  0.258  0.252  0.005- 109 1.83  82 1.86 245 1.93 233 1.97 168 2.02 183 2.05
  51  0.255  0.256  0.505- 127 1.81  83 1.86 199 1.97 167 2.03 184 2.03 234 2.06
  52  0.252  0.742  0.994- 123 1.82  86 1.84 200 1.94 185 1.97 162 2.03 246 2.04
  53  0.253  0.756  0.494-  85 1.83 128 1.86 201 1.96 186 1.99 235 2.02 163 2.04
  54  0.757  0.252  0.007- 110 1.81  84 1.85 236 1.95 247 1.95 187 2.02 170 2.09
  55  0.741  0.243  0.499-  93 1.82 124 1.85 169 1.94 164 1.98 248 2.04 202 2.07
  56  0.742  0.748  0.994-  94 1.82  88 1.84 237 1.95 249 1.96 203 2.02 165 2.04
  57  0.742  0.753  0.494-  95 1.82  87 1.86 250 1.96 238 1.98 166 2.02 204 2.05
  58  0.252  0.258  0.244- 129 1.82  82 1.83 205 1.96 188 2.00 167 2.04 239 2.04
  59  0.244  0.252  0.743-  83 1.83  96 1.84 251 1.94 240 1.98 168 2.03 206 2.08
  60  0.244  0.748  0.256-  97 1.83  85 1.84 241 1.94 252 1.98 162 2.03 207 2.06
  61  0.247  0.742  0.757- 125 1.81  86 1.84 189 1.94 208 1.98 163 2.03 253 2.05
  62  0.743  0.251  0.241-  84 1.81  98 1.82 254 1.95 242 1.95 209 2.04 169 2.09
  63  0.743  0.243  0.749- 126 1.85  99 1.86 170 1.93 210 1.99 164 2.00 255 2.03
  64  0.746  0.749  0.257-  87 1.81 100 1.89 243 1.95 256 1.96 211 1.98 165 2.03
  65  0.758  0.749  0.757- 111 1.82  88 1.83 257 1.96 244 1.97 190 2.03 166 2.05
  66  0.010  0.502  0.625-  13 1.82   5 1.83
  67  0.998  0.005  0.376-   3 1.82  10 1.86
  68  0.003  0.002  0.873-  11 1.79   2 1.88
  69  0.498  0.506  0.376-  16 1.82   9 1.86
  70  0.492  0.509  0.874-  17 1.80   8 1.88
  71  0.999  0.745  0.125-  28 1.82  20 1.85
  72  0.003  0.746  0.624-  21 1.84  29 1.84
  73  0.502  0.766  0.625-  25 1.80  33 1.84
  74  0.003  0.247  0.377-  19 1.78  26 1.88
  75  0.258  0.003  0.125-  42 1.84  34 1.84
  76  0.258  0.004  0.626-  43 1.82  35 1.86
  77  0.237  0.494  0.626-  45 1.79  37 1.86
  78  0.748  0.483  0.125-  48 1.82  40 1.88
  79  0.746  0.486  0.624-  49 1.83  41 1.85
  80  0.749  0.012  0.376-  39 1.84  46 1.86
  81  0.743  0.010  0.872-  47 1.80  38 1.90
  82  0.254  0.251  0.125-  58 1.83  50 1.86
  83  0.260  0.249  0.626-  59 1.83  51 1.86
  84  0.751  0.269  0.125-  62 1.81  54 1.85
  85  0.255  0.746  0.375-  53 1.83  60 1.84
  86  0.252  0.752  0.875-  61 1.84  52 1.84
  87  0.752  0.743  0.374-  64 1.81  57 1.86
  88  0.748  0.742  0.875-  65 1.83  56 1.84
  89  0.125  0.507  0.992-   4 1.84  36 1.85
  90  0.626  0.510  0.997-  40 1.80   8 1.89
  91  0.126  0.007  0.248-  10 1.83  42 1.85
  92  0.626  0.006  0.245-  46 1.84  14 1.85
  93  0.626  0.268  0.507-  55 1.82  23 1.85
  94  0.625  0.738  0.004-  56 1.82  24 1.83
  95  0.625  0.769  0.495-  57 1.82  25 1.84
  96  0.124  0.259  0.742-  27 1.83  59 1.84
  97  0.125  0.748  0.253-  60 1.83  28 1.83
  98  0.626  0.239  0.251-  62 1.82  30 1.82
  99  0.625  0.253  0.730-  63 1.86  31 1.87   1 2.27
 100  0.623  0.750  0.251-  32 1.79  64 1.89
 101  0.377  0.997  0.988-   6 1.83  34 1.86
 102  0.376  0.512  0.508-   9 1.82  37 1.87
 103  0.873  0.999  0.996-  38 1.78   2 1.91
 104  0.875  0.512  0.502-   5 1.84  41 1.86
 105  0.375  0.008  0.765-  15 1.78  43 1.86
 106  0.374  0.491  0.248-  44 1.83  16 1.84
 107  0.875  0.492  0.250-  12 1.83  48 1.86
 108  0.875  0.512  0.744-  13 1.82  49 1.83
 109  0.376  0.250  0.994-  50 1.83  22 1.84
 110  0.874  0.251  0.996-  54 1.81  18 1.88
 111  0.875  0.739  0.748-  65 1.82  29 1.83
 112  0.526  0.127  0.528-  23 1.82   7 1.94
 113  0.005  0.126  0.744-  27 1.81  11 1.84
 114  0.489  0.125  0.241-  30 1.81  14 1.82
 115  0.511  0.124  0.728-  31 1.87  15 1.91   1 2.05
 116  0.507  0.626  0.738-  33 1.81  17 1.88
 117  0.003  0.375  0.005-  18 1.82   4 1.86
 118  0.005  0.875  0.002-  20 1.81   2 1.86
 119  0.982  0.875  0.499-   3 1.82  21 1.83
 120  0.505  0.374  0.992-  22 1.80   8 1.88
 121  0.509  0.875  0.990-  24 1.84   6 1.85
 122  0.012  0.374  0.246-  26 1.80  12 1.86
 123  0.260  0.625  0.003-  52 1.82  36 1.82
 124  0.728  0.126  0.518-  55 1.85  39 1.86
 125  0.242  0.624  0.749-  61 1.81  45 1.84
 126  0.738  0.125  0.729-  63 1.85  47 1.88   1 2.10
 127  0.262  0.373  0.494-  51 1.81  37 1.89
 128  0.264  0.876  0.500-  35 1.84  53 1.86
 129  0.237  0.374  0.257-  58 1.82  44 1.83
 130  0.997  0.003  0.126-  10 2.01   2 2.04
 131  1.000  0.997  0.624-   3 2.01  11 2.05
 132  0.002  0.510  0.125-  12 1.97   4 1.98
 133  0.491  0.989  0.125-  14 1.95   6 1.97
 134  0.486  0.977  0.630-  15 1.93   7 2.02
 135  0.504  0.496  0.127-  16 2.03   8 2.04
 136  0.509  0.488  0.625-   9 2.02  17 2.06
 137  0.001  0.495  0.376-  12 1.93   5 2.03
 138  0.993  0.496  0.872-   4 1.93  13 2.02
 139  0.509  0.011  0.374-  14 1.92   7 2.00
 140  0.520  0.016  0.874-  15 1.95   6 1.98
 141  0.999  0.245  0.127-  18 1.96  26 1.99
 142  0.990  0.258  0.622-  27 1.96  19 2.02
 143  0.499  0.257  0.126-  30 1.94  22 1.97
 144  0.482  0.268  0.625-  23 1.95  31 1.96
 145  0.497  0.759  0.126-  32 1.95  24 1.99
 146  0.003  0.251  0.874-  27 1.97  18 1.97
 147  0.994  0.751  0.375-  21 2.02  28 2.05
 148  0.001  0.751  0.874-  29 2.02  20 2.05
 149  0.503  0.238  0.378-  23 1.95  30 1.97
 150  0.512  0.235  0.873-  31 1.93  22 1.99
 151  0.494  0.741  0.376-  32 1.93  25 2.07
 152  0.499  0.739  0.873-  24 1.94  33 2.03
 153  0.242  0.493  0.125-  44 1.97  36 1.98
 154  0.753  0.993  0.125-  46 2.02  38 2.02
 155  0.754  0.987  0.624-  39 2.01  47 2.07
 156  0.247  0.002  0.375-  35 2.02  42 2.04
 157  0.238  0.994  0.875-  43 2.03  34 2.04
 158  0.250  0.512  0.376-  44 1.94  37 2.05
 159  0.262  0.499  0.874-  36 1.94  45 2.06
 160  0.748  0.512  0.374-  41 2.03  48 2.06
 161  0.754  0.513  0.874-  40 2.04  49 2.05
 162  0.252  0.755  0.125-  60 2.03  52 2.03
 163  0.248  0.752  0.625-  61 2.03  53 2.04
 164  0.763  0.268  0.623-  55 1.98  63 2.00
 165  0.753  0.758  0.126-  64 2.03  56 2.04
 166  0.748  0.757  0.624-  57 2.02  65 2.05
 167  0.247  0.243  0.375-  51 2.03  58 2.04
 168  0.245  0.252  0.875-  50 2.02  59 2.03
 169  0.751  0.233  0.375-  55 1.94  62 2.09
 170  0.741  0.235  0.874-  63 1.93  54 2.09
 171  0.126  0.005  0.005-   2 2.01  34 2.02
 172  0.125  0.987  0.502-   3 1.95  35 1.97
 173  0.123  0.489  0.491-   5 2.02  37 2.05
 174  0.625  0.005  0.010-   6 2.03  38 2.05
 175  0.629  0.975  0.507-  39 1.93   7 2.03
 176  0.626  0.486  0.496-  41 2.02   9 2.08
 177  0.127  0.991  0.743-  11 1.94  43 2.01
 178  0.124  0.511  0.251-  12 2.03  44 2.04
 179  0.123  0.487  0.764-  45 1.95  13 2.06
 180  0.624  0.994  0.732-  47 1.97  15 2.09
 181  0.625  0.503  0.251-  48 2.01  16 2.05
 182  0.626  0.490  0.758-  17 1.95  49 2.03
 183  0.125  0.248  0.001-  18 2.01  50 2.05
 184  0.123  0.261  0.507-  19 1.94  51 2.03
 185  0.125  0.741  0.000-  52 1.97  20 1.98
 186  0.124  0.764  0.495-  21 1.98  53 1.99
 187  0.626  0.246  0.002-  54 2.02  22 2.03
 188  0.125  0.233  0.249-  26 1.96  58 2.00
 189  0.123  0.761  0.752-  61 1.94  29 2.03
 190  0.627  0.760  0.750-  33 1.94  65 2.03
 191  0.373  0.024  0.492-  35 1.93   7 2.00
 192  0.373  0.492  0.009-  36 2.02   8 2.03
 193  0.875  0.022  0.505-  39 1.96   3 1.97
 194  0.874  0.495  0.000-   4 2.03  40 2.05
 195  0.377  0.992  0.259-  14 2.01  42 2.05
 196  0.375  0.503  0.737-  17 1.97  45 1.99
 197  0.874  0.996  0.249-  46 2.00  10 2.06
 198  0.874  0.004  0.747-  47 1.94  11 1.99
 199  0.379  0.230  0.492-  51 1.97  23 2.02
 200  0.377  0.761  0.002-  52 1.94  24 2.02
 201  0.378  0.734  0.504-  53 1.96  25 2.03
 202  0.875  0.234  0.497-  19 1.94  55 2.07
 203  0.872  0.758  0.998-  20 1.95  56 2.02
 204  0.873  0.732  0.504-  21 1.95  57 2.05
 205  0.378  0.263  0.257-  58 1.96  30 2.03
 206  0.377  0.240  0.761-  31 1.99  59 2.08
 207  0.377  0.752  0.247-  32 2.00  60 2.06
 208  0.375  0.749  0.748-  33 1.96  61 1.98
 209  0.874  0.261  0.253-  26 1.95  62 2.04
 210  0.872  0.244  0.755-  63 1.99  27 2.08
 211  0.874  0.751  0.249-  64 1.98  28 2.06
 212  0.001  0.127  0.000-  18 2.02   2 2.04
 213  0.014  0.126  0.509-  19 1.92   3 2.10
 214  0.990  0.625  0.993-   4 2.01  20 2.06
 215  0.013  0.627  0.492-   5 1.93  21 2.04
 216  0.502  0.124  0.010-   6 2.02  22 2.07
 217  0.487  0.628  0.009-  24 2.02   8 2.05
 218  0.516  0.626  0.510-  25 1.97   9 2.02
 219  0.988  0.128  0.247-  10 1.95  26 2.03
 220  0.994  0.623  0.258-  28 1.95  12 2.01
 221  0.015  0.624  0.756-  13 1.97  29 1.98
 222  0.497  0.626  0.243-  32 1.94  16 2.00
 223  0.987  0.374  0.499-  19 1.95   5 2.01
 224  0.485  0.371  0.492-   9 1.97  23 2.05
 225  0.481  0.877  0.485-  25 1.97   7 2.04
 226  0.988  0.374  0.750-  13 1.94  27 2.04
 227  0.999  0.876  0.250-  10 1.97  28 1.98
 228  0.992  0.876  0.747-  29 1.94  11 2.05
 229  0.510  0.371  0.257-  16 1.96  30 2.02
 230  0.494  0.372  0.760-  31 2.01  17 2.07
 231  0.501  0.876  0.259-  32 1.93  14 2.05
 232  0.499  0.876  0.768-  15 1.99  33 2.10
 233  0.249  0.125  0.993-  34 1.97  50 1.97
 234  0.233  0.125  0.499-  35 2.04  51 2.06
 235  0.237  0.627  0.506-  53 2.02  37 2.06
 236  0.748  0.127  0.014-  54 1.95  38 1.96
 237  0.764  0.625  0.013-  56 1.95  40 1.96
 238  0.734  0.626  0.509-  57 1.98  41 2.00
 239  0.265  0.127  0.253-  42 1.94  58 2.04
 240  0.241  0.125  0.758-  43 1.97  59 1.98
 241  0.255  0.623  0.240-  60 1.94  44 2.04
 242  0.764  0.127  0.235-  62 1.95  46 1.97
 243  0.751  0.624  0.237-  64 1.95  48 1.96
 244  0.735  0.624  0.738-  65 1.97  49 1.98
 245  0.246  0.376  0.996-  50 1.93  36 2.04
 246  0.242  0.874  0.003-  34 1.93  52 2.04
 247  0.744  0.375  0.978-  54 1.95  40 1.97
 248  0.767  0.372  0.483-  41 1.97  55 2.04
 249  0.741  0.875  0.995-  56 1.96  38 1.96
 250  0.771  0.877  0.493-  57 1.96  39 2.07
 251  0.262  0.376  0.756-  59 1.94  45 2.03
 252  0.250  0.876  0.252-  42 1.97  60 1.98
 253  0.256  0.874  0.746-  43 1.93  61 2.05
 254  0.742  0.374  0.272-  62 1.95  48 1.97
 255  0.757  0.373  0.765-  49 1.96  63 2.03
 256  0.750  0.876  0.256-  46 1.95  64 1.96
 257  0.755  0.876  0.755-  65 1.96  47 2.02
 

IMPORTANT INFORMATION: All symmetrisations will be switched off!
NOSYMM: (Re-)initialisation of all symmetry stuff for point group C_1.

 
 
 KPOINTS: Title                                   

Automatic generation of k-mesh.
Space group operators:
 irot       det(A)        alpha          n_x          n_y          n_z        tau_x        tau_y        tau_z
    1     1.000000     0.000001     1.000000     0.000000     0.000000     0.000000     0.000000     0.000000
 
 Subroutine IBZKPT returns following result:
 ===========================================
 
 Found      4 irreducible k-points:
 
 Following reciprocal coordinates:
            Coordinates               Weight
  0.250000  0.250000  0.250000      2.000000
 -0.250000  0.250000  0.250000      2.000000
  0.250000 -0.250000  0.250000      2.000000
 -0.250000 -0.250000  0.250000      2.000000
 
 Following cartesian coordinates:
            Coordinates               Weight
  0.016206  0.016206  0.016206      2.000000
 -0.016206  0.016206  0.016206      2.000000
  0.016206 -0.016206  0.016206      2.000000
 -0.016206 -0.016206  0.016206      2.000000
 


--------------------------------------------------------------------------------------------------------




 Dimension of arrays:
   k-points           NKPTS =      4   k-points in BZ     NKDIM =      4   number of bands    NBANDS=   1164
   number of dos      NEDOS =   3001   number of ions     NIONS =    257
   non local maximal  LDIM  =      6   non local SUM 2l+1 LMDIM =     18
   total plane-waves  NPLWV = ******
   max r-space proj   IRMAX =   7595   max aug-charges    IRDMAX= 146383
   dimension x,y,z NGX =   120 NGY =  120 NGZ =  120
   dimension x,y,z NGXF=   240 NGYF=  240 NGZF=  240
   support grid    NGXF=   480 NGYF=  480 NGZF=  480
   ions per type =               1  64  64 128
   NGX,Y,Z   is equivalent  to a cutoff of  12.93, 12.93, 12.93 a.u.
   NGXF,Y,Z  is equivalent  to a cutoff of  25.86, 25.86, 25.86 a.u.

 SYSTEM =  LTO                                     
 POSCAR =  config 35                               

 Startparameter for this run:
   NWRITE =      2    write-flag & timer
   PREC   = accura    normal or accurate (medium, high low for compatibility)
   ISTART =      1    job   : 0-new  1-cont  2-samecut
   ICHARG =      0    charge: 1-file 2-atom 10-const
   ISPIN  =      2    spin polarized calculation?
   LNONCOLLINEAR =      F non collinear calculations
   LSORBIT =      F    spin-orbit coupling
   INIWAV =      1    electr: 0-lowe 1-rand  2-diag
   LASPH  =      T    aspherical Exc in radial PAW
   METAGGA=      F    non-selfconsistent MetaGGA calc.

 Electronic Relaxation 1
   ENCUT  =  500.0 eV  36.75 Ry    6.06 a.u.  28.13 28.13 28.13*2*pi/ulx,y,z
   ENINI  =  500.0     initial cutoff
   ENAUG  =  628.9 eV  augmentation charge cutoff
   NELM   =     60;   NELMIN=  2; NELMDL=  0     # of ELM steps 
   EDIFF  = 0.1E-05   stopping-criterion for ELM
   LREAL  =      T    real-space projection
   NLSPLINE    = F    spline interpolate recip. space projectors
   LCOMPAT=      F    compatible to vasp.4.4
   GGA_COMPAT  = T    GGA compatible to vasp.4.4-vasp.4.6
   LMAXPAW     = -100 max onsite density
   LMAXMIX     =    4 max onsite mixed and CHGCAR
   VOSKOWN=      0    Vosko Wilk Nusair interpolation
   ROPT   =   -0.00010  -0.00010  -0.00010  -0.00010
 Ionic relaxation
   EDIFFG = -.5E-01   stopping-criterion for IOM
   NSW    =    100    number of steps for IOM
   NBLOCK =      1;   KBLOCK =    100    inner block; outer block 
   IBRION =      1    ionic relax: 0-MD 1-quasi-New 2-CG
   NFREE  =      0    steps in history (QN), initial steepest desc. (CG)
   ISIF   =      2    stress and relaxation
   IWAVPR =     11    prediction:  0-non 1-charg 2-wave 3-comb
   ISYM   =      0    0-nonsym 1-usesym 2-fastsym
   LCORR  =      T    Harris-Foulkes like correction to forces

   POTIM  = 0.5000    time-step for ionic-motion
   TEIN   =    0.0    initial temperature
   TEBEG  =    0.0;   TEEND  =   0.0 temperature during run
   SMASS  =  -3.00    Nose mass-parameter (am)
   estimated Nose-frequenzy (Omega)   =  0.10E-29 period in steps =****** mass=  -0.544E-26a.u.
   SCALEE = 1.0000    scale energy and forces
   NPACO  =    256;   APACO  = 16.0  distance and # of slots for P.C.
   PSTRESS=    0.0 pullay stress

  Mass of Ions in am
   POMASS =   7.01 47.88 16.00 19.00
  Ionic Valenz
   ZVAL   =   3.00 10.00  6.00  7.00
  Atomic Wigner-Seitz radii
   RWIGS  =  -1.00 -1.00 -1.00 -1.00
  virtual crystal weights 
   VCA    =   1.00  1.00  1.00  1.00
   NELECT =    1923.0000    total number of electrons
   NUPDOWN=       1.0000    fix difference up-down

 DOS related values:
   EMIN   =  10.00;   EMAX   =-10.00  energy-range for DOS
   EFERMI =   0.00
   ISMEAR =     0;   SIGMA  =   0.01  broadening in eV -4-tet -1-fermi 0-gaus

 Electronic relaxation 2 (details)
   IALGO  =     38    algorithm
   LDIAG  =      T    sub-space diagonalisation (order eigenvalues)
   LSUBROT=      F    optimize rotation matrix (better conditioning)
   TURBO    =      0    0=normal 1=particle mesh
   IRESTART =      0    0=no restart 2=restart with 2 vectors
   NREBOOT  =      0    no. of reboots
   NMIN     =      0    reboot dimension
   EREF     =   0.00    reference energy to select bands
   IMIX   =      4    mixing-type and parameters
     AMIX     =   0.40;   BMIX     =  1.00
     AMIX_MAG =   1.60;   BMIX_MAG =  1.00
     AMIN     =   0.10
     WC   =   100.;   INIMIX=   1;  MIXPRE=   1;  MAXMIX= -45

 Intra band minimization:
   WEIMIN = 0.0010     energy-eigenvalue tresh-hold
   EBREAK =  0.21E-09  absolut break condition
   DEPER  =   0.30     relativ break condition  

   TIME   =   0.40     timestep for ELM

  volume/ion in A,a.u.               =      14.28        96.39
  Fermi-wavevector in a.u.,A,eV,Ry     =   1.319690  2.493853 23.695660  1.741582
  Thomas-Fermi vector in A             =   2.449570
 
 Write flags
   LWAVE        =      T    write WAVECAR
   LDOWNSAMPLE  =      F    k-point downsampling of WAVECAR
   LCHARG       =      T    write CHGCAR
   LVTOT        =      F    write LOCPOT, total local potential
   LVHAR        =      F    write LOCPOT, Hartree potential only
   LELF         =      F    write electronic localiz. function (ELF)
   LORBIT       =     11    0 simple, 1 ext, 2 COOP (PROOUT), +10 PAW based schemes


 Dipole corrections
   LMONO  =      F    monopole corrections only (constant potential shift)
   LDIPOL =      F    correct potential (dipole corrections)
   IDIPOL =      0    1-x, 2-y, 3-z, 4-all directions 
   EPSILON=  1.0000000 bulk dielectric constant

 LDA+U is selected, type is set to LDAUTYPE =  2
   angular momentum for each species LDAUL =    -1    2   -1   -1
   U (eV)           for each species LDAUU =   0.0  4.2  0.0  0.0
   J (eV)           for each species LDAUJ =   0.0  0.0  0.0  0.0
 Exchange correlation treatment:
   GGA     =    PS    GGA type
   LEXCH   =    14    internal setting for exchange type
   VOSKOWN=      0    Vosko Wilk Nusair interpolation
   LHFCALC =     F    Hartree Fock is set to
   LHFONE  =     F    Hartree Fock one center treatment
   AEXX    =    0.0000 exact exchange contribution

 Linear response parameters
   LEPSILON=     F    determine dielectric tensor
   LRPA    =     F    only Hartree local field effects (RPA)
   LNABLA  =     F    use nabla operator in PAW spheres
   LVEL    =     F    velocity operator in full k-point grid
   LINTERFAST=   F  fast interpolation
   KINTER  =     0    interpolate to denser k-point grid
   CSHIFT  =0.1000    complex shift for real part using Kramers Kronig
   OMEGAMAX=  -1.0    maximum frequency
   DEG_THRESHOLD= 0.2000000E-02 threshold for treating states as degnerate
   RTIME   =   -0.100 relaxation time in fs
  (WPLASMAI=    0.000 imaginary part of plasma frequency in eV, 0.658/RTIME)
   DFIELD  = 0.0000000 0.0000000 0.0000000 field for delta impulse in time
 
 Orbital magnetization related:
   ORBITALMAG=     F  switch on orbital magnetization
   LCHIMAG   =     F  perturbation theory with respect to B field
   DQ        =  0.001000  dq finite difference perturbation B field
   LLRAUG    =     F  two centre corrections for induced B field



--------------------------------------------------------------------------------------------------------


 quasi-Newton-method for relaxation of ions
 charge density and potential will be updated during run
 spin polarized calculation
 Variant of blocked Davidson
 Davidson routine will perform the subspace rotation
 perform sub-space diagonalisation
    after iterative eigenvector-optimisation
 modified Broyden-mixing scheme, WC =      100.0
 initial mixing is a Kerker type mixing with AMIX =  0.4000 and BMIX =      1.0000
 Hartree-type preconditioning will be used
 using additional bands          202
 real space projection scheme for non local part
 use partial core corrections
 calculate Harris-corrections to forces 
   (improved forces if not selfconsistent)
 use gradient corrections 
 use of overlap-Matrix (Vanderbilt PP)
 Gauss-broadening in eV      SIGMA  =   0.01


--------------------------------------------------------------------------------------------------------


  energy-cutoff  :      500.00
  volume of cell :     3671.03
      direct lattice vectors                 reciprocal lattice vectors
    15.426331000  0.000000000  0.000000000     0.064824228  0.000000000  0.000000000
     0.000000000 15.426331000  0.000000000     0.000000000  0.064824228  0.000000000
     0.000000000  0.000000000 15.426331000     0.000000000  0.000000000  0.064824228

  length of vectors
    15.426331000 15.426331000 15.426331000     0.064824228  0.064824228  0.064824228


 
 old parameters found on file WAVECAR:
  energy-cutoff  :      500.00
  volume of cell :     3671.03
      direct lattice vectors                 reciprocal lattice vectors
    15.426331000  0.000000000  0.000000000     0.064824228  0.000000000  0.000000000
     0.000000000 15.426331000  0.000000000     0.000000000  0.064824228  0.000000000
     0.000000000  0.000000000 15.426331000     0.000000000  0.000000000  0.064824228

  length of vectors

 
 k-points in units of 2pi/SCALE and weight: Title                                   
   0.01620606  0.01620606  0.01620606       0.250
  -0.01620606  0.01620606  0.01620606       0.250
   0.01620606 -0.01620606  0.01620606       0.250
  -0.01620606 -0.01620606  0.01620606       0.250
 
 k-points in reciprocal lattice and weights: Title                                   
   0.25000000  0.25000000  0.25000000       0.250
  -0.25000000  0.25000000  0.25000000       0.250
   0.25000000 -0.25000000  0.25000000       0.250
  -0.25000000 -0.25000000  0.25000000       0.250
 
 position of ions in fractional coordinates (direct lattice) 
   0.62259619  0.12633148  0.65629831
   0.99631503  0.99509109  0.99446825
   0.99847126  0.99162770  0.49370126
   0.00603762  0.49580032  0.99715837
   0.99437532  0.50363216  0.50701320
   0.49497867  0.99397987  0.99769551
   0.50107894  0.00630018  0.50306013
   0.50405721  0.49642315  0.99459623
   0.49197270  0.49848026  0.49576625
   0.00705152  0.00332102  0.25589360
   0.00258319  0.00756268  0.75670148
   0.99360258  0.49307155  0.25097396
   0.99234677  0.49942483  0.74142636
   0.50598084  0.00822867  0.24920655
   0.48980199  0.00414848  0.75147519
   0.49256789  0.49701283  0.25790253
   0.50099377  0.50596104  0.75740668
   0.99538622  0.25780369  0.00062982
   0.99939533  0.24788257  0.49158559
   0.99832364  0.75776577  0.00613644
   0.99661871  0.75742641  0.50570482
   0.49518096  0.25820606  0.99837345
   0.50904039  0.24119259  0.50439647
   0.50768850  0.75634593  0.99755441
   0.50745673  0.75411163  0.50877129
   0.00074749  0.25826134  0.25533448
   0.00722705  0.24318313  0.74640340
   0.00692926  0.74797091  0.24317347
   0.99273841  0.75017124  0.74290716
   0.50760471  0.24076390  0.25016045
   0.50485412  0.24318503  0.74805364
   0.50698897  0.75085905  0.25193909
   0.50239879  0.74296813  0.74186637
   0.25720991  0.99829364  0.00530998
   0.25230679  0.99435908  0.50610734
   0.24408486  0.50811288  0.99756192
   0.25537110  0.49439637  0.50689867
   0.75717236  0.00115684  0.99454198
   0.74906640  0.00901831  0.49490812
   0.74173395  0.49994510  0.00458722
   0.75598334  0.49800989  0.50489930
   0.24545164  0.00272351  0.24318363
   0.25662451  0.99875138  0.74434455
   0.25473401  0.49153024  0.25185750
   0.24618627  0.50568317  0.74097136
   0.74453686  0.00226557  0.25577245
   0.74831488  0.00625821  0.75594822
   0.75520107  0.49709672  0.24175744
   0.75701781  0.49786021  0.74171235
   0.25775760  0.25170293  0.00507897
   0.25477501  0.25634576  0.50545725
   0.25249940  0.74244932  0.99410723
   0.25306318  0.75611294  0.49351497
   0.75720490  0.25234941  0.00651920
   0.74080096  0.24345501  0.49922308
   0.74177933  0.74799980  0.99415124
   0.74202760  0.75304055  0.49386847
   0.25175782  0.25781000  0.24397110
   0.24373341  0.25205378  0.74307739
   0.24418956  0.74754372  0.25638752
   0.24748593  0.74165277  0.75689205
   0.74289809  0.25137113  0.24078129
   0.74348187  0.24268319  0.74858610
   0.74584317  0.74900841  0.25695109
   0.75757473  0.74872375  0.75685817
   0.01007005  0.50213308  0.62455988
   0.99838438  0.00540563  0.37620541
   0.00329117  0.00206550  0.87277320
   0.49773556  0.50573339  0.37557037
   0.49212430  0.50907899  0.87380830
   0.99914087  0.74476961  0.12546850
   0.00272898  0.74582393  0.62417356
   0.50168485  0.76639002  0.62475907
   0.00254961  0.24745755  0.37651386
   0.25830234  0.00317644  0.12478061
   0.25808926  0.00418004  0.62640869
   0.23681880  0.49389688  0.62584048
   0.74848438  0.48335267  0.12491712
   0.74558576  0.48644028  0.62395375
   0.74869166  0.01186045  0.37596919
   0.74262338  0.01026626  0.87233684
   0.25351910  0.25097189  0.12547546
   0.25961664  0.24900126  0.62570882
   0.75061669  0.26863053  0.12525859
   0.25549937  0.74586527  0.37511724
   0.25176390  0.75154943  0.87542816
   0.75216340  0.74276452  0.37423990
   0.74822641  0.74178816  0.87523228
   0.12451116  0.50702536  0.99249717
   0.62569838  0.51013238  0.99683635
   0.12551060  0.00676834  0.24830063
   0.62576749  0.00563681  0.24502312
   0.62589456  0.26846341  0.50722506
   0.62474861  0.73815593  0.00389838
   0.62502445  0.76862008  0.49537969
   0.12435946  0.25923804  0.74180348
   0.12542209  0.74775834  0.25260881
   0.62587657  0.23906900  0.25108725
   0.62458787  0.25329715  0.73018926
   0.62319776  0.74984093  0.25056987
   0.37655652  0.99747799  0.98792047
   0.37565486  0.51177738  0.50761584
   0.87277708  0.99949175  0.99595370
   0.87541518  0.51181293  0.50173345
   0.37498608  0.00752315  0.76526212
   0.37358026  0.49120170  0.24756145
   0.87525781  0.49237525  0.25025260
   0.87478536  0.51182269  0.74382778
   0.37608061  0.25032590  0.99441334
   0.87375856  0.25109994  0.99617695
   0.87471725  0.73878448  0.74848604
   0.52586341  0.12689069  0.52801564
   0.00485201  0.12621163  0.74386061
   0.48945048  0.12502008  0.24121019
   0.51111689  0.12376157  0.72848644
   0.50666520  0.62590036  0.73814413
   0.00282136  0.37541334  0.00481805
   0.00461140  0.87493831  0.00180151
   0.98215459  0.87504795  0.49904259
   0.50515926  0.37429671  0.99244239
   0.50857036  0.87515920  0.98960204
   0.01153206  0.37378460  0.24611046
   0.25958991  0.62508855  0.00320708
   0.72832064  0.12563657  0.51826790
   0.24221974  0.62436936  0.74940337
   0.73753587  0.12470442  0.72892304
   0.26220283  0.37273905  0.49398612
   0.26436998  0.87606233  0.50004025
   0.23727849  0.37415467  0.25746058
   0.99701329  0.00315041  0.12629654
   0.99996900  0.99741313  0.62397029
   0.00169147  0.51008959  0.12482362
   0.49114085  0.98890250  0.12514718
   0.48639617  0.97701574  0.62960242
   0.50364809  0.49592079  0.12684852
   0.50946402  0.48773341  0.62507689
   0.00107629  0.49478161  0.37594383
   0.99294150  0.49640885  0.87248846
   0.50880268  0.01055510  0.37378395
   0.51969418  0.01580379  0.87375699
   0.99902472  0.24498339  0.12694578
   0.98970478  0.25750761  0.62163424
   0.49889372  0.25735338  0.12604535
   0.48198431  0.26763820  0.62518932
   0.49672557  0.75905938  0.12634991
   0.00294084  0.25139714  0.87353672
   0.99354084  0.75088696  0.37524372
   0.00117482  0.75139384  0.87367792
   0.50340532  0.23767064  0.37799593
   0.51216947  0.23513528  0.87276035
   0.49368571  0.74117638  0.37569237
   0.49881404  0.73920193  0.87333760
   0.24215239  0.49278965  0.12469473
   0.75264600  0.99254793  0.12541402
   0.75385027  0.98687709  0.62350801
   0.24741564  0.00175856  0.37532495
   0.23828037  0.99378056  0.87473878
   0.24980583  0.51194397  0.37552944
   0.26163119  0.49901103  0.87353406
   0.74810987  0.51206750  0.37444312
   0.75404266  0.51259061  0.87365462
   0.25160212  0.75488747  0.12519871
   0.24761226  0.75158601  0.62536148
   0.76299433  0.26803997  0.62319415
   0.75253058  0.75825888  0.12556503
   0.74780824  0.75736120  0.62440548
   0.24685897  0.24257614  0.37504272
   0.24464988  0.25160196  0.87471070
   0.75137868  0.23328595  0.37462318
   0.74087587  0.23462599  0.87352155
   0.12612350  0.00455225  0.00549049
   0.12462553  0.98689196  0.50242170
   0.12335789  0.48894228  0.49059127
   0.62547137  0.00459280  0.00966534
   0.62908258  0.97504411  0.50682034
   0.62610407  0.48573667  0.49568019
   0.12664167  0.99149890  0.74343289
   0.12376735  0.51121912  0.25103726
   0.12310384  0.48685498  0.76427170
   0.62377776  0.99418624  0.73178166
   0.62506521  0.50327432  0.25092698
   0.62641683  0.48956224  0.75769296
   0.12500122  0.24763849  0.00088337
   0.12340843  0.26148741  0.50668481
   0.12516701  0.74090417  0.00036192
   0.12417616  0.76388863  0.49496623
   0.62619175  0.24643020  0.00171040
   0.12500408  0.23255541  0.24908018
   0.12341645  0.76092830  0.75184194
   0.62650225  0.75970535  0.75028068
   0.37308522  0.02356742  0.49163475
   0.37346518  0.49188528  0.00929142
   0.87482563  0.02212364  0.50509119
   0.87430326  0.49455664  0.00039134
   0.37695197  0.99210833  0.25890677
   0.37485083  0.50323979  0.73742361
   0.87404663  0.99586713  0.24885270
   0.87403815  0.00389000  0.74720054
   0.37888399  0.22975244  0.49233397
   0.37683520  0.76129015  0.00162600
   0.37772718  0.73420039  0.50433456
   0.87457434  0.23367508  0.49695832
   0.87215329  0.75816520  0.99835969
   0.87257887  0.73233732  0.50431147
   0.37827101  0.26298935  0.25650346
   0.37671239  0.24042407  0.76096807
   0.37716765  0.75158448  0.24708388
   0.37538391  0.74904871  0.74824136
   0.87417239  0.26057049  0.25329923
   0.87238740  0.24439992  0.75491065
   0.87371780  0.75067468  0.24853444
   0.00113867  0.12705047  0.00038750
   0.01399688  0.12573482  0.50916943
   0.98998056  0.62530480  0.99285865
   0.01344229  0.62669771  0.49215133
   0.50163680  0.12436564  0.00961432
   0.48659902  0.62754731  0.00874735
   0.51624882  0.62646870  0.50976889
   0.98756299  0.12779225  0.24723283
   0.99431155  0.62309507  0.25839608
   0.01538577  0.62430192  0.75598100
   0.49707846  0.62574866  0.24295297
   0.98748686  0.37369980  0.49892817
   0.48460411  0.37130220  0.49182238
   0.48113768  0.87673758  0.48519876
   0.98756259  0.37420323  0.74961997
   0.99930938  0.87583677  0.25038244
   0.99187094  0.87574434  0.74734364
   0.50953896  0.37133790  0.25670472
   0.49394012  0.37220094  0.75990810
   0.50060329  0.87567372  0.25948392
   0.49852248  0.87631657  0.76820630
   0.24873799  0.12488474  0.99284722
   0.23332976  0.12493864  0.49892258
   0.23703468  0.62669004  0.50573421
   0.74761106  0.12653939  0.01373153
   0.76392856  0.62493535  0.01334650
   0.73442196  0.62559097  0.50921282
   0.26463152  0.12663909  0.25279595
   0.24106786  0.12474172  0.75802802
   0.25510352  0.62334662  0.24009187
   0.76400234  0.12669022  0.23539520
   0.75131965  0.62431229  0.23709215
   0.73475919  0.62439457  0.73832068
   0.24567458  0.37616763  0.99638064
   0.24224105  0.87381594  0.00330726
   0.74397347  0.37479992  0.97815053
   0.76670117  0.37231994  0.48327104
   0.74112208  0.87499632  0.99450378
   0.77118709  0.87664631  0.49277441
   0.26161707  0.37557725  0.75616456
   0.25033306  0.87552188  0.25152794
   0.25568315  0.87377480  0.74642958
   0.74168713  0.37354521  0.27192304
   0.75701492  0.37290640  0.76469820
   0.75025215  0.87568555  0.25617694
   0.75546669  0.87561858  0.75536842
 
 position of ions in cartesian coordinates  (Angst):
   9.60437489  1.94883126 10.12427502
  15.36948538 15.35060457 15.34099646
  15.40274809 15.29717709  7.61599906
   0.09313839  7.64837978 15.38249500
  15.33956283  7.76919648  7.82135338
   7.63570488 15.33346245 15.39078117
   7.72980966  0.09718869  7.76037202
   7.77575334  7.65798790 15.34297064
   7.58933367  7.68972148  7.64785428
   0.10877911  0.05123112  3.94749940
   0.03984918  0.11666434 11.67312757
  15.32764226  7.60628492  3.87160737
  15.30826971  7.70429268 11.43748840
   7.80542788  0.12693823  3.84434278
   7.55584768  0.06399579 11.59250507
   7.59851528  7.66708436  3.97848982
   7.72849574  7.80512245 11.68400621
  15.35515733  3.97696502  0.00971578
  15.41700320  3.82391861  7.58336198
  15.40047092 11.68954567  0.09466281
  15.37417018 11.68431054  7.80116995
   7.63882532  3.98317219 15.40123936
   7.85262555  3.72071668  7.78098684
   7.83177081 11.66764262 15.38860452
   7.82819543 11.63317562  7.84847433
   0.01153101  3.98402493  3.93887424
   0.11148691  3.75142346 11.51426598
   0.10689301 11.53844679  3.75127442
  15.31431127 11.57238981 11.46033174
   7.83047835  3.71410356  3.85905797
   7.78804683  3.75145273 11.53972313
   7.82097968 11.58300019  3.88649579
   7.75017006 11.46127228 11.44427625
   3.96780519 15.40000806  0.08191346
   3.89216798 15.33931228  7.80737929
   3.76533389  7.83831742 15.38872033
   3.93943913  7.62672198  7.81958664
  11.68039151  0.01784582 15.34213375
  11.55534625  0.13911936  7.63461645
  11.44223348  7.71231852  0.07076398
  11.66204918  7.68246533  7.78874368
   3.78641821  0.04201372  3.75143112
   3.95877458 15.40706939 11.48250543
   3.92961112  7.58250819  3.88523719
   3.79775087  7.80083601 11.43046953
  11.48547205  0.03494939  3.94563053
  11.54375296  0.09654121 11.66150743
  11.64998164  7.66837858  3.72943030
  11.67800736  7.68015643 11.44190026
   3.97625400  3.88285276  0.07834982
   3.93024368  3.95447457  7.79735082
   3.89513936 11.45326894 15.33542715
   3.90383636 11.66404847  7.61312528
  11.68089344  3.89282553  0.10056733
  11.42784075  3.75561764  7.70118050
  11.44293340 11.53889256 15.33610617
  11.44676341 11.61665276  7.61857849
   3.88369954  3.97706242  3.76357889
   3.75991228  3.88826506 11.46295773
   3.76694904 11.53185692  3.95511881
   3.81779985 11.44098110 11.67606732
  11.46019178  3.87773429  3.71437183
  11.46919746  3.74371129 11.54793691
  11.50562369 11.55445158  3.96381260
  11.68659849 11.55006033 11.67554464
   0.15534395  7.74607109  9.63466744
  15.40140786  0.08338903  5.80346912
   0.05077066  0.03186315 13.46368822
   7.67823344  7.80161064  5.79367288
   7.59167228  7.85322095 13.47965604
  15.41307774 11.48906255  1.93551855
   0.04209822 11.50532677  9.62870793
   7.73915661 11.82258620  9.63774022
   0.03933113  3.81736201  5.80822737
   3.98465739  0.04900089  1.92490700
   3.98137042  0.06448266  9.66318777
   3.65324523  7.61901681  9.65442246
  11.54636780  7.45635820  1.92701282
  11.50165276  7.50398871  9.62531704
  11.54956536  0.18296329  5.79982519
  11.45595407  0.15837069 13.45695687
   3.91086953  3.87157538  1.93562598
   4.00493229  3.84117591  9.65239138
  11.57926145  4.14398343  1.93228040
   3.94141785 11.50596461  5.78668277
   3.88379318 11.59365032 13.50464461
  11.60312163 11.45813139  5.77314864
  11.54238830 11.44306973 13.50162280
   1.92075036  7.82154108 15.31058992
   9.65223038  7.86947095 15.37752748
   1.93616807  0.10441065  3.83036774
   9.65329648  0.08695532  3.77980776
   9.65525662  4.14140535  7.82462174
   9.63757888 11.38703765  0.06013770
   9.64183401 11.85698773  7.64189114
   1.91841021  3.99909188 11.44330608
   1.93480262 11.53516761  3.89682712
   9.65497918  3.68795755  3.87335509
   9.63509918  3.90744563 11.26414127
   9.61365498 11.56729443  3.86537373
   5.80888556 15.38742562 15.23998824
   5.79497626  7.89484719  7.83064998
  13.46374816 15.41849057 15.36391146
  13.50444440  7.89539564  7.73990628
   5.78465935  0.11605466 11.80518675
   5.76297277  7.57743996  3.81896492
  13.50201672  7.59554359  3.86047950
  13.49472847  7.89554629 11.47453351
   5.80154399  3.86161023 15.34014931
  13.47888869  3.87355073 15.36735531
  13.49367790 11.39673397 11.54639336
   8.11214298  1.95745785  8.14534404
   0.07484875  1.94698234 11.47503997
   7.55042519  1.92860107  3.72098819
   7.88465827  1.90918697 11.23787289
   7.81598503  9.65534615 11.38685571
   0.04352323  5.79125037  0.07432491
   0.07113702 13.49708794  0.02779065
  15.15104180 13.49877938  7.69839617
   7.79275397  5.77402493 15.30974484
   7.84537465 13.50049550 15.26592857
   0.17789737  5.76612503  3.79658141
   4.00451984  9.64282283  0.04947349
  11.23531534  1.93811137  7.99497220
   3.73656186  9.63172848 11.56054446
  11.37747252  1.92373162 11.24460802
   4.04482772  5.74999603  7.62039345
   4.07825888 13.51442746  7.71378636
   3.66033659  5.77183385  3.97167219
  15.38025698  0.04859924  1.94829222
  15.42585279 15.38642515  9.62557219
   0.02609323  7.86881081  1.92557049
   7.57650125 15.25513732  1.93056177
   7.50330839 15.07176815  9.71245536
   7.76944210  7.65023830  1.95680724
   7.85916055  7.52393702  9.64264294
   0.01660316  7.63266495  5.79943389
  15.31744423  7.65776722 13.45929575
   7.84895848  0.16282644  5.76611486
   8.01697448  0.24379452 13.47886451
  15.41128599  3.77919488  1.95830762
  15.26751349  3.97239765  9.58953547
   7.69609958  3.97001845  1.94441732
   7.43524950  4.12867547  9.64437732
   7.66265304 11.70950125  1.94911554
   0.04536631  3.87813544 13.47546663
  15.32668983 11.58343074  5.78863390
   0.01812322 11.59125004 13.47764476
   7.76569704  3.66638603  5.83109033
   7.90089578  3.62727473 13.46349004
   7.61575916 11.43363215  5.79555483
   7.69487048 11.40317361 13.47239483
   3.73552294  7.60193618  1.92358212
  11.61056628 15.31137284  1.93467811
  11.62914376 15.22389260  9.61844101
   3.81671555  0.02712815  5.78988689
   3.67579187 15.33038781 13.49400990
   3.85358735  7.89741715  5.79304150
   4.03600940  7.69790937 13.47542552
  11.54059052  7.89932281  5.77628348
  11.63211162  7.90739235 13.47728536
   3.88129751 11.64514390  1.93135681
   3.81974872 11.59421457  9.64703311
  11.77020301  4.13487323  9.61359927
  11.60878574 11.69715243  1.93700766
  11.53593745 11.68330450  9.63228557
   3.80812818  3.74205987  5.78553320
   3.77405009  3.88129514 13.49357675
  11.59101615  3.59874632  5.77906114
  11.42899641  3.61941819 13.47523252
   1.94562287  0.07022449  0.08469819
   1.92251475 15.22412207  7.75052349
   1.90295961  7.54258542  7.56802335
   9.64872834  0.07084998  0.14910070
   9.70443606 15.04135312  7.81837826
   9.65848861  7.49313470  7.64652666
   1.95361629 15.29519024 11.46844189
   1.90927607  7.88623529  3.87258384
   1.89904055  7.51038609 11.78990828
   9.62260227 15.33664606 11.28870614
   9.64246280  7.76367626  3.87088261
   9.66331335  7.55214920 11.68842247
   1.92831020  3.82015328  0.01362720
   1.90373926  4.03379139  7.81628759
   1.93086776 11.42943301  0.00558315
   1.91558250 11.78399883  7.63551286
   9.65984126  3.80151382  0.02638517
   1.92835427  3.58747673  3.84239324
   1.90386303 11.73833181 11.59816260
   9.66463108 11.71946619 11.57407817
   5.75533612  0.36355881  7.58412040
   5.76119752  7.58798508  0.14333246
  13.49534977  0.34128665  7.79170381
  13.48729149  7.62919449  0.00603690
   5.81498590 15.30459148  3.99398159
   5.78257294  7.76314354 11.37574067
  13.48333260 15.36257602  3.83888417
  13.48320179  0.06000849 11.52656280
   5.84478980  3.54423718  7.59490681
   5.81318446 11.74391390  0.02508323
   5.82694445 11.32601826  7.78003188
  13.49147320  3.60474915  7.66624355
  13.45412529 11.69570733 15.40102709
  13.46069047 11.29727788  7.77967563
   5.83533373  4.05696069  3.95690720
   5.81129001  3.70886130 11.73894529
   5.81831296 11.59419103  3.81159777
   5.79079640 11.55507331 11.54261896
  13.48527268  4.01964669  3.90747779
  13.45773673  3.77019405 11.64550154
  13.47826002 11.58015603  3.83397450
   0.01756557  1.95992256  0.00597764
   0.21592043  1.93962702  7.85461622
  15.27176786  9.64615875 15.31616622
   0.20736529  9.66764630  7.59208928
   7.73841538  1.91850560  0.14831375
   7.50643760  9.68075249  0.13493952
   7.96382513  9.66411356  7.86386368
  15.23447362  1.97136553  3.81389547
  15.33857916  9.61207073  3.98610352
   0.23734600  9.63068801 11.66201311
   7.66809692  9.65300590  3.74787286
  15.23329908  5.76481688  7.69663111
   7.47566340  5.72783062  7.58701483
   7.42218915 13.52484413  7.48483668
  15.23446736  5.77258294 11.56388571
  15.41567729 13.51094790  3.86248233
  15.30092950 13.50952203 11.52877030
   7.86031670  5.72838131  3.96001195
   7.61968376  5.74169484 11.72259381
   7.72247210 13.50843272  4.00288481
   7.69037272 13.51834944 11.85060462
   3.83711456  1.92651334 15.31598978
   3.59942213  1.92734489  7.69654480
   3.65657543  9.66752794  7.80162330
  11.53289563  1.95203854  0.21182720
  11.78461489  9.64045962  0.20588749
  11.32943631  9.65057336  7.85528551
   4.08229346  1.95357658  3.89971404
   3.71879258  1.92430705 11.69359116
   3.93531141  9.61595131  3.70373671
  11.78575294  1.95436531  3.63128430
  11.59010559  9.63084797  3.65746198
  11.33463854  9.63211737 11.38957920
   3.78985745  5.80288637 15.37049756
   3.73689060 13.47977399  0.05101887
  11.47678095  5.78178755 15.08927380
  11.82738607  5.74353068  7.45509898
  11.43279452 13.49798282 15.34154445
  11.89658724 13.52343622  7.60170118
   4.03579154  5.79377900 11.66484476
   3.86172058 13.50609025  3.88015333
   3.94425295 13.47913931 11.51466977
  11.44151110  5.76243211  4.19477482
  11.67796280  5.75257760 11.79648752
  11.57363804 13.50861513  3.95187030
  11.65407921 13.50758207 11.65256331
 


--------------------------------------------------------------------------------------------------------


 k-point  1 :   0.2500 0.2500 0.2500  plane waves:   93161
 k-point  2 :  -0.2500 0.2500 0.2500  plane waves:   93161
 k-point  3 :   0.2500-0.2500 0.2500  plane waves:   93161
 k-point  4 :  -0.2500-0.2500 0.2500  plane waves:   93161

 maximum and minimum number of plane-waves per node :     11686    11606

 maximum number of plane-waves:     93161
 maximum index in each direction: 
   IXMAX=   28   IYMAX=   28   IZMAX=   27
   IXMIN=  -28   IYMIN=  -28   IZMIN=  -28


 real space projection operators:
  total allocation   :     105595.75 KBytes
  max/ min on nodes  :      13233.09      13164.90


 parallel 3D FFT for wavefunctions:
    minimum data exchange during FFTs selected (reduces bandwidth)
 parallel 3D FFT for charge:
    minimum data exchange during FFTs selected (reduces bandwidth)


 total amount of memory used by VASP MPI-rank0   291490. kBytes
=======================================================================

   base      :      30000. kBytes
   nonlr-proj:      49455. kBytes
   fftplans  :      27976. kBytes
   grid      :      34041. kBytes
   one-center:       1026. kBytes
   wavefun   :     148992. kBytes
 
     INWAV:  cpu time   51.0888: real time   52.1181
 Broyden mixing: mesh for mixing (old mesh)
   NGX = 57   NGY = 57   NGZ = 57
  (NGX  =240   NGY  =240   NGZ  =240)
  gives a total of 185193 points

 charge density for first step will be calculated from the start-wavefunctions


--------------------------------------------------------------------------------------------------------


 Maximum index for non-local projection operator          968
 Maximum index for augmentation-charges         3297 (set IRDMAX)


--------------------------------------------------------------------------------------------------------


 initial charge from wavefunction
 First call to EWALD:  gamma=   0.115
 Maximum number of real-space cells 3x 3x 3
 Maximum number of reciprocal cells 3x 3x 3

    FEWALD:  cpu time    0.0202: real time    0.0202


--------------------------------------- Iteration      1(   1)  ---------------------------------------


    POTLOK:  cpu time    0.2715: real time    0.2928
    SETDIJ:  cpu time    1.4141: real time    1.4145
     EDDAV:  cpu time  129.9659: real time  131.1942
       DOS:  cpu time    0.0030: real time    0.0030
    CHARGE:  cpu time    5.2927: real time    5.2958
    MIXING:  cpu time    0.0092: real time    0.0094
    --------------------------------------------
      LOOP:  cpu time  136.9565: real time  138.2098

 eigenvalue-minimisations  : 22872
 total energy-change (2. order) :-0.1865714E+04  (-0.3622014E+03)
 number of electron    1923.0000023 magnetization       1.0000000
 augmentation part      508.3060253 magnetization       0.5965680

 Broyden mixing:
  rms(total) = 0.97627E+01    rms(broyden)= 0.97589E+01
  rms(prec ) = 0.15440E+02
  weight for this iteration     100.00

 Free energy of the ion-electron system (eV)
  ---------------------------------------------------
  alpha Z        PSCENC =      6118.73324990
  Ewald energy   TEWEN  =   -103775.26510093
  -Hartree energ DENC   =    -64845.24216387
  -exchange      EXHF   =         0.00000000
  -V(xc)+E(xc)   XCENC  =      8955.36608783
  PAW double counting   =    196893.69796644  -197887.28771096
  entropy T*S    EENTRO =        -0.01057460
  eigenvalues    EBANDS =    -25902.95794204
  atomic energy  EATOM  =    178577.25249613
  Solvation  Ediel_sol  =         0.00000000
  ---------------------------------------------------
  free energy    TOTEN  =     -1865.71369210 eV

  energy without entropy =    -1865.70311750  energy(sigma->0) =    -1865.70840480


--------------------------------------------------------------------------------------------------------




--------------------------------------- Iteration      1(   2)  ---------------------------------------


    POTLOK:  cpu time    0.2613: real time    0.2642
    SETDIJ:  cpu time    1.3921: real time    1.4075
     EDDAV:  cpu time  149.3939: real time  149.9619
       DOS:  cpu time    0.0031: real time    0.0031
    CHARGE:  cpu time    5.2455: real time    5.2713
    MIXING:  cpu time    0.0075: real time    0.0075
    --------------------------------------------
      LOOP:  cpu time  156.3034: real time  156.9155

 eigenvalue-minimisations  : 27696
 total energy-change (2. order) :-0.1845395E+03  (-0.5908176E+03)
 number of electron    1923.0000024 magnetization       1.0000000
 augmentation part      515.1877921 magnetization       0.3884891

 Broyden mixing:
  rms(total) = 0.16028E+02    rms(broyden)= 0.16024E+02
  rms(prec ) = 0.23688E+02
  weight for this iteration     100.00

 eigenvalues of (default mixing * dielectric matrix)
  average eigenvalue GAMMA=   0.3132
  0.3132

 Free energy of the ion-electron system (eV)
  ---------------------------------------------------
  alpha Z        PSCENC =      6118.73324990
  Ewald energy   TEWEN  =   -103775.26510093
  -Hartree energ DENC   =    -65087.04683980
  -exchange      EXHF   =         0.00000000
  -V(xc)+E(xc)   XCENC  =      8954.61621057
  PAW double counting   =    198827.84023808  -199780.32503442
  entropy T*S    EENTRO =        -0.00341420
  eigenvalues    EBANDS =    -25886.05499063
  atomic energy  EATOM  =    178577.25249613
  Solvation  Ediel_sol  =         0.00000000
  ---------------------------------------------------
  free energy    TOTEN  =     -2050.25318531 eV

  energy without entropy =    -2050.24977111  energy(sigma->0) =    -2050.25147821


--------------------------------------------------------------------------------------------------------




--------------------------------------- Iteration      1(   3)  ---------------------------------------


    POTLOK:  cpu time    0.2620: real time    0.2642
    SETDIJ:  cpu time    1.3857: real time    1.3867
     EDDAV:  cpu time  145.2323: real time  145.8547
       DOS:  cpu time    0.0018: real time    0.0018
    CHARGE:  cpu time    5.1535: real time    5.2633
    MIXING:  cpu time    0.0305: real time    0.0305
    --------------------------------------------
      LOOP:  cpu time  152.0657: real time  152.8011

 eigenvalue-minimisations  : 26904
 total energy-change (2. order) : 0.1288691E+03  (-0.1776778E+03)
 number of electron    1923.0000022 magnetization       1.0000000
 augmentation part      489.6299203 magnetization       0.6314267

 Broyden mixing:
  rms(total) = 0.71405E+01    rms(broyden)= 0.71377E+01
  rms(prec ) = 0.82324E+01
  weight for this iteration     100.00

 eigenvalues of (default mixing * dielectric matrix)
  average eigenvalue GAMMA=   0.4240
  0.4240  0.4240

 Free energy of the ion-electron system (eV)
  ---------------------------------------------------
  alpha Z        PSCENC =      6118.73324990
  Ewald energy   TEWEN  =   -103775.26510093
  -Hartree energ DENC   =    -65180.59739030
  -exchange      EXHF   =         0.00000000
  -V(xc)+E(xc)   XCENC  =      8956.43024163
  PAW double counting   =    199685.37162643  -200625.78534648
  entropy T*S    EENTRO =        -0.00000000
  eigenvalues    EBANDS =    -25677.52386214
  atomic energy  EATOM  =    178577.25249613
  Solvation  Ediel_sol  =         0.00000000
  ---------------------------------------------------
  free energy    TOTEN  =     -1921.38408576 eV

  energy without entropy =    -1921.38408576  energy(sigma->0) =    -1921.38408576


--------------------------------------------------------------------------------------------------------




--------------------------------------- Iteration      1(   4)  ---------------------------------------


    POTLOK:  cpu time    0.3726: real time    0.3891
    SETDIJ:  cpu time    1.4441: real time    1.4762
     EDDAV:  cpu time  136.9721: real time  138.0994
       DOS:  cpu time    0.0018: real time    0.0018
    CHARGE:  cpu time    5.2842: real time    5.2882
    MIXING:  cpu time    0.0074: real time    0.0074
    --------------------------------------------
      LOOP:  cpu time  144.0823: real time  145.2621

 eigenvalue-minimisations  : 24804
 total energy-change (2. order) : 0.8259333E+02  (-0.4505527E+02)
 number of electron    1923.0000022 magnetization       1.0000000
 augmentation part      492.4397576 magnetization       0.5856828

 Broyden mixing:
  rms(total) = 0.52147E+01    rms(broyden)= 0.52139E+01
  rms(prec ) = 0.60744E+01
  weight for this iteration     100.00

 eigenvalues of (default mixing * dielectric matrix)
  average eigenvalue GAMMA=   0.5748
  0.6736  0.6736  0.3773

 Free energy of the ion-electron system (eV)
  ---------------------------------------------------
  alpha Z        PSCENC =      6118.73324990
  Ewald energy   TEWEN  =   -103775.26510093
  -Hartree energ DENC   =    -65087.52221484
  -exchange      EXHF   =         0.00000000
  -V(xc)+E(xc)   XCENC  =      8963.52910235
  PAW double counting   =    199819.88794931  -200784.65396602
  entropy T*S    EENTRO =        -0.00000000
  eigenvalues    EBANDS =    -25670.75227110
  atomic energy  EATOM  =    178577.25249613
  Solvation  Ediel_sol  =         0.00000000
  ---------------------------------------------------
  free energy    TOTEN  =     -1838.79075519 eV

  energy without entropy =    -1838.79075519  energy(sigma->0) =    -1838.79075519


--------------------------------------------------------------------------------------------------------




--------------------------------------- Iteration      1(   5)  ---------------------------------------


    POTLOK:  cpu time    0.2613: real time    0.2637
    SETDIJ:  cpu time    1.3967: real time    1.3978
     EDDAV:  cpu time  144.6897: real time  145.8380
       DOS:  cpu time    0.0019: real time    0.0019
    CHARGE:  cpu time    5.1771: real time    5.2482
    MIXING:  cpu time    0.0175: real time    0.0175
    --------------------------------------------
      LOOP:  cpu time  151.5442: real time  152.7670

 eigenvalue-minimisations  : 26472
 total energy-change (2. order) : 0.5827460E+02  (-0.1877471E+02)
 number of electron    1923.0000022 magnetization       1.0000000
 augmentation part      492.7352748 magnetization       0.5748744

 Broyden mixing:
  rms(total) = 0.27115E+01    rms(broyden)= 0.27108E+01
  rms(prec ) = 0.31830E+01
  weight for this iteration     100.00

 eigenvalues of (default mixing * dielectric matrix)
  average eigenvalue GAMMA=   0.6603
  0.8672  0.8672  0.4266  0.4802

 Free energy of the ion-electron system (eV)
  ---------------------------------------------------
  alpha Z        PSCENC =      6118.73324990
  Ewald energy   TEWEN  =   -103775.26510093
  -Hartree energ DENC   =    -65120.68845949
  -exchange      EXHF   =         0.00000000
  -V(xc)+E(xc)   XCENC  =      8973.78763739
  PAW double counting   =    199216.58110051  -200206.12759973
  entropy T*S    EENTRO =        -0.00000000
  eigenvalues    EBANDS =    -25564.78948225
  atomic energy  EATOM  =    178577.25249613
  Solvation  Ediel_sol  =         0.00000000
  ---------------------------------------------------
  free energy    TOTEN  =     -1780.51615848 eV

  energy without entropy =    -1780.51615848  energy(sigma->0) =    -1780.51615848


--------------------------------------------------------------------------------------------------------




--------------------------------------- Iteration      1(   6)  ---------------------------------------


    POTLOK:  cpu time    0.2821: real time    0.2823
    SETDIJ:  cpu time    1.4135: real time    1.4144
     EDDAV:  cpu time  147.5719: real time  148.7666
       DOS:  cpu time    0.0020: real time    0.0020
    CHARGE:  cpu time    5.2634: real time    5.2671
    MIXING:  cpu time    0.0144: real time    0.0144
    --------------------------------------------
      LOOP:  cpu time  154.5473: real time  155.7469

 eigenvalue-minimisations  : 27384
 total energy-change (2. order) : 0.1638490E+02  (-0.6255375E+01)
 number of electron    1923.0000022 magnetization       1.0000000
 augmentation part      494.4962884 magnetization       0.5845272

 Broyden mixing:
  rms(total) = 0.17958E+01    rms(broyden)= 0.17956E+01
  rms(prec ) = 0.19785E+01
  weight for this iteration     100.00

 eigenvalues of (default mixing * dielectric matrix)
  average eigenvalue GAMMA=   0.6850
  0.9421  0.9421  0.3894  0.5757  0.5757

 Free energy of the ion-electron system (eV)
  ---------------------------------------------------
  alpha Z        PSCENC =      6118.73324990
  Ewald energy   TEWEN  =   -103775.26510093
  -Hartree energ DENC   =    -65015.86073126
  -exchange      EXHF   =         0.00000000
  -V(xc)+E(xc)   XCENC  =      8971.75086927
  PAW double counting   =    198664.95812356  -199663.97594180
  entropy T*S    EENTRO =        -0.00000000
  eigenvalues    EBANDS =    -25641.72422568
  atomic energy  EATOM  =    178577.25249613
  Solvation  Ediel_sol  =         0.00000000
  ---------------------------------------------------
  free energy    TOTEN  =     -1764.13126081 eV

  energy without entropy =    -1764.13126081  energy(sigma->0) =    -1764.13126081


--------------------------------------------------------------------------------------------------------




--------------------------------------- Iteration      1(   7)  ---------------------------------------


    POTLOK:  cpu time    0.2682: real time    0.2692
    SETDIJ:  cpu time    1.3929: real time    1.3933
     EDDAV:  cpu time  142.6753: real time  143.3955
       DOS:  cpu time    0.0020: real time    0.0020
    CHARGE:  cpu time    5.2376: real time    5.2514
    MIXING:  cpu time    0.0086: real time    0.0086
    --------------------------------------------
      LOOP:  cpu time  149.5848: real time  150.3201

 eigenvalue-minimisations  : 26100
 total energy-change (2. order) : 0.1726681E+01  (-0.1183524E+01)
 number of electron    1923.0000022 magnetization       1.0000000
 augmentation part      495.2816004 magnetization       0.5805360

 Broyden mixing:
  rms(total) = 0.13473E+01    rms(broyden)= 0.13468E+01
  rms(prec ) = 0.15126E+01
  weight for this iteration     100.00

 eigenvalues of (default mixing * dielectric matrix)
  average eigenvalue GAMMA=   0.8617
  1.4066  1.4066  0.6960  0.6960  0.4022  0.5630

 Free energy of the ion-electron system (eV)
  ---------------------------------------------------
  alpha Z        PSCENC =      6118.73324990
  Ewald energy   TEWEN  =   -103775.26510093
  -Hartree energ DENC   =    -64969.84248058
  -exchange      EXHF   =         0.00000000
  -V(xc)+E(xc)   XCENC  =      8969.86388648
  PAW double counting   =    198341.53702619  -199342.02377565
  entropy T*S    EENTRO =        -0.00000000
  eigenvalues    EBANDS =    -25682.65988183
  atomic energy  EATOM  =    178577.25249613
  Solvation  Ediel_sol  =         0.00000000
  ---------------------------------------------------
  free energy    TOTEN  =     -1762.40458028 eV

  energy without entropy =    -1762.40458028  energy(sigma->0) =    -1762.40458028


--------------------------------------------------------------------------------------------------------




--------------------------------------- Iteration      1(   8)  ---------------------------------------


    POTLOK:  cpu time    0.2606: real time    0.2628
    SETDIJ:  cpu time    1.3825: real time    1.3830
     EDDAV:  cpu time  147.1724: real time  147.9768
       DOS:  cpu time    0.0020: real time    0.0020
    CHARGE:  cpu time    5.2038: real time    5.2740
    MIXING:  cpu time    0.0383: real time    0.0383
    --------------------------------------------
      LOOP:  cpu time  154.0595: real time  154.9369

 eigenvalue-minimisations  : 27204
 total energy-change (2. order) : 0.1336359E+01  (-0.8383760E+00)
 number of electron    1923.0000022 magnetization       1.0000000
[...]
   81        1.574   3.455   0.000   5.029
   82        1.574   3.459   0.000   5.033
   83        1.574   3.459   0.000   5.033
   84        1.576   3.467   0.000   5.043
   85        1.575   3.461   0.000   5.036
   86        1.575   3.465   0.000   5.040
   87        1.576   3.461   0.000   5.036
   88        1.575   3.463   0.000   5.038
   89        1.574   3.459   0.000   5.034
   90        1.575   3.455   0.000   5.030
   91        1.574   3.458   0.000   5.032
   92        1.574   3.458   0.000   5.033
   93        1.577   3.462   0.000   5.039
   94        1.577   3.470   0.000   5.046
   95        1.576   3.466   0.000   5.042
   96        1.575   3.464   0.000   5.038
   97        1.575   3.465   0.000   5.039
   98        1.576   3.473   0.000   5.049
   99        1.571   3.465   0.000   5.035
  100        1.576   3.458   0.000   5.033
  101        1.574   3.455   0.000   5.029
  102        1.575   3.455   0.000   5.029
  103        1.576   3.455   0.000   5.031
  104        1.574   3.456   0.000   5.030
  105        1.578   3.470   0.000   5.047
  106        1.574   3.461   0.000   5.035
  107        1.575   3.460   0.000   5.034
  108        1.576   3.469   0.000   5.045
  109        1.575   3.462   0.000   5.036
  110        1.575   3.459   0.000   5.034
  111        1.576   3.470   0.000   5.046
  112        1.570   3.466   0.000   5.036
  113        1.576   3.473   0.000   5.049
  114        1.578   3.474   0.000   5.051
  115        1.567   3.474   0.000   5.041
  116        1.574   3.459   0.000   5.033
  117        1.575   3.460   0.000   5.035
  118        1.575   3.461   0.000   5.036
  119        1.576   3.469   0.000   5.046
  120        1.575   3.457   0.000   5.033
  121        1.575   3.460   0.000   5.034
  122        1.577   3.466   0.000   5.042
  123        1.577   3.471   0.000   5.048
  124        1.572   3.459   0.000   5.032
  125        1.575   3.472   0.000   5.047
  126        1.569   3.481   0.000   5.050
  127        1.574   3.453   0.000   5.028
  128        1.574   3.455   0.000   5.029
  129        1.576   3.467   0.000   5.044
  130        1.737   4.369   0.000   6.105
  131        1.737   4.370   0.000   6.107
  132        1.737   4.378   0.000   6.115
  133        1.738   4.382   0.000   6.120
  134        1.738   4.381   0.000   6.119
  135        1.736   4.366   0.000   6.102
  136        1.736   4.364   0.000   6.101
  137        1.738   4.379   0.000   6.117
  138        1.738   4.380   0.000   6.118
  139        1.737   4.387   0.000   6.125
  140        1.739   4.379   0.000   6.117
  141        1.738   4.380   0.000   6.118
  142        1.738   4.379   0.000   6.117
  143        1.738   4.385   0.000   6.123
  144        1.740   4.378   0.000   6.118
  145        1.738   4.379   0.000   6.117
  146        1.737   4.381   0.000   6.118
  147        1.737   4.368   0.000   6.105
  148        1.736   4.367   0.000   6.104
  149        1.737   4.384   0.000   6.121
  150        1.738   4.381   0.000   6.119
  151        1.738   4.373   0.000   6.111
  152        1.738   4.377   0.000   6.115
  153        1.737   4.380   0.000   6.117
  154        1.737   4.370   0.000   6.107
  155        1.737   4.369   0.000   6.106
  156        1.736   4.368   0.000   6.105
  157        1.737   4.366   0.000   6.103
  158        1.738   4.374   0.000   6.112
  159        1.738   4.374   0.000   6.112
  160        1.736   4.364   0.000   6.100
  161        1.736   4.365   0.000   6.101
  162        1.736   4.369   0.000   6.105
  163        1.736   4.367   0.000   6.103
  164        1.738   4.372   0.000   6.111
  165        1.736   4.367   0.000   6.103
  166        1.736   4.367   0.000   6.103
  167        1.737   4.368   0.000   6.105
  168        1.737   4.370   0.000   6.107
  169        1.738   4.371   0.000   6.108
  170        1.737   4.370   0.000   6.107
  171        1.737   4.369   0.000   6.106
  172        1.737   4.382   0.000   6.120
  173        1.737   4.365   0.000   6.102
  174        1.737   4.368   0.000   6.105
  175        1.738   4.378   0.000   6.116
  176        1.736   4.362   0.000   6.098
  177        1.738   4.381   0.000   6.119
  178        1.737   4.367   0.000   6.103
  179        1.738   4.371   0.000   6.109
  180        1.738   4.375   0.000   6.113
  181        1.736   4.368   0.000   6.104
  182        1.738   4.375   0.000   6.112
  183        1.737   4.368   0.000   6.105
  184        1.737   4.374   0.000   6.112
  185        1.737   4.380   0.000   6.117
  186        1.737   4.375   0.000   6.112
  187        1.737   4.371   0.000   6.108
  188        1.738   4.376   0.000   6.114
  189        1.738   4.378   0.000   6.116
  190        1.738   4.379   0.000   6.117
  191        1.738   4.383   0.000   6.121
  192        1.737   4.368   0.000   6.105
  193        1.738   4.381   0.000   6.119
  194        1.736   4.366   0.000   6.103
  195        1.737   4.368   0.000   6.105
  196        1.737   4.378   0.000   6.115
  197        1.737   4.368   0.000   6.105
  198        1.737   4.382   0.000   6.120
  199        1.737   4.374   0.000   6.111
  200        1.738   4.379   0.000   6.117
  201        1.738   4.374   0.000   6.111
  202        1.738   4.373   0.000   6.110
  203        1.738   4.379   0.000   6.116
  204        1.738   4.372   0.000   6.110
  205        1.737   4.375   0.000   6.112
  206        1.737   4.365   0.000   6.102
  207        1.737   4.368   0.000   6.105
  208        1.737   4.381   0.000   6.118
  209        1.737   4.376   0.000   6.113
  210        1.737   4.367   0.000   6.103
  211        1.737   4.371   0.000   6.108
  212        1.737   4.368   0.000   6.104
  213        1.739   4.369   0.000   6.108
  214        1.736   4.366   0.000   6.103
  215        1.738   4.374   0.000   6.112
  216        1.736   4.365   0.000   6.101
  217        1.737   4.364   0.000   6.101
  218        1.736   4.371   0.000   6.107
  219        1.738   4.377   0.000   6.115
  220        1.738   4.379   0.000   6.117
  221        1.738   4.376   0.000   6.114
  222        1.738   4.378   0.000   6.116
  223        1.737   4.377   0.000   6.114
  224        1.737   4.371   0.000   6.108
  225        1.737   4.375   0.000   6.113
  226        1.738   4.377   0.000   6.115
  227        1.737   4.378   0.000   6.115
  228        1.737   4.376   0.000   6.114
  229        1.737   4.378   0.000   6.115
  230        1.736   4.365   0.000   6.101
  231        1.738   4.376   0.000   6.113
  232        1.736   4.364   0.000   6.100
  233        1.738   4.380   0.000   6.117
  234        1.736   4.364   0.000   6.101
  235        1.736   4.363   0.000   6.099
  236        1.738   4.384   0.000   6.122
  237        1.739   4.381   0.000   6.120
  238        1.737   4.372   0.000   6.109
  239        1.738   4.375   0.000   6.114
  240        1.737   4.379   0.000   6.116
  241        1.738   4.375   0.000   6.113
  242        1.738   4.382   0.000   6.120
  243        1.738   4.382   0.000   6.120
  244        1.738   4.376   0.000   6.114
  245        1.738   4.378   0.000   6.116
  246        1.738   4.377   0.000   6.115
  247        1.738   4.380   0.000   6.118
  248        1.737   4.369   0.000   6.106
  249        1.737   4.383   0.000   6.120
  250        1.737   4.367   0.000   6.104
  251        1.738   4.377   0.000   6.116
  252        1.737   4.379   0.000   6.116
  253        1.738   4.377   0.000   6.115
  254        1.739   4.380   0.000   6.119
  255        1.737   4.373   0.000   6.110
  256        1.738   4.384   0.000   6.121
  257        1.737   4.377   0.000   6.114
--------------------------------------------------
tot        345.2941194.329 111.7501651.373
 


 magnetization (x)
 
# of ion       s       p       d       tot
------------------------------------------
    1        0.000   0.000   0.000   0.000
    2        0.000  -0.000   0.000   0.000
    3        0.000   0.000   0.000   0.000
    4       -0.000  -0.000  -0.000  -0.000
    5       -0.000  -0.000  -0.000  -0.000
    6       -0.000  -0.000   0.000   0.000
    7        0.005   0.006   0.925   0.936
    8        0.000  -0.000   0.000   0.000
    9       -0.000  -0.000  -0.000  -0.000
   10        0.000  -0.000   0.000   0.000
   11        0.000   0.000   0.000   0.000
   12       -0.000  -0.000  -0.000  -0.000
   13       -0.000  -0.000   0.000   0.000
   14       -0.000  -0.000   0.006   0.006
   15       -0.000  -0.000   0.006   0.006
   16       -0.000  -0.000  -0.000  -0.000
   17       -0.000  -0.000   0.000   0.000
   18       -0.000  -0.000   0.000   0.000
   19       -0.000   0.000  -0.000  -0.000
   20       -0.000  -0.000  -0.000  -0.000
   21       -0.000  -0.000  -0.000  -0.000
   22        0.000   0.000   0.000   0.000
   23       -0.000  -0.000  -0.003  -0.003
   24       -0.000  -0.000   0.000   0.000
   25       -0.000  -0.000   0.000  -0.000
   26       -0.000  -0.000  -0.000  -0.000
   27        0.000   0.000   0.000   0.000
   28        0.000  -0.000   0.000   0.000
   29       -0.000  -0.000  -0.000  -0.000
   30       -0.000  -0.000   0.000   0.000
   31       -0.000  -0.000  -0.000  -0.000
   32       -0.000  -0.000   0.000   0.000
   33       -0.000  -0.000   0.000   0.000
   34        0.000   0.000   0.000   0.000
   35        0.000   0.000   0.005   0.005
   36       -0.000  -0.000  -0.000  -0.000
   37        0.000  -0.000  -0.000  -0.000
   38       -0.000  -0.000   0.000   0.000
   39       -0.000   0.000   0.005   0.005
   40       -0.000  -0.000  -0.000  -0.000
   41        0.000   0.000  -0.000  -0.000
   42        0.000   0.000   0.000   0.000
   43        0.000   0.000   0.002   0.002
   44       -0.000  -0.000  -0.000  -0.000
   45       -0.000  -0.000  -0.000  -0.000
   46        0.000   0.000   0.003   0.003
   47        0.000   0.000   0.000   0.000
   48       -0.000  -0.000  -0.000  -0.000
   49       -0.000  -0.000   0.000   0.000
   50       -0.000  -0.000  -0.000  -0.000
   51       -0.000   0.000   0.000   0.000
   52       -0.000  -0.000  -0.000  -0.000
   53       -0.000  -0.000  -0.000  -0.000
   54        0.000   0.000   0.000   0.000
   55       -0.000  -0.000  -0.000  -0.000
   56       -0.000  -0.000  -0.000  -0.000
   57       -0.000  -0.000   0.000   0.000
   58       -0.000  -0.000  -0.000  -0.000
   59       -0.000  -0.000   0.000   0.000
   60        0.000   0.000   0.000   0.000
   61       -0.000  -0.000   0.000  -0.000
   62       -0.000  -0.000   0.000  -0.000
   63       -0.000  -0.000  -0.000  -0.000
   64       -0.000  -0.000   0.000   0.000
   65       -0.000  -0.000   0.000   0.000
   66        0.000  -0.000   0.000  -0.000
   67       -0.000  -0.000   0.000  -0.000
   68        0.000   0.000   0.000   0.000
   69        0.000   0.000   0.000   0.000
   70       -0.000  -0.000   0.000  -0.000
   71        0.000  -0.000   0.000  -0.000
   72        0.000   0.000   0.000   0.000
   73       -0.000  -0.000   0.000  -0.000
   74       -0.000   0.000   0.000   0.000
   75        0.000   0.000   0.000   0.000
   76       -0.000  -0.001   0.000  -0.001
   77        0.000   0.000   0.000   0.000
   78        0.000   0.000   0.000   0.000
   79        0.000   0.000   0.000   0.000
   80       -0.000  -0.001   0.000  -0.001
   81        0.000  -0.000   0.000  -0.000
   82        0.000   0.000   0.000   0.000
   83       -0.000  -0.000   0.000  -0.000
   84       -0.000  -0.000   0.000  -0.000
   85       -0.000  -0.000   0.000  -0.000
   86        0.000   0.000   0.000   0.000
   87       -0.000  -0.000   0.000  -0.000
   88        0.000   0.000   0.000   0.000
   89        0.000   0.000   0.000   0.000
   90        0.000   0.000   0.000   0.000
   91        0.000   0.000   0.000   0.000
   92       -0.000  -0.001   0.000  -0.001
   93        0.000  -0.000   0.000  -0.000
   94       -0.000  -0.000   0.000  -0.000
   95       -0.000  -0.000   0.000  -0.000
   96       -0.000  -0.000   0.000  -0.000
   97       -0.000  -0.000   0.000  -0.000
   98       -0.000  -0.000   0.000  -0.000
   99       -0.000  -0.000   0.000  -0.000
  100        0.000  -0.000   0.000  -0.000
  101       -0.000  -0.000   0.000  -0.000
  102        0.000   0.000   0.000   0.000
  103       -0.000   0.000   0.000   0.000
  104       -0.000  -0.000   0.000  -0.000
  105       -0.000  -0.001   0.000  -0.001
  106        0.000   0.000   0.000   0.000
  107        0.000   0.000   0.000   0.000
  108        0.000   0.000   0.000   0.000
  109        0.000   0.000   0.000   0.000
  110       -0.000  -0.000   0.000  -0.000
  111       -0.000  -0.000   0.000  -0.000
  112       -0.001  -0.016   0.000  -0.017
  113       -0.000  -0.000   0.000  -0.000
  114       -0.000  -0.000   0.000  -0.000
  115       -0.000  -0.000   0.000  -0.000
  116       -0.000  -0.000   0.000  -0.000
  117        0.000   0.000   0.000   0.000
  118        0.000   0.000   0.000   0.000
  119       -0.000  -0.000   0.000  -0.000
  120       -0.000  -0.000   0.000  -0.000
  121       -0.000  -0.000   0.000  -0.000
  122        0.000   0.000   0.000   0.000
  123        0.000   0.000   0.000   0.000
  124       -0.000  -0.000   0.000  -0.000
  125        0.000  -0.000   0.000  -0.000
  126       -0.000  -0.000   0.000  -0.000
  127       -0.000  -0.000   0.000  -0.000
  128       -0.000  -0.000   0.000  -0.000
  129        0.000   0.000   0.000   0.000
  130        0.000   0.000   0.000   0.000
  131       -0.000  -0.000   0.000  -0.000
  132        0.000   0.000   0.000   0.000
  133       -0.000  -0.000   0.000  -0.000
  134       -0.000   0.003   0.000   0.003
  135        0.000   0.000   0.000   0.000
  136       -0.000  -0.000   0.000  -0.000
  137        0.000   0.000   0.000   0.000
  138        0.000   0.000   0.000   0.000
  139       -0.000   0.002   0.000   0.002
  140       -0.000  -0.000   0.000  -0.000
  141        0.000   0.000   0.000   0.000
  142       -0.000  -0.000   0.000  -0.000
  143        0.000  -0.000   0.000  -0.000
  144        0.000  -0.000   0.000  -0.000
  145       -0.000  -0.000   0.000  -0.000
  146       -0.000   0.000   0.000   0.000
  147       -0.000  -0.000   0.000  -0.000
  148        0.000   0.000   0.000   0.000
  149        0.000   0.000   0.000   0.000
  150       -0.000  -0.000   0.000  -0.000
  151       -0.000  -0.000   0.000  -0.000
  152       -0.000  -0.000   0.000  -0.000
  153        0.000   0.000   0.000   0.000
  154       -0.000   0.000   0.000   0.000
  155        0.000   0.000   0.000   0.000
  156        0.000   0.000   0.000   0.000
  157       -0.000   0.000   0.000   0.000
  158        0.000   0.000   0.000   0.000
  159        0.000   0.000   0.000   0.000
  160        0.000   0.000   0.000   0.000
  161        0.000   0.000   0.000   0.000
  162       -0.000  -0.000   0.000  -0.000
  163       -0.000  -0.000   0.000  -0.000
  164       -0.000   0.000   0.000   0.000
  165        0.000  -0.000   0.000  -0.000
  166        0.000   0.000   0.000   0.000
  167       -0.000  -0.000   0.000  -0.000
  168        0.000   0.000   0.000   0.000
  169       -0.000   0.000   0.000   0.000
  170       -0.000  -0.000   0.000  -0.000
  171        0.000  -0.000   0.000  -0.000
  172        0.000  -0.000   0.000  -0.000
  173       -0.000  -0.000   0.000  -0.000
  174       -0.000  -0.000   0.000  -0.000
  175       -0.000   0.002   0.000   0.002
  176       -0.000  -0.000   0.000  -0.000
  177       -0.000  -0.000   0.000  -0.000
  178        0.000   0.000   0.000   0.000
  179        0.000   0.000   0.000   0.000
  180        0.000   0.000   0.000   0.000
  181       -0.000  -0.000   0.000  -0.000
  182        0.000   0.000   0.000   0.000
  183        0.000   0.000   0.000   0.000
  184       -0.000  -0.000   0.000  -0.000
  185        0.000   0.000   0.000   0.000
  186       -0.000  -0.000   0.000  -0.000
  187       -0.000   0.000   0.000   0.000
  188        0.000   0.000   0.000   0.000
  189        0.000  -0.000   0.000  -0.000
  190       -0.000  -0.000   0.000  -0.000
  191       -0.000   0.002   0.000   0.002
  192        0.000   0.000   0.000   0.000
  193        0.000  -0.000   0.000  -0.000
  194        0.000   0.000   0.000   0.000
  195        0.000   0.000   0.000   0.000
  196        0.000   0.000   0.000   0.000
  197       -0.000   0.000   0.000   0.000
  198        0.000   0.000   0.000   0.000
  199       -0.000  -0.000   0.000  -0.000
  200        0.000   0.000   0.000   0.000
  201       -0.000  -0.000   0.000  -0.000
  202        0.000  -0.000   0.000  -0.000
  203        0.000   0.000   0.000   0.000
  204       -0.000  -0.000   0.000  -0.000
  205       -0.000  -0.000   0.000  -0.000
  206        0.000  -0.000   0.000  -0.000
  207       -0.000  -0.000   0.000  -0.000
  208       -0.000  -0.000   0.000  -0.000
  209        0.000  -0.000   0.000  -0.000
  210        0.000  -0.000   0.000  -0.000
  211       -0.000  -0.000   0.000  -0.000
  212        0.000   0.000   0.000   0.000
  213       -0.000  -0.000   0.000  -0.000
  214        0.000   0.000   0.000   0.000
  215       -0.000   0.000   0.000   0.000
  216       -0.000  -0.000   0.000  -0.000
  217        0.000  -0.000   0.000  -0.000
  218       -0.000  -0.000   0.000  -0.000
  219       -0.000  -0.000   0.000  -0.000
  220       -0.000  -0.000   0.000  -0.000
  221        0.000   0.000   0.000   0.000
  222       -0.000  -0.000   0.000  -0.000
  223       -0.000   0.000   0.000   0.000
  224       -0.000  -0.000   0.000  -0.000
  225       -0.000  -0.005   0.000  -0.005
  226        0.000  -0.000   0.000   0.000
  227       -0.000  -0.000   0.000  -0.000
  228       -0.000  -0.000   0.000  -0.000
  229       -0.000  -0.000   0.000  -0.000
  230       -0.000  -0.000   0.000  -0.000
  231       -0.000  -0.000   0.000  -0.000
  232       -0.000  -0.000   0.000  -0.000
  233        0.000  -0.000   0.000  -0.000
  234       -0.000  -0.000   0.000  -0.000
  235       -0.000  -0.000   0.000  -0.000
  236        0.000  -0.000   0.000  -0.000
  237        0.000   0.000   0.000   0.000
  238       -0.000  -0.000   0.000  -0.000
  239       -0.000  -0.000   0.000  -0.000
  240       -0.000  -0.000   0.000  -0.000
  241       -0.000  -0.000   0.000  -0.000
  242       -0.000  -0.000   0.000  -0.000
  243        0.000   0.000   0.000   0.000
  244        0.000   0.000   0.000   0.000
  245        0.000   0.000   0.000   0.000
  246       -0.000  -0.000   0.000  -0.000
  247        0.000   0.000   0.000   0.000
  248       -0.000  -0.000   0.000  -0.000
  249       -0.000  -0.000   0.000  -0.000
  250       -0.000  -0.000   0.000  -0.000
  251        0.000  -0.000   0.000  -0.000
  252       -0.000  -0.000   0.000  -0.000
  253       -0.000  -0.000   0.000  -0.000
  254       -0.000  -0.000   0.000  -0.000
  255       -0.000  -0.000   0.000  -0.000
  256       -0.000  -0.000   0.000  -0.000
  257       -0.000  -0.000   0.000  -0.000
--------------------------------------------------
tot          0.002  -0.011   0.949   0.941
 

 total amount of memory used by VASP MPI-rank0   291490. kBytes
=======================================================================

   base      :      30000. kBytes
   nonlr-proj:      49455. kBytes
   fftplans  :      27976. kBytes
   grid      :      34041. kBytes
   one-center:       1026. kBytes
   wavefun   :     148992. kBytes
 
  
  
 General timing and accounting informations for this job:
 ========================================================
  
                  Total CPU time used (sec):     4364.717
                            User time (sec):     3963.486
                          System time (sec):      401.231
                         Elapsed time (sec):     4408.425
  
                   Maximum memory used (kb):      626696.
                   Average memory used (kb):           0.
  
                          Minor page faults:       405485
                          Major page faults:            3
                 Voluntary context switches:        30418
