 vasp.5.4.4.18Apr17-6-g9f103f2a35 (build Apr 30 2017 20:10:35) complex          
  
 executed on             LinuxIFC date 2017.08.08  22:21:25
 running on   64 total cores
 distrk:  each k-point on   64 cores,    1 groups
 distr:  one band on NCORES_PER_BAND=   8 cores,    8 groups


--------------------------------------------------------------------------------------------------------


 INCAR:
 POTCAR:   PAW_PBE Ti_pv 07Sep2000                
 POTCAR:   PAW_PBE O 08Apr2002                    
 POTCAR:    PAW_PBE F 08Apr2002                   
 POTCAR:   PAW_PBE Ti_pv 07Sep2000                
   VRHFIN =Ti: d3 s1                                                            
   LEXCH  = PE                                                                  
   EATOM  =  1042.3781 eV,   76.6126 Ry                                         
                                                                                
   TITEL  = PAW_PBE Ti_pv 07Sep2000                                             
   LULTRA =        F    use ultrasoft PP ?                                      
   IUNSCR =        1    unscreen: 0-lin 1-nonlin 2-no                           
   RPACOR =    2.200    partial core radius                                     
   POMASS =   47.880; ZVAL   =   10.000    mass and valenz                      
   RCORE  =    2.500    outmost cutoff radius                                   
   RWIGS  =    2.500; RWIGS  =    1.323    wigner-seitz radius (au A)           
   ENMAX  =  222.338; ENMIN  =  166.753 eV                                      
   RCLOC  =    1.701    cutoff for local pot                                    
   LCOR   =        T    correct aug charges                                     
   LPAW   =        T    paw PP                                                  
   EAUG   =  482.848                                                            
   DEXC   =    -.008                                                            
   RMAX   =    3.092    core radius for proj-oper                               
   RAUG   =    1.300    factor for augmentation sphere                          
   RDEP   =    2.538    radius for radial grids                                 
   QCUT   =   -4.042; QGAM   =    8.085    optimization parameters              
                                                                                
   Description                                                                  
     l     E      TYP  RCUT    TYP  RCUT                                        
     1   .000     23  2.300                                                     
     1  -.100     23  2.300                                                     
     2   .000     23  2.500                                                     
     2   .000     23  2.500                                                     
     0   .000     23  2.500                                                     
     0  1.500     23  2.500                                                     
     3   .000      7   .000                                                     
  local pseudopotential read in
  partial core-charges read in
  atomic valenz-charges read in
  non local Contribution for L=           1  read in
    real space projection operators read in
  non local Contribution for L=           1  read in
    real space projection operators read in
  non local Contribution for L=           2  read in
    real space projection operators read in
  non local Contribution for L=           2  read in
    real space projection operators read in
  non local Contribution for L=           0  read in
    real space projection operators read in
  non local Contribution for L=           0  read in
    real space projection operators read in
    PAW grid and wavefunctions read in
 
   number of l-projection  operators is LMAX  =           6
   number of lm-projection operators is LMMAX =          18
 
 POTCAR:   PAW_PBE O 08Apr2002                    
   VRHFIN =O: s2p4                                                              
   LEXCH  = PE                                                                  
   EATOM  =   432.3788 eV,   31.7789 Ry                                         
                                                                                
   TITEL  = PAW_PBE O 08Apr2002                                                 
   LULTRA =        F    use ultrasoft PP ?                                      
   IUNSCR =        0    unscreen: 0-lin 1-nonlin 2-no                           
   RPACOR =     .000    partial core radius                                     
   POMASS =   16.000; ZVAL   =    6.000    mass and valenz                      
   RCORE  =    1.520    outmost cutoff radius                                   
   RWIGS  =    1.550; RWIGS  =     .820    wigner-seitz radius (au A)           
   ENMAX  =  400.000; ENMIN  =  300.000 eV                                      
   ICORE  =        2    local potential                                         
   LCOR   =        T    correct aug charges                                     
   LPAW   =        T    paw PP                                                  
   EAUG   =  605.392                                                            
   DEXC   =     .000                                                            
   RMAX   =    2.264    core radius for proj-oper                               
   RAUG   =    1.300    factor for augmentation sphere                          
   RDEP   =    1.550    radius for radial grids                                 
   QCUT   =   -5.520; QGAM   =   11.041    optimization parameters              
                                                                                
   Description                                                                  
     l     E      TYP  RCUT    TYP  RCUT                                        
     0   .000     23  1.200                                                     
     0  -.700     23  1.200                                                     
     1   .000     23  1.520                                                     
     1   .600     23  1.520                                                     
     2   .000      7  1.500                                                     
  local pseudopotential read in
  atomic valenz-charges read in
  non local Contribution for L=           0  read in
    real space projection operators read in
  non local Contribution for L=           0  read in
    real space projection operators read in
  non local Contribution for L=           1  read in
    real space projection operators read in
  non local Contribution for L=           1  read in
    real space projection operators read in
    PAW grid and wavefunctions read in
 
   number of l-projection  operators is LMAX  =           4
   number of lm-projection operators is LMMAX =           8
 
 POTCAR:    PAW_PBE F 08Apr2002                   
   VRHFIN =F: s2p5                                                              
   LEXCH  = PE                                                                  
   EATOM  =   659.6475 eV,   48.4827 Ry                                         
                                                                                
   TITEL  = PAW_PBE F 08Apr2002                                                 
   LULTRA =        F    use ultrasoft PP ?                                      
   IUNSCR =        1    unscreen: 0-lin 1-nonlin 2-no                           
   RPACOR =    1.200    partial core radius                                     
   POMASS =   18.998; ZVAL   =    7.000    mass and valenz                      
   RCORE  =    1.520    outmost cutoff radius                                   
   RWIGS  =    1.500; RWIGS  =    0.794    wigner-seitz radius (au A)           
   ENMAX  =  400.000; ENMIN  =  300.000 eV                                      
   ICORE  =        2    local potential                                         
   LCOR   =        T    correct aug charges                                     
   LPAW   =        T    paw PP                                                  
   EAUG   =  613.614                                                            
   RMAX   =    1.555    core radius for proj-oper                               
   RAUG   =    1.300    factor for augmentation sphere                          
   RDEP   =    1.539    radius for radial grids                                 
   RDEPT  =    1.299    core radius for aug-charge                              
                                                                                
   Atomic configuration                                                         
    4 entries                                                                   
     n  l   j            E        occ.                                          
     1  0  0.50      -663.3661   2.0000                                         
     2  0  0.50       -29.8995   2.0000                                         
     2  1  0.50       -11.1114   5.0000                                         
     3  2  1.50       -10.8847   0.0000                                         
   Description                                                                  
     l       E           TYP  RCUT    TYP  RCUT                                 
     0    -29.8995018     23  1.200                                             
     0     -9.5240782     23  1.200                                             
     1    -11.1113914     23  1.520                                             
     1      1.3605826     23  1.520                                             
     2    -10.8846608      7  1.500                                             
  local pseudopotential read in
  partial core-charges read in
  partial kinetic energy density read in
  atomic valenz-charges read in
  non local Contribution for L=           0  read in
    real space projection operators read in
  non local Contribution for L=           0  read in
    real space projection operators read in
  non local Contribution for L=           1  read in
    real space projection operators read in
  non local Contribution for L=           1  read in
    real space projection operators read in
    PAW grid and wavefunctions read in
 
   number of l-projection  operators is LMAX  =           4
   number of lm-projection operators is LMMAX =           8
 
 Optimization of the real space projectors (new method)

 maximal supplied QI-value         = 15.12
 optimisation between [QCUT,QGAM] = [ 13.45, 27.06] = [ 50.69,205.06] Ry 
 Optimized for a Real-space Cutoff    1.49 Angstroem

   l    n(q)    QCUT    max X(q) W(low)/X(q) W(high)/X(q)  e(spline) 
   1     12    13.455     4.841    0.13E-05    0.83E-06    0.56E-07
   1     12    13.455     5.701    0.32E-04    0.25E-04    0.17E-06
   2     11    13.455     4.569    0.64E-05    0.34E-05    0.50E-07
   2     11    13.455    32.276    0.49E-04    0.38E-04    0.46E-06
   0     12    13.455    30.046    0.17E-04    0.41E-05    0.51E-07
   0     12    13.455    45.433    0.12E-04    0.27E-04    0.38E-06
 Optimization of the real space projectors (new method)

 maximal supplied QI-value         = 24.76
 optimisation between [QCUT,QGAM] = [ 13.37, 26.98] = [ 50.04,203.89] Ry 
 Optimized for a Real-space Cutoff    1.17 Angstroem

   l    n(q)    QCUT    max X(q) W(low)/X(q) W(high)/X(q)  e(spline) 
   0      9    13.368     4.192    0.20E-04    0.58E-05    0.56E-07
   0      9    13.368     8.473    0.60E-04    0.52E-04    0.21E-06
   1      9    13.368     2.474    0.22E-04    0.17E-04    0.28E-07
   1      9    13.368     3.912    0.94E-04    0.97E-04    0.20E-06
 Optimization of the real space projectors (new method)

 maximal supplied QI-value         = 24.76
 optimisation between [QCUT,QGAM] = [ 13.37, 26.98] = [ 50.04,203.89] Ry 
 Optimized for a Real-space Cutoff    1.17 Angstroem

   l    n(q)    QCUT    max X(q) W(low)/X(q) W(high)/X(q)  e(spline) 
   0      9    13.368    14.049    0.39E-04    0.34E-04    0.16E-06
   0      9    13.368     8.945    0.54E-04    0.47E-04    0.20E-06
   1      9    13.368     7.086    0.99E-04    0.10E-03    0.23E-06
   1      9    13.368     6.747    0.86E-04    0.89E-04    0.21E-06

 ----------------------------------------------------------------------------- 
|                                                                             |
|  ADVICE TO THIS USER RUNNING 'VASP/VAMP'   (HEAR YOUR MASTER'S VOICE ...):  |
|                                                                             |
|      You enforced a specific xc-type in the INCAR file,                     |
|      a different type was found on the POTCAR file                          |
|          I HOPE YOU KNOW, WHAT YOU ARE  DOING                               |
|                                                                             |
 ----------------------------------------------------------------------------- 

 PAW_PBE Ti_pv 07Sep2000                :
 energy of atom  1       EATOM=-1042.3781
 kinetic energy error for atom=    0.0006 (will be added to EATOM!!)
 PAW_PBE O 08Apr2002                    :
 energy of atom  2       EATOM= -432.3788
 kinetic energy error for atom=    0.0091 (will be added to EATOM!!)
  PAW_PBE F 08Apr2002                   :
 energy of atom  3       EATOM= -659.6475
 kinetic energy error for atom=    0.0140 (will be added to EATOM!!)
 
 
 POSCAR: TiOF2 2x2x2 config 0003                 
  positions in direct lattice
  velocities in cartesian coordinates
 exchange correlation table for  LEXCH =       14
   RHO(1)=    0.500       N(1)  =     2000
   RHO(2)=  100.500       N(2)  =     4000

 VTST: version 3.1, (03/28/14)

 CHAIN: initializing optimizer
 
 OPT: Using VASP QUASI-newton optimizer
 CHAIN: Read ICHAIN            0
 
 POSCAR: TiOF2 2x2x2 config 0003                 
  positions in direct lattice
  velocities in cartesian coordinates
 


--------------------------------------------------------------------------------------------------------


 ion  position               nearest neighbor table
   1  0.000  0.000  1.000-  32 1.84  31 1.84  17 1.88  21 1.88  25 1.89  27 1.90
   2  1.000  0.000  0.500-  22 1.93  18 1.93  31 1.94  32 1.94  26 1.97  28 1.97
   3  1.000  0.500  0.000-  11 1.87  12 1.87  23 1.95  19 1.95  25 2.02  27 2.02
   4  0.000  0.500  0.500-  12 1.91  11 1.91  26 1.94  28 1.94  20 1.95  24 1.95
   5  0.500  0.988  1.000-   9 1.85  14 1.88  13 1.88  29 2.04  17 2.08  21 2.08
   6  0.500  0.989  0.500-  10 1.86  14 1.90  13 1.90  18 2.03  22 2.03  30 2.04
   7  0.500  0.510  0.000-  15 1.89  16 1.89   9 1.89  19 2.02  23 2.02  29 2.05
   8  0.500  0.510  0.500-  10 1.89  16 1.89  15 1.89  24 2.01  20 2.01  30 2.04
   9  0.500  0.751  1.000-   5 1.85   7 1.89
  10  0.500  0.751  0.500-   6 1.86   8 1.89
  11  1.000  0.501  0.248-   3 1.87   4 1.91
  12  1.000  0.501  0.752-   3 1.87   4 1.91
  13  0.500  1.000  0.249-   5 1.88   6 1.90
  14  0.500  1.000  0.751-   5 1.88   6 1.90
  15  0.500  0.501  0.250-   7 1.89   8 1.89
  16  0.500  0.501  0.750-   7 1.89   8 1.89
  17  0.238  0.002  0.000-   1 1.88   5 2.08
  18  0.244  0.003  0.500-   2 1.93   6 2.03
  19  0.246  0.497  1.000-   3 1.95   7 2.02
  20  0.246  0.497  0.500-   4 1.95   8 2.01
  21  0.762  0.002  0.000-   1 1.88   5 2.08
  22  0.756  0.003  0.500-   2 1.93   6 2.03
  23  0.754  0.497  1.000-   3 1.95   7 2.02
  24  0.754  0.497  0.500-   4 1.95   8 2.01
  25  1.000  0.242  1.000-   1 1.89   3 2.02
  26  1.000  0.252  0.500-   4 1.94   2 1.97
  27  0.000  0.758  0.000-   1 1.90   3 2.02
  28  0.000  0.748  0.500-   4 1.94   2 1.97
  29  0.500  0.248  0.000-   5 2.04   7 2.05
  30  0.500  0.249  0.500-   6 2.04   8 2.04
  31  0.000  1.000  0.243-   1 1.84   2 1.94
  32  0.000  1.000  0.757-   1 1.84   2 1.94
 

IMPORTANT INFORMATION: All symmetrisations will be switched off!
NOSYMM: (Re-)initialisation of all symmetry stuff for point group C_1.

 
 
 KPOINTS: Title                                   

Automatic generation of k-mesh.
Space group operators:
 irot       det(A)        alpha          n_x          n_y          n_z        tau_x        tau_y        tau_z
    1     1.000000     0.000000     1.000000     0.000000     0.000000     0.000000     0.000000     0.000000
 
 Subroutine IBZKPT returns following result:
 ===========================================
 
 Found     32 irreducible k-points:
 
 Following reciprocal coordinates:
            Coordinates               Weight
  0.125000  0.125000  0.125000      2.000000
  0.375000  0.125000  0.125000      2.000000
 -0.375000  0.125000  0.125000      2.000000
 -0.125000  0.125000  0.125000      2.000000
  0.125000  0.375000  0.125000      2.000000
  0.375000  0.375000  0.125000      2.000000
 -0.375000  0.375000  0.125000      2.000000
 -0.125000  0.375000  0.125000      2.000000
  0.125000 -0.375000  0.125000      2.000000
  0.375000 -0.375000  0.125000      2.000000
 -0.375000 -0.375000  0.125000      2.000000
 -0.125000 -0.375000  0.125000      2.000000
  0.125000 -0.125000  0.125000      2.000000
  0.375000 -0.125000  0.125000      2.000000
 -0.375000 -0.125000  0.125000      2.000000
 -0.125000 -0.125000  0.125000      2.000000
  0.125000  0.125000  0.375000      2.000000
  0.375000  0.125000  0.375000      2.000000
 -0.375000  0.125000  0.375000      2.000000
 -0.125000  0.125000  0.375000      2.000000
  0.125000  0.375000  0.375000      2.000000
  0.375000  0.375000  0.375000      2.000000
 -0.375000  0.375000  0.375000      2.000000
 -0.125000  0.375000  0.375000      2.000000
  0.125000 -0.375000  0.375000      2.000000
  0.375000 -0.375000  0.375000      2.000000
 -0.375000 -0.375000  0.375000      2.000000
 -0.125000 -0.375000  0.375000      2.000000
  0.125000 -0.125000  0.375000      2.000000
  0.375000 -0.125000  0.375000      2.000000
 -0.375000 -0.125000  0.375000      2.000000
 -0.125000 -0.125000  0.375000      2.000000
 
 Following cartesian coordinates:
            Coordinates               Weight
  0.015784  0.015973  0.016545      2.000000
  0.047351  0.015974  0.016545      2.000000
 -0.047350  0.015972  0.016545      2.000000
 -0.015783  0.015973  0.016545      2.000000
  0.015785  0.047919  0.016545      2.000000
  0.047352  0.047920  0.016545      2.000000
 -0.047349  0.047918  0.016545      2.000000
 -0.015782  0.047919  0.016545      2.000000
  0.015782 -0.047919  0.016545      2.000000
  0.047349 -0.047918  0.016545      2.000000
 -0.047352 -0.047920  0.016545      2.000000
 -0.015785 -0.047919  0.016545      2.000000
  0.015783 -0.015973  0.016545      2.000000
  0.047350 -0.015972  0.016545      2.000000
 -0.047351 -0.015974  0.016545      2.000000
 -0.015784 -0.015973  0.016545      2.000000
  0.015784  0.015973  0.049634      2.000000
  0.047351  0.015974  0.049634      2.000000
 -0.047350  0.015972  0.049634      2.000000
 -0.015783  0.015973  0.049634      2.000000
  0.015785  0.047920  0.049634      2.000000
  0.047352  0.047920  0.049634      2.000000
 -0.047349  0.047918  0.049634      2.000000
 -0.015782  0.047919  0.049634      2.000000
  0.015782 -0.047919  0.049634      2.000000
  0.047350 -0.047918  0.049634      2.000000
 -0.047352 -0.047920  0.049634      2.000000
 -0.015785 -0.047919  0.049634      2.000000
  0.015783 -0.015973  0.049634      2.000000
  0.047350 -0.015972  0.049634      2.000000
 -0.047351 -0.015974  0.049634      2.000000
 -0.015784 -0.015973  0.049634      2.000000
 


--------------------------------------------------------------------------------------------------------




 Dimension of arrays:
   k-points           NKPTS =     32   k-points in BZ     NKDIM =     32   number of bands    NBANDS=    160
   number of dos      NEDOS =   3001   number of ions     NIONS =     32
   non local maximal  LDIM  =      6   non local SUM 2l+1 LMDIM =     18
   total plane-waves  NPLWV = 343000
   max r-space proj   IRMAX =  10157   max aug-charges    IRDMAX= 227687
   dimension x,y,z NGX =    70 NGY =   70 NGZ =   70
   dimension x,y,z NGXF=   140 NGYF=  140 NGZF=  140
   support grid    NGXF=   280 NGYF=  280 NGZF=  280
   ions per type =               8   8  16
   NGX,Y,Z   is equivalent  to a cutoff of  14.69, 14.87, 15.40 a.u.
   NGXF,Y,Z  is equivalent  to a cutoff of  29.39, 29.74, 30.81 a.u.

 SYSTEM =  LTO                                     
 POSCAR =  TiOF2 2x2x2 config 0003                 

 Startparameter for this run:
   NWRITE =      2    write-flag & timer
   PREC   = accura    normal or accurate (medium, high low for compatibility)
   ISTART =      1    job   : 0-new  1-cont  2-samecut
   ICHARG =      0    charge: 1-file 2-atom 10-const
   ISPIN  =      2    spin polarized calculation?
   LNONCOLLINEAR =      F non collinear calculations
   LSORBIT =      F    spin-orbit coupling
   INIWAV =      1    electr: 0-lowe 1-rand  2-diag
   LASPH  =      T    aspherical Exc in radial PAW
   METAGGA=      F    non-selfconsistent MetaGGA calc.

 Electronic Relaxation 1
   ENCUT  =  700.0 eV  51.45 Ry    7.17 a.u.  17.08 16.88 16.30*2*pi/ulx,y,z
   ENINI  =  700.0     initial cutoff
   ENAUG  =  613.6 eV  augmentation charge cutoff
   NELM   =     60;   NELMIN=  2; NELMDL=  0     # of ELM steps 
   EDIFF  = 0.1E-05   stopping-criterion for ELM
   LREAL  =      T    real-space projection
   NLSPLINE    = F    spline interpolate recip. space projectors
   LCOMPAT=      F    compatible to vasp.4.4
   GGA_COMPAT  = T    GGA compatible to vasp.4.4-vasp.4.6
   LMAXPAW     = -100 max onsite density
   LMAXMIX     =    4 max onsite mixed and CHGCAR
   VOSKOWN=      0    Vosko Wilk Nusair interpolation
   ROPT   =   -0.00010  -0.00010  -0.00010
 Ionic relaxation
   EDIFFG = -.1E-01   stopping-criterion for IOM
   NSW    =    100    number of steps for IOM
   NBLOCK =      1;   KBLOCK =    100    inner block; outer block 
   IBRION =      1    ionic relax: 0-MD 1-quasi-New 2-CG
   NFREE  =      0    steps in history (QN), initial steepest desc. (CG)
   ISIF   =      3    stress and relaxation
   IWAVPR =     11    prediction:  0-non 1-charg 2-wave 3-comb
   ISYM   =      0    0-nonsym 1-usesym 2-fastsym
   LCORR  =      T    Harris-Foulkes like correction to forces

   POTIM  = 0.5000    time-step for ionic-motion
   TEIN   =    0.0    initial temperature
   TEBEG  =    0.0;   TEEND  =   0.0 temperature during run
   SMASS  =  -3.00    Nose mass-parameter (am)
   estimated Nose-frequenzy (Omega)   =  0.10E-29 period in steps =****** mass=  -0.143E-26a.u.
   SCALEE = 1.0000    scale energy and forces
   NPACO  =    256;   APACO  = 16.0  distance and # of slots for P.C.
   PSTRESS=    0.0 pullay stress

  Mass of Ions in am
   POMASS =  47.88 16.00 19.00
  Ionic Valenz
   ZVAL   =  10.00  6.00  7.00
  Atomic Wigner-Seitz radii
   RWIGS  =  -1.00 -1.00 -1.00
  virtual crystal weights 
   VCA    =   1.00  1.00  1.00
   NELECT =     240.0000    total number of electrons
   NUPDOWN=      -1.0000    fix difference up-down

 DOS related values:
   EMIN   =  10.00;   EMAX   =-10.00  energy-range for DOS
   EFERMI =   0.00
   ISMEAR =     0;   SIGMA  =   0.01  broadening in eV -4-tet -1-fermi 0-gaus

 Electronic relaxation 2 (details)
   IALGO  =     38    algorithm
   LDIAG  =      T    sub-space diagonalisation (order eigenvalues)
   LSUBROT=      F    optimize rotation matrix (better conditioning)
   TURBO    =      0    0=normal 1=particle mesh
   IRESTART =      0    0=no restart 2=restart with 2 vectors
   NREBOOT  =      0    no. of reboots
   NMIN     =      0    reboot dimension
   EREF     =   0.00    reference energy to select bands
   IMIX   =      4    mixing-type and parameters
     AMIX     =   0.40;   BMIX     =  1.00
     AMIX_MAG =   1.60;   BMIX_MAG =  1.00
     AMIN     =   0.10
     WC   =   100.;   INIMIX=   1;  MIXPRE=   1;  MAXMIX= -45

 Intra band minimization:
   WEIMIN = 0.0010     energy-eigenvalue tresh-hold
   EBREAK =  0.16E-08  absolut break condition
   DEPER  =   0.30     relativ break condition  

   TIME   =   0.40     timestep for ELM

  volume/ion in A,a.u.               =      14.63        98.75
  Fermi-wavevector in a.u.,A,eV,Ry     =   1.310143  2.475812 23.354063  1.716475
  Thomas-Fermi vector in A             =   2.440694
 
 Write flags
   LWAVE        =      T    write WAVECAR
   LDOWNSAMPLE  =      F    k-point downsampling of WAVECAR
   LCHARG       =      T    write CHGCAR
   LVTOT        =      F    write LOCPOT, total local potential
   LVHAR        =      F    write LOCPOT, Hartree potential only
   LELF         =      F    write electronic localiz. function (ELF)
   LORBIT       =     11    0 simple, 1 ext, 2 COOP (PROOUT), +10 PAW based schemes


 Dipole corrections
   LMONO  =      F    monopole corrections only (constant potential shift)
   LDIPOL =      F    correct potential (dipole corrections)
   IDIPOL =      0    1-x, 2-y, 3-z, 4-all directions 
   EPSILON=  1.0000000 bulk dielectric constant

 LDA+U is selected, type is set to LDAUTYPE =  2
   angular momentum for each species LDAUL =     2   -1   -1
   U (eV)           for each species LDAUU =   4.2  0.0  0.0
   J (eV)           for each species LDAUJ =   0.0  0.0  0.0
 Exchange correlation treatment:
   GGA     =    PS    GGA type
   LEXCH   =    14    internal setting for exchange type
   VOSKOWN=      0    Vosko Wilk Nusair interpolation
   LHFCALC =     F    Hartree Fock is set to
   LHFONE  =     F    Hartree Fock one center treatment
   AEXX    =    0.0000 exact exchange contribution

 Linear response parameters
   LEPSILON=     F    determine dielectric tensor
   LRPA    =     F    only Hartree local field effects (RPA)
   LNABLA  =     F    use nabla operator in PAW spheres
   LVEL    =     F    velocity operator in full k-point grid
   LINTERFAST=   F  fast interpolation
   KINTER  =     0    interpolate to denser k-point grid
   CSHIFT  =0.1000    complex shift for real part using Kramers Kronig
   OMEGAMAX=  -1.0    maximum frequency
   DEG_THRESHOLD= 0.2000000E-02 threshold for treating states as degnerate
   RTIME   =   -0.100 relaxation time in fs
  (WPLASMAI=    0.000 imaginary part of plasma frequency in eV, 0.658/RTIME)
   DFIELD  = 0.0000000 0.0000000 0.0000000 field for delta impulse in time
 
 Orbital magnetization related:
   ORBITALMAG=     F  switch on orbital magnetization
   LCHIMAG   =     F  perturbation theory with respect to B field
   DQ        =  0.001000  dq finite difference perturbation B field
   LLRAUG    =     F  two centre corrections for induced B field



--------------------------------------------------------------------------------------------------------


 quasi-Newton-method for relaxation of ions
 charge density and potential will be updated during run
 spin polarized calculation
 Variant of blocked Davidson
 Davidson routine will perform the subspace rotation
 perform sub-space diagonalisation
    after iterative eigenvector-optimisation
 modified Broyden-mixing scheme, WC =      100.0
 initial mixing is a Kerker type mixing with AMIX =  0.4000 and BMIX =      1.0000
 Hartree-type preconditioning will be used
 using additional bands           40
 real space projection scheme for non local part
 use partial core corrections
 calculate Harris-corrections to forces 
   (improved forces if not selfconsistent)
 use gradient corrections 
 use of overlap-Matrix (Vanderbilt PP)
 Gauss-broadening in eV      SIGMA  =   0.01


--------------------------------------------------------------------------------------------------------


  energy-cutoff  :      700.00
  volume of cell :      468.25
      direct lattice vectors                 reciprocal lattice vectors
     7.919582516 -0.000246516 -0.000002430     0.126269282  0.000002778  0.000000042
    -0.000172179  7.825684263 -0.000003239     0.000003978  0.127784353  0.000000050
    -0.000002505 -0.000002947  7.555354253     0.000000041  0.000000055  0.132356468

  length of vectors
     7.919582520  7.825684264  7.555354253     0.126269282  0.127784353  0.132356468


 
 old parameters found on file WAVECAR:
  energy-cutoff  :      700.00
  volume of cell :      468.11
      direct lattice vectors                 reciprocal lattice vectors
     7.919947472 -0.000317122 -0.000000019     0.126263464  0.000003905  0.000000003
    -0.000241986  7.824829968 -0.000000252     0.000005117  0.127798304  0.000000001
    -0.000000195 -0.000000060  7.553495464     0.000000000  0.000000004  0.132389038

  length of vectors

 
 k-points in units of 2pi/SCALE and weight: Title                                   
   0.01578416  0.01597340  0.01654457       0.031
   0.04735148  0.01597409  0.01654458       0.031
  -0.04735048  0.01597201  0.01654455       0.031
  -0.01578316  0.01597270  0.01654456       0.031
   0.01578516  0.04791949  0.01654458       0.031
   0.04735248  0.04792018  0.01654459       0.031
  -0.04734948  0.04791810  0.01654456       0.031
  -0.01578216  0.04791879  0.01654457       0.031
   0.01578217 -0.04791878  0.01654454       0.031
   0.04734949 -0.04791808  0.01654456       0.031
  -0.04735247 -0.04792017  0.01654452       0.031
  -0.01578515 -0.04791947  0.01654453       0.031
   0.01578317 -0.01597269  0.01654456       0.031
   0.04735049 -0.01597200  0.01654457       0.031
  -0.04735147 -0.01597408  0.01654454       0.031
  -0.01578415 -0.01597338  0.01654455       0.031
   0.01578417  0.01597341  0.04963369       0.031
   0.04735149  0.01597411  0.04963370       0.031
  -0.04735047  0.01597202  0.04963367       0.031
  -0.01578315  0.01597272  0.04963368       0.031
   0.01578517  0.04791950  0.04963370       0.031
   0.04735249  0.04792019  0.04963371       0.031
  -0.04734947  0.04791811  0.04963368       0.031
  -0.01578215  0.04791881  0.04963369       0.031
   0.01578218 -0.04791876  0.04963366       0.031
   0.04734950 -0.04791807  0.04963367       0.031
  -0.04735246 -0.04792015  0.04963364       0.031
  -0.01578514 -0.04791946  0.04963365       0.031
   0.01578318 -0.01597268  0.04963367       0.031
   0.04735050 -0.01597198  0.04963368       0.031
  -0.04735146 -0.01597407  0.04963365       0.031
  -0.01578414 -0.01597337  0.04963366       0.031
 
 k-points in reciprocal lattice and weights: Title                                   
   0.12500000  0.12500000  0.12500000       0.031
   0.37500000  0.12500000  0.12500000       0.031
  -0.37500000  0.12500000  0.12500000       0.031
  -0.12500000  0.12500000  0.12500000       0.031
   0.12500000  0.37500000  0.12500000       0.031
   0.37500000  0.37500000  0.12500000       0.031
  -0.37500000  0.37500000  0.12500000       0.031
  -0.12500000  0.37500000  0.12500000       0.031
   0.12500000 -0.37500000  0.12500000       0.031
   0.37500000 -0.37500000  0.12500000       0.031
  -0.37500000 -0.37500000  0.12500000       0.031
  -0.12500000 -0.37500000  0.12500000       0.031
   0.12500000 -0.12500000  0.12500000       0.031
   0.37500000 -0.12500000  0.12500000       0.031
  -0.37500000 -0.12500000  0.12500000       0.031
  -0.12500000 -0.12500000  0.12500000       0.031
   0.12500000  0.12500000  0.37500000       0.031
   0.37500000  0.12500000  0.37500000       0.031
  -0.37500000  0.12500000  0.37500000       0.031
  -0.12500000  0.12500000  0.37500000       0.031
   0.12500000  0.37500000  0.37500000       0.031
   0.37500000  0.37500000  0.37500000       0.031
  -0.37500000  0.37500000  0.37500000       0.031
  -0.12500000  0.37500000  0.37500000       0.031
   0.12500000 -0.37500000  0.37500000       0.031
   0.37500000 -0.37500000  0.37500000       0.031
  -0.37500000 -0.37500000  0.37500000       0.031
  -0.12500000 -0.37500000  0.37500000       0.031
   0.12500000 -0.12500000  0.37500000       0.031
   0.37500000 -0.12500000  0.37500000       0.031
  -0.37500000 -0.12500000  0.37500000       0.031
  -0.12500000 -0.12500000  0.37500000       0.031
 
 position of ions in fractional coordinates (direct lattice) 
   0.00000097  0.00044773  0.99998065
   0.99999754  0.00039890  0.50000133
   0.99999650  0.49997471  0.00000522
   0.00000305  0.49993427  0.50001000
   0.49999972  0.98786065  0.99999974
   0.49999875  0.98869877  0.50000045
   0.49999614  0.50995897  0.00000016
   0.50000189  0.51016918  0.50000028
   0.49999333  0.75139983  0.99999993
   0.50002739  0.75119596  0.50000025
   0.99999765  0.50107399  0.24761777
   0.99999726  0.50107502  0.75237628
   0.50000025  0.99997040  0.24900315
   0.50000055  0.99997044  0.75099707
   0.49999830  0.50123180  0.24973210
   0.49999831  0.50123173  0.75026762
   0.23799707  0.00195695  0.00000020
   0.24379538  0.00274658  0.50000021
   0.24567523  0.49686244  0.99999905
   0.24596613  0.49712140  0.49999909
   0.76200487  0.00195161  0.00000004
   0.75620503  0.00285033  0.49999915
   0.75431812  0.49686864  0.99999908
   0.75403579  0.49717749  0.49999909
   0.99999705  0.24244534  0.99999857
   0.99994985  0.25240954  0.49999948
   0.00000349  0.75812298  0.00000060
   0.00007086  0.74807854  0.49999750
   0.50000053  0.24823371  0.00000007
   0.49997148  0.24905402  0.50000012
   0.00000034  0.99976521  0.24322348
   0.00000119  0.99976288  0.75679230
 
 position of ions in cartesian coordinates  (Angst):
   0.00000510  0.00350082  7.55520808
   7.91956172  0.00287365  3.77768473
   7.91946871  3.91239771  0.00003539
  -0.00006314  3.91232631  3.77775103
   3.95961648  7.73055935  7.55534785
   3.95960990  7.73711966  3.77767608
   3.95967288  3.99065459 -0.00000167
   3.95971712  3.99229818  3.77767641
   3.95960655  5.88009163  7.55535007
   3.95987756  5.87849765  3.77767534
   7.91947703  3.92099957  1.87083593
   7.91947266  3.92100616  5.68446531
   3.95962043  7.82532866  1.88130253
   3.95962153  7.82532746  5.67404444
   3.95969086  3.92235783  1.88681165
   3.95968968  3.92235576  5.66853480
   1.88483706  0.01525578  0.00000096
   1.93075589  0.02143226  3.77767809
   1.94555717  3.88822510  7.55534486
   1.94786221  3.89025299  3.77766802
   6.03476015  0.01508481 -0.00000155
   5.98882637  0.02211790  3.77766886
   5.97379651  3.88814818  7.55534385
   5.97156183  3.89056673  3.77766678
   7.91951487  1.89705126  7.55534022
   7.91914063  1.97502941  3.77766995
  -0.00010291  5.93283107  0.00000208
   0.00043109  5.85422499  3.77765578
   3.95975270  1.94247537 -0.00000152
   3.95952127  1.94889341  3.77767602
  -0.00017005  7.82384614  1.83763630
  -0.00016459  7.82382639  5.71783068
 


--------------------------------------------------------------------------------------------------------


 k-point  1 :   0.1250 0.1250 0.1250  plane waves:   19684
 k-point  2 :   0.3750 0.1250 0.1250  plane waves:   19701
 k-point  3 :  -0.3750 0.1250 0.1250  plane waves:   19701
 k-point  4 :  -0.1250 0.1250 0.1250  plane waves:   19683
 k-point  5 :   0.1250 0.3750 0.1250  plane waves:   19698
 k-point  6 :   0.3750 0.3750 0.1250  plane waves:   19676
 k-point  7 :  -0.3750 0.3750 0.1250  plane waves:   19676
 k-point  8 :  -0.1250 0.3750 0.1250  plane waves:   19696
 k-point  9 :   0.1250-0.3750 0.1250  plane waves:   19696
 k-point 10 :   0.3750-0.3750 0.1250  plane waves:   19676
 k-point 11 :  -0.3750-0.3750 0.1250  plane waves:   19676
 k-point 12 :  -0.1250-0.3750 0.1250  plane waves:   19698
 k-point 13 :   0.1250-0.1250 0.1250  plane waves:   19684
 k-point 14 :   0.3750-0.1250 0.1250  plane waves:   19701
 k-point 15 :  -0.3750-0.1250 0.1250  plane waves:   19701
 k-point 16 :  -0.1250-0.1250 0.1250  plane waves:   19684
 k-point 17 :   0.1250 0.1250 0.3750  plane waves:   19667
 k-point 18 :   0.3750 0.1250 0.3750  plane waves:   19674
 k-point 19 :  -0.3750 0.1250 0.3750  plane waves:   19674
 k-point 20 :  -0.1250 0.1250 0.3750  plane waves:   19668
 k-point 21 :   0.1250 0.3750 0.3750  plane waves:   19693
 k-point 22 :   0.3750 0.3750 0.3750  plane waves:   19704
 k-point 23 :  -0.3750 0.3750 0.3750  plane waves:   19703
 k-point 24 :  -0.1250 0.3750 0.3750  plane waves:   19691
 k-point 25 :   0.1250-0.3750 0.3750  plane waves:   19691
 k-point 26 :   0.3750-0.3750 0.3750  plane waves:   19703
 k-point 27 :  -0.3750-0.3750 0.3750  plane waves:   19704
 k-point 28 :  -0.1250-0.3750 0.3750  plane waves:   19693
 k-point 29 :   0.1250-0.1250 0.3750  plane waves:   19668
 k-point 30 :   0.3750-0.1250 0.3750  plane waves:   19674
 k-point 31 :  -0.3750-0.1250 0.3750  plane waves:   19674
 k-point 32 :  -0.1250-0.1250 0.3750  plane waves:   19667

 maximum and minimum number of plane-waves per node :      2497     2419

 maximum number of plane-waves:     19704
 maximum index in each direction: 
   IXMAX=   17   IYMAX=   17   IZMAX=   16
   IXMIN=  -17   IYMIN=  -17   IZMIN=  -16


 real space projection operators:
  total allocation   :      18236.16 KBytes
  max/ min on nodes  :       2430.83       1891.22


 parallel 3D FFT for wavefunctions:
    minimum data exchange during FFTs selected (reduces bandwidth)
 parallel 3D FFT for charge:
    minimum data exchange during FFTs selected (reduces bandwidth)


 total amount of memory used by VASP MPI-rank0   107553. kBytes
=======================================================================

   base      :      30000. kBytes
   nonlr-proj:       8449. kBytes
   fftplans  :       8424. kBytes
   grid      :       8783. kBytes
   one-center:        124. kBytes
   wavefun   :      51773. kBytes
 
     INWAV:  cpu time   30.6043: real time   34.1602
 Broyden mixing: mesh for mixing (old mesh)
   NGX = 35   NGY = 33   NGZ = 33
  (NGX  =140   NGY  =140   NGZ  =140)
  gives a total of  38115 points

 charge density for first step will be calculated from the start-wavefunctions


--------------------------------------------------------------------------------------------------------


 Maximum index for non-local projection operator         1353
 Maximum index for augmentation-charges         7104 (set IRDMAX)


--------------------------------------------------------------------------------------------------------


 initial charge from wavefunction
 First call to EWALD:  gamma=   0.228
 Maximum number of real-space cells 3x 3x 3
 Maximum number of reciprocal cells 3x 3x 3

    FEWALD:  cpu time    0.0040: real time    0.0035


--------------------------------------- Iteration      1(   1)  ---------------------------------------


    POTLOK:  cpu time    0.2180: real time    0.2865
    SETDIJ:  cpu time    0.8379: real time    0.8386
     EDDAV:  cpu time   28.9196: real time   28.9920
       DOS:  cpu time    0.0030: real time    0.0036
    CHARGE:  cpu time    1.1728: real time    1.1722
    MIXING:  cpu time    0.0020: real time    0.0021
    --------------------------------------------
      LOOP:  cpu time   31.1533: real time   31.2950

 eigenvalue-minimisations  : 20608
 total energy-change (2. order) :-0.2092219E+03  (-0.3433547E-03)
 number of electron     240.0000003 magnetization       2.0000000
 augmentation part       62.0024344 magnetization       0.7652362

 Broyden mixing:
  rms(total) = 0.36815E-03    rms(broyden)= 0.36790E-03
  rms(prec ) = 0.58915E-03
  weight for this iteration     100.00

 Free energy of the ion-electron system (eV)
  ---------------------------------------------------
  alpha Z        PSCENC =       747.81584330
  Ewald energy   TEWEN  =    -12691.45366345
  -Hartree energ DENC   =     -8318.50892719
  -exchange      EXHF   =         0.00000000
  -V(xc)+E(xc)   XCENC  =      1119.17901044
  PAW double counting   =     17967.81750629   -18089.18032352
  entropy T*S    EENTRO =        -0.00000000
  eigenvalues    EBANDS =     -3247.24452579
  atomic energy  EATOM  =     22302.35321627
  Solvation  Ediel_sol  =         0.00000000
  ---------------------------------------------------
  free energy    TOTEN  =      -209.22186365 eV

  energy without entropy =     -209.22186365  energy(sigma->0) =     -209.22186365


--------------------------------------------------------------------------------------------------------




--------------------------------------- Iteration      1(   2)  ---------------------------------------


    POTLOK:  cpu time    0.1490: real time    0.1726
    SETDIJ:  cpu time    0.8309: real time    0.8380
     EDDAV:  cpu time   21.4617: real time   21.5937
       DOS:  cpu time    0.0040: real time    0.0035
    --------------------------------------------
      LOOP:  cpu time   22.4456: real time   22.6078

 eigenvalue-minimisations  : 13056
 total energy-change (2. order) : 0.9311407E-07  (-0.1804427E-06)
 number of electron     240.0000003 magnetization       2.0000000
 augmentation part       62.0024344 magnetization       0.7652362

 Free energy of the ion-electron system (eV)
  ---------------------------------------------------
  alpha Z        PSCENC =       747.81584330
  Ewald energy   TEWEN  =    -12691.45366345
  -Hartree energ DENC   =     -8318.50833629
  -exchange      EXHF   =         0.00000000
  -V(xc)+E(xc)   XCENC  =      1119.17885852
  PAW double counting   =     17967.81799251   -18089.18054159
  entropy T*S    EENTRO =        -0.00000000
  eigenvalues    EBANDS =     -3247.24523283
  atomic energy  EATOM  =     22302.35321627
  Solvation  Ediel_sol  =         0.00000000
  ---------------------------------------------------
  free energy    TOTEN  =      -209.22186356 eV

  energy without entropy =     -209.22186356  energy(sigma->0) =     -209.22186356


--------------------------------------------------------------------------------------------------------




 average (electrostatic) potential at core
  the test charge radii are     1.0397  0.7215  0.7167
  (the norm of the test charge is              1.0000)
       1 -60.7899       2 -58.0329       3 -59.0413       4 -59.0508       5 -58.3652
       6 -58.3572       7 -58.2533       8 -58.2265       9 -74.0665      10 -74.0162
      11 -73.5645      12 -73.5647      13 -73.4525      14 -73.4526      15 -73.2505
      16 -73.2506      17 -80.0844      18 -79.4198      19 -79.0372      20 -78.9311
      21 -80.0844      22 -79.4199      23 -79.0372      24 -78.9311      25 -80.3019
      26 -79.4447      27 -80.2979      28 -79.4496      29 -78.2093      30 -78.1307
      31 -80.8309      32 -80.8339
 
 
 
 E-fermi :   0.0579     XC(G=0):  -8.9130     alpha+bet : -7.5463


 spin component 1

 k-point     1 :       0.1250    0.1250    0.1250
  band No.  band energies     occupation 
      1     -36.8574      1.00000
      2     -36.7301      1.00000
      3     -36.7299      1.00000
      4     -35.1167      1.00000
      5     -35.0900      1.00000
      6     -35.0396      1.00000
      7     -35.0090      1.00000
      8     -34.9006      1.00000
      9     -34.6639      1.00000
     10     -34.5877      1.00000
     11     -34.5072      1.00000
     12     -34.4443      1.00000
     13     -34.3933      1.00000
     14     -34.3459      1.00000
     15     -34.2709      1.00000
     16     -34.2368      1.00000
     17     -34.2338      1.00000
     18     -34.2054      1.00000
     19     -34.1170      1.00000
     20     -34.0808      1.00000
     21     -34.0690      1.00000
     22     -33.9946      1.00000
     23     -33.9247      1.00000
     24     -33.8487      1.00000
     25     -24.8154      1.00000
     26     -24.1690      1.00000
     27     -24.0853      1.00000
     28     -23.8692      1.00000
     29     -23.6809      1.00000
     30     -23.4521      1.00000
     31     -23.3815      1.00000
     32     -23.2052      1.00000
     33     -22.8767      1.00000
     34     -22.8609      1.00000
     35     -22.8373      1.00000
     36     -22.7424      1.00000
     37     -22.4680      1.00000
     38     -22.3630      1.00000
     39     -21.8619      1.00000
     40     -21.7808      1.00000
     41     -16.7224      1.00000
     42     -16.5579      1.00000
     43     -16.4969      1.00000
     44     -16.3586      1.00000
     45     -16.1489      1.00000
     46     -15.6903      1.00000
     47     -15.6373      1.00000
     48     -15.4268      1.00000
     49      -8.4682      1.00000
     50      -7.8136      1.00000
     51      -7.4929      1.00000
     52      -6.9246      1.00000
     53      -6.8939      1.00000
     54      -6.7354      1.00000
     55      -6.7142      1.00000
     56      -6.6190      1.00000
     57      -6.4496      1.00000
     58      -6.4089      1.00000
     59      -6.3446      1.00000
     60      -6.2712      1.00000
     61      -6.2384      1.00000
     62      -5.7452      1.00000
     63      -5.6482      1.00000
     64      -5.4974      1.00000
     65      -5.3588      1.00000
     66      -5.3452      1.00000
     67      -5.2712      1.00000
     68      -5.2490      1.00000
     69      -5.2417      1.00000
     70      -5.1795      1.00000
     71      -5.0049      1.00000
     72      -4.9957      1.00000
     73      -4.8995      1.00000
     74      -4.8403      1.00000
     75      -4.8256      1.00000
     76      -4.7808      1.00000
     77      -4.7572      1.00000
     78      -4.7315      1.00000
     79      -4.6009      1.00000
     80      -4.5735      1.00000
     81      -4.4744      1.00000
     82      -4.4390      1.00000
     83      -4.4079      1.00000
     84      -4.3451      1.00000
     85      -4.3143      1.00000
     86      -4.2626      1.00000
     87      -4.1909      1.00000
     88      -4.1715      1.00000
     89      -4.0821      1.00000
     90      -4.0748      1.00000
     91      -4.0282      1.00000
     92      -3.9620      1.00000
     93      -3.8765      1.00000
     94      -3.8581      1.00000
     95      -3.7458      1.00000
     96      -3.7080      1.00000
     97      -3.2042      1.00000
     98      -3.0928      1.00000
     99      -3.0067      1.00000
    100      -2.9187      1.00000
    101      -2.8272      1.00000
    102      -2.7136      1.00000
    103      -2.3063      1.00000
    104      -1.9603      1.00000
    105      -1.8595      1.00000
    106      -1.7818      1.00000
    107      -1.7687      1.00000
    108      -1.7332      1.00000
    109      -1.6482      1.00000
    110      -1.6016      1.00000
    111      -1.4712      1.00000
    112      -1.2284      1.00000
    113      -1.2021      1.00000
    114      -1.1477      1.00000
    115      -1.0221      1.00000
    116      -0.9883      1.00000
    117      -0.9145      1.00000
    118      -0.6954      1.00000
    119      -0.6704      1.00000
    120      -0.4014      1.00000
    121      -0.1608      1.00000
    122       1.1404      0.00000
    123       1.1547      0.00000
    124       1.1822      0.00000
    125       2.1732      0.00000
    126       2.2175      0.00000
    127       2.2382      0.00000
    128       2.3191      0.00000
    129       2.4444      0.00000
    130       2.5697      0.00000
    131       2.6137      0.00000
    132       2.6801      0.00000
    133       2.8834      0.00000
    134       2.9918      0.00000
    135       3.0386      0.00000
    136       3.0990      0.00000
    137       3.1499      0.00000
    138       3.2690      0.00000
    139       3.4504      0.00000
    140       3.7770      0.00000
    141       3.8112      0.00000
    142       3.8351      0.00000
    143       3.8984      0.00000
    144       3.9376      0.00000
    145       3.9765      0.00000
    146       4.0255      0.00000
    147       4.0895      0.00000
    148       4.2019      0.00000
    149       4.3186      0.00000
    150       4.3265      0.00000
    151       4.5373      0.00000
    152       4.7921      0.00000
    153       4.8540      0.00000
    154       5.1397      0.00000
    155       5.2524      0.00000
    156       5.7725      0.00000
    157       5.9242      0.00000
    158       6.1721      0.00000
    159       6.2403      0.00000
    160       6.9273      0.00000

 k-point     2 :       0.3750    0.1250    0.1250
  band No.  band energies     occupation 
      1     -36.8574      1.00000
      2     -36.7300      1.00000
      3     -36.7297      1.00000
      4     -35.1167      1.00000
      5     -35.0900      1.00000
      6     -35.0380      1.00000
      7     -35.0075      1.00000
      8     -34.8976      1.00000
      9     -34.6639      1.00000
     10     -34.5877      1.00000
     11     -34.5072      1.00000
     12     -34.4453      1.00000
     13     -34.3970      1.00000
     14     -34.3459      1.00000
     15     -34.2731      1.00000
     16     -34.2368      1.00000
     17     -34.2359      1.00000
     18     -34.2054      1.00000
     19     -34.1170      1.00000
     20     -34.0808      1.00000
     21     -34.0690      1.00000
     22     -33.9946      1.00000
     23     -33.9247      1.00000
     24     -33.8487      1.00000
     25     -24.8140      1.00000
     26     -24.1636      1.00000
     27     -24.0852      1.00000
     28     -23.7970      1.00000
     29     -23.6804      1.00000
     30     -23.5355      1.00000
     31     -23.3618      1.00000
     32     -23.1248      1.00000
     33     -22.9415      1.00000
     34     -22.8747      1.00000
     35     -22.7565      1.00000
     36     -22.6410      1.00000
     37     -22.5784      1.00000
     38     -22.4730      1.00000
     39     -21.8605      1.00000
     40     -21.7791      1.00000
     41     -16.7219      1.00000
     42     -16.5577      1.00000
     43     -16.4966      1.00000
     44     -16.3582      1.00000
     45     -16.1487      1.00000
     46     -15.6898      1.00000
     47     -15.6374      1.00000
     48     -15.4274      1.00000
     49      -8.4673      1.00000
     50      -7.8121      1.00000
     51      -7.2047      1.00000
     52      -6.9083      1.00000
     53      -6.8871      1.00000
     54      -6.6910      1.00000
     55      -6.6208      1.00000
     56      -6.5071      1.00000
     57      -6.4230      1.00000
     58      -6.4011      1.00000
     59      -6.2093      1.00000
     60      -6.0804      1.00000
     61      -5.9921      1.00000
     62      -5.9116      1.00000
     63      -5.7468      1.00000
     64      -5.5601      1.00000
     65      -5.4763      1.00000
     66      -5.4507      1.00000
     67      -5.3627      1.00000
     68      -5.3495      1.00000
     69      -5.3170      1.00000
     70      -5.2275      1.00000
     71      -5.2231      1.00000
     72      -5.0556      1.00000
     73      -5.0010      1.00000
     74      -4.9714      1.00000
     75      -4.9440      1.00000
     76      -4.7408      1.00000
     77      -4.7394      1.00000
     78      -4.6047      1.00000
     79      -4.5969      1.00000
     80      -4.5897      1.00000
     81      -4.5658      1.00000
     82      -4.4581      1.00000
     83      -4.4275      1.00000
     84      -4.4240      1.00000
     85      -4.3006      1.00000
     86      -4.2534      1.00000
     87      -4.1785      1.00000
     88      -4.1295      1.00000
     89      -4.1179      1.00000
     90      -4.0877      1.00000
     91      -4.0709      1.00000
     92      -3.9834      1.00000
     93      -3.9291      1.00000
     94      -3.8656      1.00000
     95      -3.8081      1.00000
     96      -3.4796      1.00000
     97      -3.2138      1.00000
     98      -3.1191      1.00000
     99      -3.0396      1.00000
    100      -2.9394      1.00000
    101      -2.8806      1.00000
    102      -2.7187      1.00000
    103      -2.3114      1.00000
    104      -1.9676      1.00000
    105      -1.7892      1.00000
    106      -1.7709      1.00000
    107      -1.7382      1.00000
    108      -1.6332      1.00000
    109      -1.5851      1.00000
    110      -1.5111      1.00000
    111      -1.5048      1.00000
    112      -1.2396      1.00000
    113      -1.2035      1.00000
    114      -1.1171      1.00000
    115      -1.1025      1.00000
    116      -1.0473      1.00000
    117      -0.9873      1.00000
    118      -0.7481      1.00000
    119      -0.6960      1.00000
    120      -0.4014      1.00000
    121      -0.1608      1.00000
    122       1.1822      0.00000
    123       1.1866      0.00000
    124       1.2016      0.00000
    125       2.2384      0.00000
    126       2.3102      0.00000
    127       2.3786      0.00000
    128       2.3993      0.00000
    129       2.5245      0.00000
    130       2.6506      0.00000
    131       2.6778      0.00000
    132       2.7395      0.00000
    133       2.8672      0.00000
    134       2.9022      0.00000
    135       2.9469      0.00000
    136       2.9661      0.00000
    137       3.1355      0.00000
    138       3.5135      0.00000
    139       3.8107      0.00000
    140       3.8332      0.00000
    141       3.8506      0.00000
    142       3.8952      0.00000
    143       3.9175      0.00000
    144       3.9778      0.00000
    145       4.0336      0.00000
    146       4.1363      0.00000
    147       4.1728      0.00000
    148       4.2806      0.00000
    149       4.3102      0.00000
    150       4.3275      0.00000
    151       4.5100      0.00000
    152       4.6816      0.00000
    153       4.7980      0.00000
    154       4.8902      0.00000
    155       5.2477      0.00000
    156       5.4909      0.00000
    157       6.0762      0.00000
    158       6.1980      0.00000
    159       6.2273      0.00000
    160       6.5740      0.00000

 k-point     3 :      -0.3750    0.1250    0.1250
  band No.  band energies     occupation 
      1     -36.8574      1.00000
      2     -36.7300      1.00000
      3     -36.7297      1.00000
      4     -35.1167      1.00000
      5     -35.0900      1.00000
      6     -35.0380      1.00000
      7     -35.0075      1.00000
      8     -34.8976      1.00000
      9     -34.6639      1.00000
     10     -34.5877      1.00000
     11     -34.5072      1.00000
     12     -34.4453      1.00000
     13     -34.3970      1.00000
     14     -34.3459      1.00000
     15     -34.2731      1.00000
     16     -34.2368      1.00000
     17     -34.2359      1.00000
     18     -34.2054      1.00000
     19     -34.1170      1.00000
     20     -34.0808      1.00000
     21     -34.0690      1.00000
     22     -33.9946      1.00000
     23     -33.9247      1.00000
     24     -33.8487      1.00000
     25     -24.8140      1.00000
     26     -24.1636      1.00000
     27     -24.0852      1.00000
     28     -23.7970      1.00000
     29     -23.6804      1.00000
     30     -23.5355      1.00000
     31     -23.3618      1.00000
     32     -23.1247      1.00000
     33     -22.9416      1.00000
     34     -22.8747      1.00000
     35     -22.7565      1.00000
     36     -22.6410      1.00000
     37     -22.5784      1.00000
     38     -22.4730      1.00000
     39     -21.8605      1.00000
     40     -21.7791      1.00000
     41     -16.7219      1.00000
     42     -16.5577      1.00000
     43     -16.4966      1.00000
     44     -16.3582      1.00000
     45     -16.1487      1.00000
     46     -15.6898      1.00000
     47     -15.6374      1.00000
     48     -15.4274      1.00000
     49      -8.4673      1.00000
     50      -7.8121      1.00000
     51      -7.2047      1.00000
     52      -6.9083      1.00000
     53      -6.8871      1.00000
     54      -6.6910      1.00000
     55      -6.6208      1.00000
     56      -6.5070      1.00000
     57      -6.4230      1.00000
     58      -6.4011      1.00000
     59      -6.2093      1.00000
     60      -6.0804      1.00000
     61      -5.9921      1.00000
     62      -5.9116      1.00000
     63      -5.7468      1.00000
     64      -5.5601      1.00000
     65      -5.4763      1.00000
     66      -5.4507      1.00000
     67      -5.3627      1.00000
     68      -5.3495      1.00000
     69      -5.3170      1.00000
     70      -5.2275      1.00000
     71      -5.2231      1.00000
     72      -5.0556      1.00000
     73      -5.0010      1.00000
     74      -4.9715      1.00000
     75      -4.9440      1.00000
     76      -4.7407      1.00000
     77      -4.7394      1.00000
     78      -4.6046      1.00000
     79      -4.5969      1.00000
     80      -4.5896      1.00000
     81      -4.5658      1.00000
     82      -4.4581      1.00000
     83      -4.4275      1.00000
     84      -4.4240      1.00000
     85      -4.3006      1.00000
     86      -4.2534      1.00000
     87      -4.1785      1.00000
     88      -4.1295      1.00000
     89      -4.1179      1.00000
     90      -4.0877      1.00000
     91      -4.0709      1.00000
     92      -3.9834      1.00000
     93      -3.9292      1.00000
     94      -3.8656      1.00000
     95      -3.8081      1.00000
     96      -3.4796      1.00000
     97      -3.2138      1.00000
     98      -3.1191      1.00000
     99      -3.0396      1.00000
    100      -2.9394      1.00000
    101      -2.8806      1.00000
    102      -2.7187      1.00000
    103      -2.3114      1.00000
    104      -1.9676      1.00000
    105      -1.7892      1.00000
    106      -1.7709      1.00000
    107      -1.7382      1.00000
    108      -1.6332      1.00000
    109      -1.5851      1.00000
    110      -1.5111      1.00000
    111      -1.5049      1.00000
    112      -1.2396      1.00000
    113      -1.2035      1.00000
    114      -1.1171      1.00000
    115      -1.1025      1.00000
    116      -1.0473      1.00000
    117      -0.9873      1.00000
    118      -0.7481      1.00000
    119      -0.6960      1.00000
    120      -0.4014      1.00000
    121      -0.1608      1.00000
    122       1.1822      0.00000
    123       1.1866      0.00000
    124       1.2016      0.00000
    125       2.2384      0.00000
    126       2.3102      0.00000
    127       2.3785      0.00000
    128       2.3993      0.00000
    129       2.5245      0.00000
    130       2.6506      0.00000
    131       2.6778      0.00000
    132       2.7395      0.00000
    133       2.8672      0.00000
    134       2.9023      0.00000
    135       2.9469      0.00000
    136       2.9661      0.00000
    137       3.1355      0.00000
    138       3.5135      0.00000
    139       3.8107      0.00000
    140       3.8332      0.00000
    141       3.8506      0.00000
    142       3.8952      0.00000
    143       3.9175      0.00000
    144       3.9778      0.00000
    145       4.0336      0.00000
    146       4.1363      0.00000
    147       4.1728      0.00000
    148       4.2806      0.00000
    149       4.3102      0.00000
    150       4.3275      0.00000
    151       4.5100      0.00000
    152       4.6816      0.00000
    153       4.7980      0.00000
    154       4.8902      0.00000
    155       5.2477      0.00000
    156       5.4909      0.00000
    157       6.0762      0.00000
    158       6.1980      0.00000
    159       6.2273      0.00000
    160       6.5740      0.00000

 k-point     4 :      -0.1250    0.1250    0.1250
  band No.  band energies     occupation 
      1     -36.8574      1.00000
      2     -36.7301      1.00000
      3     -36.7299      1.00000
      4     -35.1167      1.00000
      5     -35.0900      1.00000
      6     -35.0396      1.00000
      7     -35.0090      1.00000
      8     -34.9006      1.00000
      9     -34.6639      1.00000
     10     -34.5877      1.00000
     11     -34.5072      1.00000
     12     -34.4443      1.00000
     13     -34.3933      1.00000
     14     -34.3459      1.00000
     15     -34.2709      1.00000
     16     -34.2368      1.00000
     17     -34.2338      1.00000
     18     -34.2054      1.00000
     19     -34.1170      1.00000
     20     -34.0808      1.00000
     21     -34.0690      1.00000
     22     -33.9946      1.00000
     23     -33.9247      1.00000
     24     -33.8487      1.00000
     25     -24.8154      1.00000
     26     -24.1690      1.00000
     27     -24.0853      1.00000
     28     -23.8692      1.00000
     29     -23.6809      1.00000
     30     -23.4521      1.00000
     31     -23.3815      1.00000
     32     -23.2052      1.00000
     33     -22.8767      1.00000
     34     -22.8609      1.00000
     35     -22.8372      1.00000
     36     -22.7424      1.00000
     37     -22.4680      1.00000
     38     -22.3630      1.00000
     39     -21.8619      1.00000
     40     -21.7808      1.00000
     41     -16.7224      1.00000
     42     -16.5579      1.00000
     43     -16.4969      1.00000
     44     -16.3586      1.00000
     45     -16.1489      1.00000
     46     -15.6903      1.00000
     47     -15.6373      1.00000
     48     -15.4268      1.00000
     49      -8.4682      1.00000
     50      -7.8136      1.00000
     51      -7.4929      1.00000
     52      -6.9247      1.00000
     53      -6.8939      1.00000
     54      -6.7353      1.00000
     55      -6.7142      1.00000
     56      -6.6190      1.00000
     57      -6.4496      1.00000
     58      -6.4089      1.00000
     59      -6.3446      1.00000
     60      -6.2712      1.00000
     61      -6.2384      1.00000
     62      -5.7452      1.00000
     63      -5.6482      1.00000
     64      -5.4974      1.00000
     65      -5.3588      1.00000
     66      -5.3452      1.00000
     67      -5.2711      1.00000
     68      -5.2490      1.00000
     69      -5.2418      1.00000
     70      -5.1795      1.00000
     71      -5.0049      1.00000
     72      -4.9957      1.00000
     73      -4.8994      1.00000
     74      -4.8403      1.00000
     75      -4.8256      1.00000
     76      -4.7808      1.00000
     77      -4.7573      1.00000
     78      -4.7315      1.00000
     79      -4.6009      1.00000
     80      -4.5734      1.00000
     81      -4.4743      1.00000
     82      -4.4390      1.00000
     83      -4.4079      1.00000
     84      -4.3451      1.00000
     85      -4.3145      1.00000
     86      -4.2626      1.00000
     87      -4.1909      1.00000
     88      -4.1715      1.00000
     89      -4.0821      1.00000
     90      -4.0748      1.00000
     91      -4.0281      1.00000
     92      -3.9620      1.00000
     93      -3.8766      1.00000
     94      -3.8581      1.00000
     95      -3.7458      1.00000
     96      -3.7081      1.00000
     97      -3.2042      1.00000
     98      -3.0928      1.00000
     99      -3.0067      1.00000
    100      -2.9187      1.00000
    101      -2.8272      1.00000
    102      -2.7136      1.00000
    103      -2.3063      1.00000
    104      -1.9603      1.00000
    105      -1.8595      1.00000
    106      -1.7818      1.00000
    107      -1.7687      1.00000
    108      -1.7332      1.00000
    109      -1.6482      1.00000
    110      -1.6016      1.00000
    111      -1.4712      1.00000
    112      -1.2284      1.00000
    113      -1.2021      1.00000
    114      -1.1477      1.00000
    115      -1.0221      1.00000
    116      -0.9883      1.00000
    117      -0.9145      1.00000
    118      -0.6954      1.00000
    119      -0.6704      1.00000
    120      -0.4014      1.00000
    121      -0.1608      1.00000
    122       1.1404      0.00000
    123       1.1547      0.00000
    124       1.1822      0.00000
    125       2.1732      0.00000
    126       2.2175      0.00000
    127       2.2382      0.00000
    128       2.3191      0.00000
    129       2.4444      0.00000
    130       2.5697      0.00000
    131       2.6138      0.00000
    132       2.6801      0.00000
    133       2.8834      0.00000
    134       2.9918      0.00000
    135       3.0386      0.00000
    136       3.0990      0.00000
    137       3.1500      0.00000
    138       3.2690      0.00000
    139       3.4504      0.00000
    140       3.7770      0.00000
    141       3.8112      0.00000
    142       3.8351      0.00000
    143       3.8984      0.00000
    144       3.9376      0.00000
    145       3.9765      0.00000
    146       4.0255      0.00000
    147       4.0895      0.00000
    148       4.2019      0.00000
    149       4.3186      0.00000
    150       4.3265      0.00000
    151       4.5373      0.00000
    152       4.7921      0.00000
    153       4.8540      0.00000
    154       5.1397      0.00000
    155       5.2524      0.00000
    156       5.7725      0.00000
    157       5.9242      0.00000
    158       6.1721      0.00000
    159       6.2403      0.00000
    160       6.9273      0.00000

 k-point     5 :       0.1250    0.3750    0.1250
  band No.  band energies     occupation 
      1     -36.8574      1.00000
      2     -36.7301      1.00000
      3     -36.7291      1.00000
      4     -35.1184      1.00000
      5     -35.0873      1.00000
      6     -35.0396      1.00000
      7     -35.0090      1.00000
      8     -34.9006      1.00000
      9     -34.6639      1.00000
     10     -34.5877      1.00000
     11     -34.5072      1.00000
     12     -34.4443      1.00000
     13     -34.3933      1.00000
     14     -34.3495      1.00000
     15     -34.2709      1.00000
     16     -34.2338      1.00000
     17     -34.2281      1.00000
     18     -34.1973      1.00000
     19     -34.1260      1.00000
     20     -34.0893      1.00000
     21     -34.0689      1.00000
     22     -33.9946      1.00000
     23     -33.9247      1.00000
     24     -33.8488      1.00000
     25     -24.8124      1.00000
     26     -24.1026      1.00000
     27     -24.0589      1.00000
     28     -23.8623      1.00000
     29     -23.7899      1.00000
     30     -23.4520      1.00000
     31     -23.3001      1.00000
     32     -23.1738      1.00000
     33     -23.0008      1.00000
     34     -22.8593      1.00000
     35     -22.8371      1.00000
     36     -22.7370      1.00000
     37     -22.4680      1.00000
     38     -22.3630      1.00000
     39     -21.8563      1.00000
     40     -21.7753      1.00000
     41     -16.7438      1.00000
     42     -16.5751      1.00000
     43     -16.4965      1.00000
     44     -16.3580      1.00000
     45     -16.1443      1.00000
     46     -15.6904      1.00000
     47     -15.6366      1.00000
     48     -15.4275      1.00000
     49      -8.4653      1.00000
     50      -7.4958      1.00000
     51      -7.4496      1.00000
     52      -6.8593      1.00000
     53      -6.7800      1.00000
     54      -6.7646      1.00000
     55      -6.7182      1.00000
     56      -6.6261      1.00000
     57      -6.5105      1.00000
     58      -6.4270      1.00000
     59      -6.3327      1.00000
     60      -6.2726      1.00000
     61      -6.1567      1.00000
     62      -5.9646      1.00000
     63      -5.6535      1.00000
     64      -5.5590      1.00000
     65      -5.3715      1.00000
     66      -5.3690      1.00000
     67      -5.3478      1.00000
     68      -5.2523      1.00000
     69      -5.1191      1.00000
     70      -5.0769      1.00000
     71      -5.0107      1.00000
     72      -4.9877      1.00000
     73      -4.9609      1.00000
     74      -4.8586      1.00000
     75      -4.8396      1.00000
     76      -4.7825      1.00000
     77      -4.7617      1.00000
     78      -4.7555      1.00000
     79      -4.7357      1.00000
     80      -4.5881      1.00000
     81      -4.4363      1.00000
     82      -4.3910      1.00000
     83      -4.3854      1.00000
     84      -4.2807      1.00000
     85      -4.2592      1.00000
     86      -4.2419      1.00000
     87      -4.1894      1.00000
     88      -4.1463      1.00000
     89      -4.0329      1.00000
     90      -3.9620      1.00000
     91      -3.9193      1.00000
     92      -3.8907      1.00000
     93      -3.8456      1.00000
     94      -3.8151      1.00000
     95      -3.7479      1.00000
     96      -3.6760      1.00000
     97      -3.5240      1.00000
     98      -3.4043      1.00000
     99      -3.2633      1.00000
    100      -3.1754      1.00000
    101      -3.0393      1.00000
    102      -2.8631      1.00000
    103      -2.3119      1.00000
    104      -1.9787      1.00000
    105      -1.8584      1.00000
    106      -1.7926      1.00000
    107      -1.7336      1.00000
    108      -1.6498      1.00000
    109      -1.6147      1.00000
    110      -1.4696      1.00000
    111      -1.2610      1.00000
    112      -1.2096      1.00000
    113      -1.1964      1.00000
    114      -1.1416      1.00000
    115      -1.0777      1.00000
    116      -1.0328      1.00000
    117      -0.9151      1.00000
    118      -0.7817      1.00000
    119      -0.6783      1.00000
    120      -0.3539      1.00000
    121      -0.3033      1.00000
    122       1.1547      0.00000
    123       1.1798      0.00000
    124       1.2273      0.00000
    125       2.1703      0.00000
    126       2.1741      0.00000
    127       2.3921      0.00000
    128       2.4523      0.00000
    129       2.5394      0.00000
    130       2.6138      0.00000
    131       2.8159      0.00000
    132       2.8524      0.00000
    133       2.8810      0.00000
    134       3.0273      0.00000
    135       3.0395      0.00000
    136       3.0988      0.00000
    137       3.2408      0.00000
    138       3.4222      0.00000
    139       3.5862      0.00000
    140       3.6695      0.00000
    141       3.6894      0.00000
    142       3.7515      0.00000
    143       3.7911      0.00000
    144       3.8395      0.00000
    145       3.8985      0.00000
    146       3.9810      0.00000
    147       4.3187      0.00000
    148       4.3559      0.00000
    149       4.4749      0.00000
    150       4.5375      0.00000
    151       4.6621      0.00000
    152       4.7147      0.00000
    153       4.8655      0.00000
    154       5.1115      0.00000
    155       5.4065      0.00000
    156       5.5232      0.00000
    157       5.7950      0.00000
    158       6.2304      0.00000
    159       6.2894      0.00000
    160       6.8881      0.00000

 k-point     6 :       0.3750    0.3750    0.1250
  band No.  band energies     occupation 
      1     -36.8574      1.00000
      2     -36.7297      1.00000
      3     -36.7291      1.00000
      4     -35.1184      1.00000
      5     -35.0873      1.00000
      6     -35.0380      1.00000
      7     -35.0075      1.00000
      8     -34.8976      1.00000
      9     -34.6639      1.00000
     10     -34.5877      1.00000
     11     -34.5072      1.00000
     12     -34.4453      1.00000
     13     -34.3970      1.00000
     14     -34.3495      1.00000
     15     -34.2731      1.00000
     16     -34.2359      1.00000
     17     -34.2281      1.00000
     18     -34.1973      1.00000
     19     -34.1260      1.00000
     20     -34.0893      1.00000
     21     -34.0689      1.00000
     22     -33.9946      1.00000
     23     -33.9247      1.00000
     24     -33.8488      1.00000
     25     -24.8110      1.00000
     26     -24.0991      1.00000
     27     -24.0517      1.00000
     28     -23.8148      1.00000
     29     -23.7698      1.00000
     30     -23.5354      1.00000
     31     -23.2489      1.00000
     32     -23.1306      1.00000
     33     -22.9964      1.00000
     34     -22.9366      1.00000
     35     -22.7553      1.00000
     36     -22.6376      1.00000
     37     -22.5782      1.00000
     38     -22.4725      1.00000
     39     -21.8550      1.00000
     40     -21.7737      1.00000
     41     -16.7433      1.00000
     42     -16.5749      1.00000
     43     -16.4961      1.00000
     44     -16.3576      1.00000
     45     -16.1441      1.00000
     46     -15.6898      1.00000
     47     -15.6366      1.00000
     48     -15.4281      1.00000
     49      -8.4645      1.00000
     50      -7.4540      1.00000
     51      -7.2035      1.00000
     52      -6.8590      1.00000
     53      -6.7703      1.00000
     54      -6.6912      1.00000
     55      -6.6334      1.00000
     56      -6.5253      1.00000
     57      -6.5044      1.00000
     58      -6.3957      1.00000
     59      -6.1780      1.00000
     60      -6.0389      1.00000
     61      -5.9994      1.00000
     62      -5.9591      1.00000
     63      -5.9081      1.00000
     64      -5.5612      1.00000
     65      -5.5110      1.00000
     66      -5.4721      1.00000
     67      -5.4356      1.00000
     68      -5.3864      1.00000
     69      -5.3013      1.00000
     70      -5.1930      1.00000
     71      -5.0594      1.00000
     72      -5.0113      1.00000
     73      -4.9914      1.00000
     74      -4.9671      1.00000
     75      -4.9235      1.00000
     76      -4.7849      1.00000
     77      -4.7514      1.00000
     78      -4.7336      1.00000
     79      -4.5999      1.00000
     80      -4.5909      1.00000
     81      -4.4890      1.00000
     82      -4.4385      1.00000
     83      -4.3733      1.00000
     84      -4.3600      1.00000
     85      -4.2905      1.00000
     86      -4.2569      1.00000
     87      -4.2289      1.00000
     88      -4.1216      1.00000
     89      -4.1098      1.00000
     90      -4.0778      1.00000
     91      -3.9878      1.00000
     92      -3.8861      1.00000
     93      -3.8628      1.00000
     94      -3.8318      1.00000
     95      -3.8256      1.00000
     96      -3.5668      1.00000
     97      -3.5108      1.00000
     98      -3.3639      1.00000
     99      -3.2666      1.00000
    100      -3.1861      1.00000
    101      -3.0372      1.00000
    102      -2.8708      1.00000
    103      -2.3153      1.00000
    104      -1.9581      1.00000
    105      -1.7769      1.00000
    106      -1.7383      1.00000
    107      -1.6293      1.00000
    108      -1.6092      1.00000
    109      -1.5152      1.00000
    110      -1.4874      1.00000
    111      -1.2614      1.00000
    112      -1.2270      1.00000
    113      -1.2111      1.00000
    114      -1.1166      1.00000
    115      -1.1019      1.00000
    116      -1.0686      1.00000
    117      -1.0477      1.00000
    118      -0.7839      1.00000
    119      -0.7603      1.00000
    120      -0.3539      1.00000
    121      -0.3031      1.00000
    122       1.1798      0.00000
    123       1.2016      0.00000
    124       1.2459      0.00000
    125       2.1709      0.00000
    126       2.3102      0.00000
    127       2.4651      0.00000
    128       2.5630      0.00000
    129       2.6509      0.00000
    130       2.7931      0.00000
    131       2.8792      0.00000
    132       2.8990      0.00000
    133       2.9193      0.00000
    134       2.9475      0.00000
    135       2.9641      0.00000
    136       3.0318      0.00000
    137       3.0799      0.00000
    138       3.6746      0.00000
    139       3.6797      0.00000
    140       3.7224      0.00000
    141       3.7903      0.00000
    142       3.8803      0.00000
    143       3.8956      0.00000
    144       4.0002      0.00000
    145       4.0406      0.00000
    146       4.2072      0.00000
    147       4.2935      0.00000
    148       4.3479      0.00000
    149       4.3750      0.00000
    150       4.5102      0.00000
    151       4.6604      0.00000
    152       4.7120      0.00000
    153       4.7376      0.00000
    154       4.7935      0.00000
    155       5.1426      0.00000
    156       5.4381      0.00000
    157       5.7113      0.00000
    158       6.2318      0.00000
    159       6.5297      0.00000
    160       6.6433      0.00000

 k-point     7 :      -0.3750    0.3750    0.1250
  band No.  band energies     occupation 
      1     -36.8574      1.00000
      2     -36.7297      1.00000
      3     -36.7291      1.00000
      4     -35.1184      1.00000
      5     -35.0873      1.00000
      6     -35.0380      1.00000
      7     -35.0075      1.00000
      8     -34.8976      1.00000
      9     -34.6639      1.00000
     10     -34.5877      1.00000
     11     -34.5072      1.00000
     12     -34.4453      1.00000
     13     -34.3970      1.00000
     14     -34.3495      1.00000
     15     -34.2731      1.00000
     16     -34.2359      1.00000
     17     -34.2281      1.00000
     18     -34.1973      1.00000
     19     -34.1260      1.00000
     20     -34.0893      1.00000
     21     -34.0689      1.00000
     22     -33.9946      1.00000
     23     -33.9247      1.00000
     24     -33.8488      1.00000
     25     -24.8110      1.00000
     26     -24.0991      1.00000
     27     -24.0517      1.00000
     28     -23.8148      1.00000
     29     -23.7698      1.00000
     30     -23.5354      1.00000
     31     -23.2489      1.00000
     32     -23.1305      1.00000
     33     -22.9965      1.00000
     34     -22.9365      1.00000
     35     -22.7553      1.00000
     36     -22.6376      1.00000
     37     -22.5782      1.00000
     38     -22.4725      1.00000
     39     -21.8550      1.00000
     40     -21.7737      1.00000
     41     -16.7433      1.00000
     42     -16.5749      1.00000
     43     -16.4961      1.00000
     44     -16.3576      1.00000
     45     -16.1441      1.00000
     46     -15.6898      1.00000
     47     -15.6366      1.00000
     48     -15.4281      1.00000
     49      -8.4645      1.00000
     50      -7.4540      1.00000
     51      -7.2035      1.00000
     52      -6.8590      1.00000
     53      -6.7703      1.00000
     54      -6.6912      1.00000
     55      -6.6334      1.00000
     56      -6.5255      1.00000
     57      -6.5043      1.00000
     58      -6.3956      1.00000
     59      -6.1780      1.00000
     60      -6.0389      1.00000
     61      -5.9995      1.00000
     62      -5.9594      1.00000
     63      -5.9079      1.00000
     64      -5.5612      1.00000
     65      -5.5110      1.00000
     66      -5.4722      1.00000
     67      -5.4356      1.00000
     68      -5.3864      1.00000
     69      -5.3013      1.00000
     70      -5.1930      1.00000
     71      -5.0594      1.00000
     72      -5.0113      1.00000
     73      -4.9914      1.00000
     74      -4.9672      1.00000
     75      -4.9235      1.00000
     76      -4.7848      1.00000
     77      -4.7514      1.00000
     78      -4.7335      1.00000
     79      -4.5999      1.00000
     80      -4.5909      1.00000
     81      -4.4891      1.00000
     82      -4.4385      1.00000
     83      -4.3733      1.00000
     84      -4.3600      1.00000
     85      -4.2905      1.00000
     86      -4.2569      1.00000
     87      -4.2289      1.00000
     88      -4.1216      1.00000
     89      -4.1098      1.00000
     90      -4.0779      1.00000
     91      -3.9878      1.00000
     92      -3.8861      1.00000
     93      -3.8628      1.00000
     94      -3.8318      1.00000
     95      -3.8256      1.00000
     96      -3.5669      1.00000
     97      -3.5108      1.00000
     98      -3.3639      1.00000
     99      -3.2666      1.00000
    100      -3.1861      1.00000
    101      -3.0372      1.00000
    102      -2.8708      1.00000
    103      -2.3153      1.00000
    104      -1.9581      1.00000
    105      -1.7769      1.00000
    106      -1.7383      1.00000
    107      -1.6294      1.00000
    108      -1.6092      1.00000
    109      -1.5152      1.00000
    110      -1.4875      1.00000
    111      -1.2614      1.00000
    112      -1.2270      1.00000
    113      -1.2111      1.00000
    114      -1.1166      1.00000
    115      -1.1019      1.00000
    116      -1.0686      1.00000
    117      -1.0477      1.00000
    118      -0.7839      1.00000
    119      -0.7603      1.00000
    120      -0.3539      1.00000
    121      -0.3031      1.00000
    122       1.1798      0.00000
    123       1.2016      0.00000
    124       1.2459      0.00000
    125       2.1709      0.00000
    126       2.3102      0.00000
    127       2.4651      0.00000
[...]
 -0.000   0.000   0.000  -0.000   0.000  -0.000  -0.000   0.000   0.000   0.001   0.000   0.000   0.000  -0.000  -0.000   0.000
 -0.000   0.000  -0.000  -0.000   0.000   0.000   0.000  -0.000  -0.000   0.000   0.002  -0.000  -0.000   0.000  -0.000   0.000
 -0.000  -0.000  -0.000  -0.000  -0.000  -0.000  -0.000  -0.000  -0.000   0.000  -0.000  -0.001  -0.000  -0.000  -0.000   0.000
  0.000   0.000   0.000  -0.000   0.000   0.000  -0.000   0.029  -0.000   0.000  -0.000  -0.000   0.012  -0.000   0.000  -0.000
 -0.000   0.000  -0.000   0.000  -0.000   0.000  -0.000  -0.000   0.001  -0.000   0.000  -0.000  -0.000  -0.002   0.000   0.000
 -0.000   0.000   0.000  -0.000   0.000   0.000  -0.000   0.000  -0.000  -0.000  -0.000  -0.000   0.000   0.000  -0.001   0.000
  0.000  -0.000  -0.000  -0.000  -0.000   0.000  -0.000  -0.000   0.000   0.000   0.000   0.000  -0.000   0.000   0.000  -0.003
  0.000  -0.000   0.000   0.000  -0.000   0.000   0.000  -0.000  -0.000   0.000  -0.001  -0.000  -0.000  -0.001  -0.000   0.002
 -0.000  -0.000  -0.000   0.000  -0.000   0.000   0.000  -0.000   0.002   0.000  -0.003  -0.000   0.000  -0.002  -0.000   0.004


------------------------ aborting loop because EDIFF is reached ----------------------------------------


 


 total charge     
 
# of ion       s       p       d       tot
------------------------------------------
    1        0.328   6.522   1.751   8.601
    2        0.249   6.359   1.849   8.457
    3        0.296   6.457   1.722   8.475
    4        0.307   6.465   1.693   8.465
    5        0.303   6.458   1.760   8.521
    6        0.308   6.459   1.736   8.502
    7        0.307   6.459   1.726   8.491
    8        0.307   6.459   1.722   8.488
    9        1.572   3.414   0.000   4.986
   10        1.572   3.409   0.000   4.981
   11        1.567   3.439   0.000   5.006
   12        1.567   3.439   0.000   5.006
   13        1.569   3.424   0.000   4.993
   14        1.569   3.424   0.000   4.993
   15        1.570   3.421   0.000   4.991
   16        1.570   3.421   0.000   4.991
   17        1.731   4.374   0.000   6.105
   18        1.729   4.387   0.000   6.116
   19        1.729   4.379   0.000   6.109
   20        1.729   4.379   0.000   6.108
   21        1.731   4.374   0.000   6.105
   22        1.729   4.387   0.000   6.116
   23        1.729   4.379   0.000   6.109
   24        1.729   4.379   0.000   6.108
   25        1.731   4.384   0.000   6.115
   26        1.729   4.395   0.000   6.124
   27        1.731   4.383   0.000   6.114
   28        1.729   4.394   0.000   6.123
   29        1.729   4.364   0.000   6.093
   30        1.729   4.365   0.000   6.093
   31        1.734   4.409   0.000   6.143
   32        1.734   4.409   0.000   6.143
--------------------------------------------------
tot         42.648 149.168  13.959 205.774
 


 magnetization (x)
 
# of ion       s       p       d       tot
------------------------------------------
    1        0.000   0.001   0.061   0.062
    2        0.004   0.007   0.881   0.892
    3        0.000   0.000   0.005   0.005
    4       -0.000  -0.000   0.006   0.006
    5       -0.001  -0.002  -0.052  -0.056
    6       -0.002  -0.003  -0.051  -0.055
    7       -0.001  -0.002  -0.044  -0.047
    8       -0.001  -0.002  -0.045  -0.049
    9        0.003   0.214   0.000   0.217
   10        0.004   0.228   0.000   0.231
   11       -0.000  -0.001   0.000  -0.001
   12       -0.000  -0.001   0.000  -0.001
   13        0.002   0.127   0.000   0.130
   14        0.002   0.127   0.000   0.130
   15        0.002   0.134   0.000   0.136
   16        0.002   0.134   0.000   0.136
   17       -0.000  -0.001   0.000  -0.001
   18       -0.000  -0.009   0.000  -0.009
   19       -0.000   0.000   0.000   0.000
   20       -0.000   0.000   0.000   0.000
   21       -0.000  -0.001   0.000  -0.001
   22       -0.000  -0.009   0.000  -0.009
   23       -0.000   0.000   0.000   0.000
   24       -0.000   0.000   0.000   0.000
   25       -0.000  -0.000   0.000  -0.000
   26       -0.000   0.005   0.000   0.005
   27       -0.000  -0.000   0.000  -0.000
   28       -0.000   0.005   0.000   0.005
   29        0.000   0.016   0.000   0.016
   30        0.000   0.016   0.000   0.016
   31       -0.000  -0.004   0.000  -0.004
   32       -0.000  -0.004   0.000  -0.004
--------------------------------------------------
tot          0.013   0.976   0.761   1.749
 
    CHARGE:  cpu time    1.1828: real time    1.1812
    FORLOC:  cpu time    0.0090: real time    0.0094
    FORNL :  cpu time    6.7880: real time    6.7789
    STRESS:  cpu time   20.2989: real time   20.2644
    FORCOR:  cpu time    0.1340: real time    0.1334
    FORHAR:  cpu time    0.0210: real time    0.0216
    MIXING:  cpu time    0.0020: real time    0.0016
    OFIELD:  cpu time    0.0000: real time    0.0000

  FORCE on cell =-STRESS in cart. coord.  units (eV):
  Direction    XX          YY          ZZ          XY          YZ          ZX
  --------------------------------------------------------------------------------------
  Alpha Z   747.81584   747.81584   747.81584
  Ewald   -4322.63491 -4279.83796 -4089.03556    -0.28470    -0.00118    -0.00323
  Hartree  2712.32334  2744.59048  2861.59367    -0.14092    -0.00067    -0.00185
  E(xc)   -1231.35151 -1231.73251 -1232.10411    -0.00084    -0.00000     0.00000
  Local   -2015.25101 -2119.48698 -2487.74250     0.36902     0.00182     0.00534
  n-local  -974.94287  -969.07107  -959.12210    -0.01610     0.00002    -0.00001
  augment   739.50030   754.28728   774.74677     0.03351     0.00001    -0.00021
  Kinetic  4344.53473  4353.44616  4383.77988     0.04041     0.00014    -0.00002
  Fock        0.00000     0.00000     0.00000     0.00000     0.00000     0.00000
  -------------------------------------------------------------------------------------
  Total      -0.00608     0.01125    -0.06811     0.00039     0.00014     0.00001
  in kB      -0.02082     0.03850    -0.23305     0.00132     0.00047     0.00005
  external pressure =       -0.07 kB  Pullay stress =        0.00 kB


 VOLUME and BASIS-vectors are now :
 -----------------------------------------------------------------------------
  energy-cutoff  :      700.00
  volume of cell :      468.25
      direct lattice vectors                 reciprocal lattice vectors
     7.919582516 -0.000246516 -0.000002430     0.126269282  0.000002778  0.000000042
    -0.000172179  7.825684263 -0.000003239     0.000003978  0.127784353  0.000000050
    -0.000002505 -0.000002947  7.555354253     0.000000041  0.000000055  0.132356468

  length of vectors
     7.919582520  7.825684264  7.555354253     0.126269282  0.127784353  0.132356468


 FORCES acting on ions
    electron-ion (+dipol)            ewald-force                    non-local-force                 convergence-correction
 -----------------------------------------------------------------------------------------------
   0.439E-02 0.399E+01 -.897E-01   -.438E-02 -.397E+01 0.976E-01   0.203E-05 -.227E-01 0.416E-03   -.119E-04 0.116E-02 -.512E-04
   0.234E-01 0.560E+01 -.202E-01   -.230E-01 -.552E+01 0.163E-01   -.240E-03 -.730E-01 0.303E-02   -.143E-05 0.821E-03 -.457E-04
   0.109E-01 -.630E+01 0.115E-01   -.109E-01 0.625E+01 -.109E-01   -.413E-04 0.558E-01 0.224E-03   -.478E-05 -.134E-02 0.208E-03
   0.174E-01 -.631E+01 0.276E-01   -.173E-01 0.626E+01 -.277E-01   -.157E-03 0.466E-01 -.784E-05   -.692E-05 -.538E-03 -.167E-03
   -.104E-01 0.215E+01 -.678E-02   0.103E-01 -.321E+01 0.616E-02   0.118E-03 0.105E+01 -.403E-05   0.330E-05 0.559E-02 0.769E-03
   -.191E-01 0.475E+01 0.503E-02   0.190E-01 -.572E+01 -.442E-02   0.128E-03 0.972E+00 0.179E-04   0.187E-04 -.745E-02 -.753E-03
   -.657E-02 -.538E+01 -.385E-02   0.658E-02 0.645E+01 0.283E-02   0.388E-04 -.107E+01 -.990E-05   0.324E-05 -.590E-02 0.103E-02
   -.827E-02 -.659E+01 0.432E-02   0.832E-02 0.761E+01 -.331E-02   -.660E-04 -.102E+01 0.104E-04   0.937E-05 0.767E-02 -.102E-02
   0.842E-03 0.128E+02 -.274E-02   -.157E-02 -.141E+02 0.237E-02   0.744E-03 0.128E+01 0.245E-04   0.202E-05 -.366E-03 0.376E-03
   -.557E-01 0.984E+01 0.249E-02   0.600E-01 -.108E+02 -.215E-02   -.455E-02 0.968E+00 -.893E-05   0.237E-04 -.757E-03 -.364E-03
   0.857E-02 -.344E+01 -.888E+01   -.881E-02 0.354E+01 0.964E+01   0.269E-03 -.943E-01 -.757E+00   -.500E-05 -.912E-03 -.105E-02
   0.900E-02 -.344E+01 0.880E+01   -.932E-02 0.354E+01 -.955E+01   0.358E-03 -.944E-01 0.748E+00   -.427E-05 -.907E-03 0.103E-02
   -.641E-02 -.913E+01 -.393E+01   0.639E-02 0.110E+02 0.432E+01   0.438E-04 -.186E+01 -.396E+00   0.620E-05 -.216E-03 0.107E-02
   -.733E-02 -.913E+01 0.393E+01   0.734E-02 0.110E+02 -.432E+01   0.154E-04 -.186E+01 0.396E+00   0.583E-05 -.204E-03 -.107E-02
   -.401E-02 0.590E+01 -.122E+01   0.391E-02 -.741E+01 0.135E+01   0.903E-04 0.150E+01 -.129E+00   0.507E-05 0.340E-03 0.970E-03
   -.402E-02 0.590E+01 0.122E+01   0.392E-02 -.741E+01 -.134E+01   0.878E-04 0.150E+01 0.128E+00   0.500E-05 0.327E-03 -.973E-03
   -.111E+03 -.443E+01 -.224E-01   0.121E+03 0.558E+01 0.255E-01   -.101E+02 -.115E+01 -.340E-02   -.117E-02 0.175E-02 0.201E-03
   -.617E+02 -.490E+01 0.362E-02   0.671E+02 0.625E+01 -.483E-02   -.544E+01 -.135E+01 0.166E-02   -.202E-04 -.937E-04 -.217E-03
   -.412E+02 0.512E+01 0.134E-02   0.449E+02 -.641E+01 -.191E-02   -.372E+01 0.129E+01 0.215E-03   -.178E-02 -.180E-02 0.265E-03
   -.418E+02 0.460E+01 0.104E-01   0.452E+02 -.590E+01 -.115E-01   -.344E+01 0.130E+01 0.135E-02   0.560E-04 0.319E-03 -.258E-03
   0.111E+03 -.441E+01 -.214E-01   -.121E+03 0.556E+01 0.244E-01   0.101E+02 -.115E+01 -.338E-02   0.117E-02 0.172E-02 0.201E-03
   0.617E+02 -.493E+01 0.375E-02   -.672E+02 0.630E+01 -.516E-02   0.545E+01 -.137E+01 0.187E-02   -.237E-05 -.311E-03 -.211E-03
   0.412E+02 0.511E+01 0.112E-02   -.449E+02 -.639E+01 -.170E-02   0.372E+01 0.129E+01 0.195E-03   0.178E-02 -.180E-02 0.265E-03
   0.418E+02 0.449E+01 0.106E-01   -.452E+02 -.578E+01 -.117E-01   0.344E+01 0.129E+01 0.132E-02   -.592E-04 0.327E-03 -.258E-03
   0.459E-02 -.729E+02 -.164E-01   -.481E-02 0.798E+02 0.190E-01   0.207E-03 -.693E+01 -.292E-02   0.602E-05 0.107E-02 0.113E-03
   0.352E-01 -.382E+01 0.105E-01   -.444E-01 0.237E+01 -.127E-01   0.948E-02 0.145E+01 0.248E-02   0.923E-04 0.278E-03 -.116E-03
   0.241E-02 0.745E+02 -.195E-01   -.153E-02 -.815E+02 0.226E-01   -.896E-03 0.697E+01 -.332E-02   -.193E-04 -.831E-03 0.112E-03
   -.459E-01 0.463E+01 0.131E-01   0.594E-01 -.332E+01 -.158E-01   -.136E-01 -.130E+01 0.287E-02   -.106E-03 -.482E-03 -.109E-03
   -.600E-02 -.623E+01 -.321E-02   0.645E-02 0.680E+01 0.292E-02   -.482E-03 -.573E+00 -.134E-03   0.214E-05 0.680E-03 0.419E-03
   0.360E-01 -.507E+01 0.284E-02   -.408E-01 0.543E+01 -.256E-02   0.506E-02 -.361E+00 0.135E-03   0.360E-05 0.333E-03 -.416E-03
   0.550E-02 0.298E+01 -.547E+02   -.520E-02 -.311E+01 0.620E+02   -.310E-03 0.131E+00 -.729E+01   -.542E-05 0.770E-03 -.141E-03
   0.516E-02 0.299E+01 0.549E+02   -.465E-02 -.312E+01 -.622E+02   -.514E-03 0.132E+00 0.731E+01   -.997E-05 0.771E-03 0.158E-03
 -----------------------------------------------------------------------------------------------
   0.196E-02 -.957E+00 -.127E-01   0.970E-13 0.114E-12 0.426E-13   -.144E-02 0.961E+00 0.128E-01   -.706E-05 0.163E-04 -.202E-04
 
 
 POSITION                                       TOTAL-FORCE (eV/Angst)
 -----------------------------------------------------------------------------------
      0.00001      0.00350      7.55521        -0.000013      0.000292      0.008253
      7.91956      0.00287      3.77768         0.000154      0.001420     -0.000860
      7.91947      3.91240      0.00004        -0.000032      0.000636      0.001068
     -0.00006      3.91233      3.77775        -0.000107      0.002999     -0.000348
      3.95962      7.73056      7.55535        -0.000008     -0.003190      0.000136
      3.95961      7.73712      3.77768         0.000072     -0.001365     -0.000123
      3.95967      3.99065     -0.00000         0.000036     -0.001457     -0.000005
      3.95972      3.99230      3.77768        -0.000017      0.001652      0.000003
      3.95961      5.88009      7.55535         0.000003      0.000872      0.000023
      3.95988      5.87850      3.77768        -0.000237      0.003316     -0.000034
      7.91948      3.92100      1.87084         0.000001      0.003527     -0.000170
      7.91947      3.92101      5.68447         0.000017      0.003550     -0.000126
      3.95962      7.82533      1.88130         0.000016      0.001632      0.000245
      3.95962      7.82533      5.67404         0.000019      0.001674     -0.000252
      3.95969      3.92236      1.88681        -0.000024     -0.004889      0.000439
      3.95969      3.92236      5.66853        -0.000024     -0.004918     -0.000464
      1.88484      0.01526      0.00000        -0.000447     -0.001425     -0.000121
      1.93076      0.02143      3.77768         0.000634      0.001611      0.000235
      1.94556      3.88823      7.55534         0.000269     -0.003506     -0.000089
      1.94786      3.89025      3.77767         0.000974     -0.000033     -0.000009
      6.03476      0.01508     -0.00000         0.000415     -0.001332     -0.000127
      5.98883      0.02212      3.77767        -0.000792      0.000720      0.000252
      5.97380      3.88815      7.55534        -0.000289     -0.003413     -0.000118
      5.97156      3.89057      3.77767        -0.000839     -0.000344     -0.000016
      7.91951      1.89705      7.55534        -0.000020     -0.001191     -0.000179
      7.91914      1.97503      3.77767         0.000342      0.000938      0.000117
     -0.00010      5.93283      0.00000        -0.000044      0.001387     -0.000178
      0.00043      5.85422      3.77766        -0.000220      0.003095      0.000125
      3.95975      1.94248     -0.00000        -0.000043     -0.001272     -0.000002
      3.95952      1.94889      3.77768         0.000258     -0.000305     -0.000005
     -0.00017      7.82385      1.83764        -0.000032     -0.000313     -0.004927
     -0.00016      7.82383      5.71783        -0.000023     -0.000370     -0.002744
 -----------------------------------------------------------------------------------
    total drift:                                0.000513      0.004534      0.000032


--------------------------------------------------------------------------------------------------------



  FREE ENERGIE OF THE ION-ELECTRON SYSTEM (eV)
  ---------------------------------------------------
  free  energy   TOTEN  =      -209.22186356 eV

  energy  without entropy=     -209.22186356  energy(sigma->0) =     -209.22186356
 


--------------------------------------------------------------------------------------------------------


    POTLOK:  cpu time    0.9799: real time    0.9771


--------------------------------------------------------------------------------------------------------


 stress matrix after NEB project (eV)
     -0.00608      0.00039      0.00001
      0.00039      0.01125      0.00014
      0.00001      0.00014     -0.06811
  FORCES: max atom, RMS     0.008258    0.002915
  FORCE total and by dimension    0.016487    0.008253
  Stress total and by dimension    0.069304    0.068111
 Quasi-Newton relaxation of ions (Broydens 2nd method)
  g(Force)  = 0.131E-04   g(Stress)= 0.724E-05

 Reset! Starting new Quasi-Newton update for ions 


--------------------------------------------------------------------------------------------------------


  
 reached required accuracy - stopping structural energy minimisation
 writing wavefunctions
     LOOP+:  cpu time  117.3762: real time  119.4989
    4ORBIT:  cpu time    0.0000: real time    0.0000
 


 total charge     
 
# of ion       s       p       d       tot
------------------------------------------
    1        0.328   6.522   1.751   8.601
    2        0.249   6.359   1.849   8.457
    3        0.296   6.457   1.722   8.475
    4        0.307   6.465   1.693   8.465
    5        0.303   6.458   1.760   8.521
    6        0.308   6.459   1.736   8.502
    7        0.307   6.459   1.726   8.491
    8        0.307   6.459   1.722   8.488
    9        1.572   3.414   0.000   4.986
   10        1.572   3.409   0.000   4.981
   11        1.567   3.439   0.000   5.006
   12        1.567   3.439   0.000   5.006
   13        1.569   3.424   0.000   4.993
   14        1.569   3.424   0.000   4.993
   15        1.570   3.421   0.000   4.991
   16        1.570   3.421   0.000   4.991
   17        1.731   4.374   0.000   6.105
   18        1.729   4.387   0.000   6.116
   19        1.729   4.379   0.000   6.109
   20        1.729   4.379   0.000   6.108
   21        1.731   4.374   0.000   6.105
   22        1.729   4.387   0.000   6.116
   23        1.729   4.379   0.000   6.109
   24        1.729   4.379   0.000   6.108
   25        1.731   4.384   0.000   6.115
   26        1.729   4.395   0.000   6.124
   27        1.731   4.383   0.000   6.114
   28        1.729   4.394   0.000   6.123
   29        1.729   4.364   0.000   6.093
   30        1.729   4.365   0.000   6.093
   31        1.734   4.409   0.000   6.143
   32        1.734   4.409   0.000   6.143
--------------------------------------------------
tot         42.648 149.168  13.959 205.774
 


 magnetization (x)
 
# of ion       s       p       d       tot
------------------------------------------
    1        0.000   0.001   0.061   0.062
    2        0.004   0.007   0.881   0.892
    3        0.000   0.000   0.005   0.005
    4       -0.000  -0.000   0.006   0.006
    5       -0.001  -0.002  -0.052  -0.056
    6       -0.002  -0.003  -0.051  -0.055
    7       -0.001  -0.002  -0.044  -0.047
    8       -0.001  -0.002  -0.045  -0.049
    9        0.003   0.214   0.000   0.217
   10        0.004   0.228   0.000   0.231
   11       -0.000  -0.001   0.000  -0.001
   12       -0.000  -0.001   0.000  -0.001
   13        0.002   0.127   0.000   0.130
   14        0.002   0.127   0.000   0.130
   15        0.002   0.134   0.000   0.136
   16        0.002   0.134   0.000   0.136
   17       -0.000  -0.001   0.000  -0.001
   18       -0.000  -0.009   0.000  -0.009
   19       -0.000   0.000   0.000   0.000
   20       -0.000   0.000   0.000   0.000
   21       -0.000  -0.001   0.000  -0.001
   22       -0.000  -0.009   0.000  -0.009
   23       -0.000   0.000   0.000   0.000
   24       -0.000   0.000   0.000   0.000
   25       -0.000  -0.000   0.000  -0.000
   26       -0.000   0.005   0.000   0.005
   27       -0.000  -0.000   0.000  -0.000
   28       -0.000   0.005   0.000   0.005
   29        0.000   0.016   0.000   0.016
   30        0.000   0.016   0.000   0.016
   31       -0.000  -0.004   0.000  -0.004
   32       -0.000  -0.004   0.000  -0.004
--------------------------------------------------
tot          0.013   0.976   0.761   1.749
 

 total amount of memory used by VASP MPI-rank0   107553. kBytes
=======================================================================

   base      :      30000. kBytes
   nonlr-proj:       8449. kBytes
   fftplans  :       8424. kBytes
   grid      :       8783. kBytes
   one-center:        124. kBytes
   wavefun   :      51773. kBytes
 
  
  
 General timing and accounting informations for this job:
 ========================================================
  
                  Total CPU time used (sec):      170.244
                            User time (sec):      149.732
                          System time (sec):       20.512
                         Elapsed time (sec):      177.491
  
                   Maximum memory used (kb):      223464.
                   Average memory used (kb):           0.
  
                          Minor page faults:        86278
                          Major page faults:            2
                 Voluntary context switches:        69338
