       N       E                     dE             d eps       ncg     rms          rms(c)
DAV:   1    -0.211828423137E+03   -0.21183E+03   -0.40161E-03  2560   0.388E-01    0.743E-03
DAV:   2    -0.211828422411E+03    0.72581E-06   -0.52629E-06  3200   0.169E-02
   1 F= -.21182842E+03 E0= -.21182842E+03  d E =-.211828E+03  mag=     0.0000
