 vasp.5.4.4.18Apr17-6-g9f103f2a35 (build Jul 16 2019 12:12:28) complex          
  
 executed on             LinuxIFC date 2020.01.06  11:58:00
 running on   96 total cores
 distrk:  each k-point on   96 cores,    1 groups
 distr:  one band on NCORES_PER_BAND=   8 cores,   12 groups


--------------------------------------------------------------------------------------------------------


 INCAR:
 POTCAR:    PAW_PBE Li_sv 10Sep2004               
 POTCAR:    PAW_PBE Ti_pv 07Sep2000               
 POTCAR:    PAW_PBE O 08Apr2002                   
 POTCAR:    PAW_PBE F 08Apr2002                   
 POTCAR:    PAW_PBE Li_sv 10Sep2004               
   VRHFIN =Li: 1s2s2p                                                           
   LEXCH  = PE                                                                  
   EATOM  =   202.7858 eV,   14.9043 Ry                                         
                                                                                
   TITEL  = PAW_PBE Li_sv 10Sep2004                                             
   LULTRA =        F    use ultrasoft PP ?                                      
   IUNSCR =        0    unscreen: 0-lin 1-nonlin 2-no                           
   RPACOR =    0.000    partial core radius                                     
   POMASS =    7.010; ZVAL   =    3.000    mass and valenz                      
   RCORE  =    1.700    outmost cutoff radius                                   
   RWIGS  =    2.050; RWIGS  =    1.085    wigner-seitz radius (au A)           
   ENMAX  =  499.034; ENMIN  =  374.276 eV                                      
   ICORE  =        2    local potential                                         
   LCOR   =        T    correct aug charges                                     
   LPAW   =        T    paw PP                                                  
   EAUG   =  628.945                                                            
   RMAX   =    1.732    core radius for proj-oper                               
   RAUG   =    1.300    factor for augmentation sphere                          
   RDEP   =    1.728    radius for radial grids                                 
   RDEPT  =    1.329    core radius for aug-charge                              
                                                                                
   Atomic configuration                                                         
    4 entries                                                                   
     n  l   j            E        occ.                                          
     1  0  0.50       -51.8549   2.0000                                         
     2  0  0.50        -2.8742   1.0000                                         
     2  1  0.50        -1.3606   0.0000                                         
     3  2  1.50        -1.3606   0.0000                                         
   Description                                                                  
     l       E           TYP  RCUT    TYP  RCUT                                 
     0    -51.8548813     23  1.400                                             
     0     -2.8742052     23  1.700                                             
     1     -1.3605826     23  1.400                                             
     2     -1.3605826     23  1.400                                             
  local pseudopotential read in
  atomic valenz-charges read in
  non local Contribution for L=           0  read in
    real space projection operators read in
  non local Contribution for L=           0  read in
    real space projection operators read in
  non local Contribution for L=           1  read in
    real space projection operators read in
    PAW grid and wavefunctions read in
 
   number of l-projection  operators is LMAX  =           3
   number of lm-projection operators is LMMAX =           5
 
 POTCAR:    PAW_PBE Ti_pv 07Sep2000               
   VRHFIN =Ti: d3 s1                                                            
   LEXCH  = PE                                                                  
   EATOM  =  1042.5995 eV,   76.6289 Ry                                         
                                                                                
   TITEL  = PAW_PBE Ti_pv 07Sep2000                                             
   LULTRA =        F    use ultrasoft PP ?                                      
   IUNSCR =        1    unscreen: 0-lin 1-nonlin 2-no                           
   RPACOR =    2.200    partial core radius                                     
   POMASS =   47.880; ZVAL   =   10.000    mass and valenz                      
   RCORE  =    2.500    outmost cutoff radius                                   
   RWIGS  =    2.500; RWIGS  =    1.323    wigner-seitz radius (au A)           
   ENMAX  =  222.335; ENMIN  =  166.751 eV                                      
   RCLOC  =    1.701    cutoff for local pot                                    
   LCOR   =        T    correct aug charges                                     
   LPAW   =        T    paw PP                                                  
   EAUG   =  482.848                                                            
   DEXC   =    0.000                                                            
   RMAX   =    2.564    core radius for proj-oper                               
   RAUG   =    1.300    factor for augmentation sphere                          
   RDEP   =    2.538    radius for radial grids                                 
   RDEPT  =    1.952    core radius for aug-charge                              
                                                                                
   Atomic configuration                                                         
    8 entries                                                                   
     n  l   j            E        occ.                                          
     1  0  0.50     -4865.3608   2.0000                                         
     2  0  0.50      -533.1368   2.0000                                         
     2  1  1.50      -440.5031   6.0000                                         
     3  0  0.50       -59.3186   2.0000                                         
     3  1  1.50       -35.7012   6.0000                                         
     3  2  2.50        -1.9157   3.0000                                         
     4  0  0.50        -3.7291   1.0000                                         
     4  3  2.50        -1.3606   0.0000                                         
   Description                                                                  
     l       E           TYP  RCUT    TYP  RCUT                                 
     1    -35.7012140     23  2.300                                             
     1     -1.3605826     23  2.300                                             
     2     -1.9156996     23  2.500                                             
     2     -0.4063033     23  2.500                                             
     0     -3.7290856     23  2.500                                             
     0     20.4087390     23  2.500                                             
  local pseudopotential read in
  partial core-charges read in
  partial kinetic energy density read in
  atomic valenz-charges read in
  non local Contribution for L=           1  read in
    real space projection operators read in
  non local Contribution for L=           1  read in
    real space projection operators read in
  non local Contribution for L=           2  read in
    real space projection operators read in
  non local Contribution for L=           2  read in
    real space projection operators read in
  non local Contribution for L=           0  read in
    real space projection operators read in
  non local Contribution for L=           0  read in
    real space projection operators read in
    PAW grid and wavefunctions read in
 
   number of l-projection  operators is LMAX  =           6
   number of lm-projection operators is LMMAX =          18
 
 POTCAR:    PAW_PBE O 08Apr2002                   
   VRHFIN =O: s2p4                                                              
   LEXCH  = PE                                                                  
   EATOM  =   432.3788 eV,   31.7789 Ry                                         
                                                                                
   TITEL  = PAW_PBE O 08Apr2002                                                 
   LULTRA =        F    use ultrasoft PP ?                                      
   IUNSCR =        1    unscreen: 0-lin 1-nonlin 2-no                           
   RPACOR =    1.200    partial core radius                                     
   POMASS =   16.000; ZVAL   =    6.000    mass and valenz                      
   RCORE  =    1.520    outmost cutoff radius                                   
   RWIGS  =    1.550; RWIGS  =    0.820    wigner-seitz radius (au A)           
   ENMAX  =  400.000; ENMIN  =  300.000 eV                                      
   ICORE  =        2    local potential                                         
   LCOR   =        T    correct aug charges                                     
   LPAW   =        T    paw PP                                                  
   EAUG   =  605.392                                                            
   DEXC   =    0.000                                                            
   RMAX   =    1.553    core radius for proj-oper                               
   RAUG   =    1.300    factor for augmentation sphere                          
   RDEP   =    1.550    radius for radial grids                                 
   RDEPT  =    1.329    core radius for aug-charge                              
                                                                                
   Atomic configuration                                                         
    4 entries                                                                   
     n  l   j            E        occ.                                          
     1  0  0.50      -514.6923   2.0000                                         
     2  0  0.50       -23.9615   2.0000                                         
     2  1  0.50        -9.0305   4.0000                                         
     3  2  1.50        -9.5241   0.0000                                         
   Description                                                                  
     l       E           TYP  RCUT    TYP  RCUT                                 
     0    -23.9615318     23  1.200                                             
     0     -9.5240782     23  1.200                                             
     1     -9.0304911     23  1.520                                             
     1      8.1634956     23  1.520                                             
     2     -9.5240782      7  1.500                                             
  local pseudopotential read in
  partial core-charges read in
  partial kinetic energy density read in
  kinetic energy density of atom read in
  atomic valenz-charges read in
  non local Contribution for L=           0  read in
    real space projection operators read in
  non local Contribution for L=           0  read in
    real space projection operators read in
  non local Contribution for L=           1  read in
    real space projection operators read in
  non local Contribution for L=           1  read in
    real space projection operators read in
    PAW grid and wavefunctions read in
 
   number of l-projection  operators is LMAX  =           4
   number of lm-projection operators is LMMAX =           8
 
 POTCAR:    PAW_PBE F 08Apr2002                   
   VRHFIN =F: s2p5                                                              
   LEXCH  = PE                                                                  
   EATOM  =   659.6475 eV,   48.4827 Ry                                         
                                                                                
   TITEL  = PAW_PBE F 08Apr2002                                                 
   LULTRA =        F    use ultrasoft PP ?                                      
   IUNSCR =        1    unscreen: 0-lin 1-nonlin 2-no                           
   RPACOR =    1.200    partial core radius                                     
   POMASS =   18.998; ZVAL   =    7.000    mass and valenz                      
   RCORE  =    1.520    outmost cutoff radius                                   
   RWIGS  =    1.500; RWIGS  =    0.794    wigner-seitz radius (au A)           
   ENMAX  =  400.000; ENMIN  =  300.000 eV                                      
   ICORE  =        2    local potential                                         
   LCOR   =        T    correct aug charges                                     
   LPAW   =        T    paw PP                                                  
   EAUG   =  613.614                                                            
   RMAX   =    1.555    core radius for proj-oper                               
   RAUG   =    1.300    factor for augmentation sphere                          
   RDEP   =    1.539    radius for radial grids                                 
   RDEPT  =    1.299    core radius for aug-charge                              
                                                                                
   Atomic configuration                                                         
    4 entries                                                                   
     n  l   j            E        occ.                                          
     1  0  0.50      -663.3661   2.0000                                         
     2  0  0.50       -29.8995   2.0000                                         
     2  1  0.50       -11.1114   5.0000                                         
     3  2  1.50       -10.8847   0.0000                                         
   Description                                                                  
     l       E           TYP  RCUT    TYP  RCUT                                 
     0    -29.8995018     23  1.200                                             
     0     -9.5240782     23  1.200                                             
     1    -11.1113914     23  1.520                                             
     1      1.3605826     23  1.520                                             
     2    -10.8846608      7  1.500                                             
  local pseudopotential read in
  partial core-charges read in
  partial kinetic energy density read in
  atomic valenz-charges read in
  non local Contribution for L=           0  read in
    real space projection operators read in
  non local Contribution for L=           0  read in
    real space projection operators read in
  non local Contribution for L=           1  read in
    real space projection operators read in
  non local Contribution for L=           1  read in
    real space projection operators read in
    PAW grid and wavefunctions read in
 
   number of l-projection  operators is LMAX  =           4
   number of lm-projection operators is LMMAX =           8
 
 Optimization of the real space projectors (new method)

 maximal supplied QI-value         = 22.11
 optimisation between [QCUT,QGAM] = [ 11.28, 22.77] = [ 35.61,145.23] Ry 
 Optimized for a Real-space Cutoff    1.31 Angstroem

   l    n(q)    QCUT    max X(q) W(low)/X(q) W(high)/X(q)  e(spline) 
   0      9    11.276    10.506    0.19E-04    0.17E-04    0.32E-07
   0      9    11.276     8.367    0.38E-04    0.40E-04    0.65E-07
   1      8    11.276     8.983    0.55E-04    0.98E-04    0.20E-06
 Optimization of the real space projectors (new method)

 maximal supplied QI-value         = 15.12
 optimisation between [QCUT,QGAM] = [ 11.34, 22.83] = [ 36.00,145.93] Ry 
 Optimized for a Real-space Cutoff    1.56 Angstroem

   l    n(q)    QCUT    max X(q) W(low)/X(q) W(high)/X(q)  e(spline) 
   1     10    11.338     4.216    0.27E-04    0.12E-04    0.66E-07
   1     10    11.338     5.422    0.81E-04    0.24E-04    0.19E-06
   2     10    11.338    72.084    0.64E-04    0.21E-03    0.51E-06
   2     10    11.338    65.965    0.63E-04    0.21E-03    0.50E-06
   0     11    11.338    41.531    0.33E-04    0.54E-04    0.13E-06
   0     11    11.338    16.290    0.26E-04    0.41E-04    0.11E-06
 Optimization of the real space projectors (new method)

 maximal supplied QI-value         = 24.76
 optimisation between [QCUT,QGAM] = [ 11.39, 22.77] = [ 36.31,145.25] Ry 
 Optimized for a Real-space Cutoff    1.20 Angstroem

   l    n(q)    QCUT    max X(q) W(low)/X(q) W(high)/X(q)  e(spline) 
   0      8    11.387    20.381    0.89E-04    0.31E-03    0.27E-06
   0      8    11.387    15.268    0.93E-04    0.32E-03    0.29E-06
   1      8    11.387     5.964    0.53E-04    0.28E-03    0.29E-06
   1      8    11.387     5.382    0.37E-04    0.22E-03    0.26E-06
 Optimization of the real space projectors (new method)

 maximal supplied QI-value         = 24.76
 optimisation between [QCUT,QGAM] = [ 11.39, 22.77] = [ 36.31,145.25] Ry 
 Optimized for a Real-space Cutoff    1.20 Angstroem

   l    n(q)    QCUT    max X(q) W(low)/X(q) W(high)/X(q)  e(spline) 
   0      8    11.387    14.049    0.69E-04    0.23E-03    0.18E-06
   0      8    11.387     8.945    0.88E-04    0.30E-03    0.26E-06
   1      8    11.387     7.086    0.62E-04    0.27E-03    0.27E-06
   1      8    11.387     6.747    0.46E-04    0.23E-03    0.25E-06

 ----------------------------------------------------------------------------- 
|                                                                             |
|  ADVICE TO THIS USER RUNNING 'VASP/VAMP'   (HEAR YOUR MASTER'S VOICE ...):  |
|                                                                             |
|      You enforced a specific xc-type in the INCAR file,                     |
|      a different type was found on the POTCAR file                          |
|          I HOPE YOU KNOW, WHAT YOU ARE  DOING                               |
|                                                                             |
 ----------------------------------------------------------------------------- 

  PAW_PBE Li_sv 10Sep2004               :
 energy of atom  1       EATOM= -202.7858
 kinetic energy error for atom=    0.0143 (will be added to EATOM!!)
  PAW_PBE Ti_pv 07Sep2000               :
 energy of atom  2       EATOM=-1042.5995
 kinetic energy error for atom=    0.0024 (will be added to EATOM!!)
  PAW_PBE O 08Apr2002                   :
 energy of atom  3       EATOM= -432.3788
 kinetic energy error for atom=    0.0224 (will be added to EATOM!!)
  PAW_PBE F 08Apr2002                   :
 energy of atom  4       EATOM= -659.6475
 kinetic energy error for atom=    0.0354 (will be added to EATOM!!)
 
 
 POSCAR: config 38                               
  positions in direct lattice
  velocities in cartesian coordinates
 exchange correlation table for  LEXCH =       14
   RHO(1)=    0.500       N(1)  =     2000
   RHO(2)=  100.500       N(2)  =     4000

 VTST: version 3.2, (02/03/18)

 CHAIN: initializing optimizer
 
 OPT: Using VASP QUASI-newton optimizer
 CHAIN: Read ICHAIN            0
 
 POSCAR: config 38                               
  positions in direct lattice
  velocities in cartesian coordinates
 


--------------------------------------------------------------------------------------------------------


 ion  position               nearest neighbor table
   1  0.613  0.395  0.401- 176 1.92  69 2.09  93 2.14
   2  0.996  0.995  0.995- 118 1.87  68 1.88 103 1.89 171 2.02 130 2.04 212 2.04
   3  0.998  0.992  0.494- 119 1.82  67 1.83 172 1.96 193 1.98 131 2.00 213 2.10
   4  0.007  0.496  0.997-  89 1.84 117 1.86 138 1.93 132 1.98 214 2.01 194 2.03
   5  0.996  0.505  0.507-  66 1.82 104 1.85 215 1.93 173 2.00 223 2.01 137 2.03
   6  0.495  0.993  0.001- 101 1.84 121 1.86 140 1.96 133 1.98 174 2.02 216 2.03
   7  0.503  0.009  0.498- 112 1.73 191 1.94 134 1.95 139 1.96 175 1.96 225 2.10
   8  0.505  0.494  0.998- 120 1.88  70 1.89  90 1.89 192 2.02 135 2.06 217 2.06
   9  0.489  0.501  0.497- 102 1.78  69 1.92 224 1.94 136 1.98 218 1.99 176 2.18
  10  0.007  0.002  0.256-  91 1.83  67 1.86 219 1.95 227 1.97 130 2.00 197 2.06
  11  0.002  0.008  0.757-  68 1.79 113 1.84 177 1.94 198 1.98 228 2.04 131 2.07
  12  0.994  0.494  0.251- 107 1.83 122 1.85 137 1.93 132 1.96 220 2.00 178 2.02
  13  0.993  0.500  0.742- 108 1.82  66 1.83 226 1.93 221 1.96 138 2.02 179 2.05
  14  0.506  0.008  0.252-  92 1.83 114 1.83 133 1.94 139 1.97 195 2.00 231 2.08
  15  0.493  0.005  0.753- 105 1.81 115 1.84 140 1.95 134 1.99 232 2.03 180 2.04
  16  0.493  0.496  0.258- 106 1.82  69 1.86 229 1.96 222 2.01 135 2.01 181 2.07
  17  0.502  0.503  0.760-  70 1.80 116 1.88 182 1.95 196 1.97 230 2.03 136 2.13
  18  0.996  0.258  0.002- 117 1.82 110 1.88 141 1.97 146 1.98 183 2.01 212 2.02
  19  0.996  0.249  0.491-  74 1.78 213 1.92 202 1.93 184 1.95 223 1.96 142 2.02
  20  0.999  0.758  0.006- 118 1.81  71 1.86 203 1.95 185 1.98 148 2.04 214 2.06
  21  0.996  0.758  0.506- 119 1.83  72 1.84 204 1.96 186 1.98 147 2.01 215 2.05
  22  0.496  0.258  0.003- 120 1.81 109 1.85 150 1.96 143 1.99 187 2.04 216 2.08
  23  0.507  0.246  0.497-  93 1.96 112 2.00 144 2.01 199 2.02 149 2.05 224 2.06
  24  0.508  0.756  0.000-  94 1.83 121 1.84 152 1.95 145 2.00 200 2.02 217 2.03
  25  0.507  0.753  0.509-  73 1.79  95 1.84 225 1.94 218 2.00 201 2.03 151 2.08
  26  0.998  0.258  0.255- 122 1.80  74 1.88 209 1.95 188 1.96 141 2.00 219 2.02
  27  0.006  0.243  0.748- 113 1.80  96 1.83 142 1.97 146 1.98 210 2.05 226 2.05
  28  0.007  0.749  0.243-  71 1.82  97 1.84 220 1.95 227 1.98 147 2.05 211 2.06
  29  0.993  0.751  0.743- 111 1.83  72 1.84 228 1.93 221 1.98 189 2.02 148 2.02
  30  0.508  0.242  0.252- 114 1.83  98 1.85 149 1.93 143 1.95 205 2.03 229 2.05
  31  0.507  0.242  0.752- 115 1.85  99 1.85 144 1.93 150 1.96 206 2.02 230 2.05
  32  0.507  0.751  0.252- 100 1.79 151 1.92 231 1.94 145 1.95 222 1.97 207 2.00
  33  0.502  0.740  0.744- 116 1.81  73 1.85 190 1.93 208 1.97 152 2.04 232 2.06
  34  0.257  0.998  0.006-  75 1.85 101 1.86 246 1.94 233 1.97 171 2.02 157 2.04
  35  0.252  0.993  0.506- 128 1.83  76 1.84 172 1.97 191 1.98 156 2.02 234 2.04
  36  0.245  0.508  0.998- 123 1.82  89 1.84 159 1.94 153 1.98 192 2.03 245 2.04
  37  0.253  0.494  0.506-  77 1.85 127 1.88 102 1.90 173 2.02 158 2.05 235 2.06
  38  0.757  0.000  0.994- 103 1.79  81 1.87 236 1.96 249 1.96 154 2.04 174 2.06
  39  0.748  0.010  0.495- 124 1.83  80 1.84 193 1.96 175 1.98 155 1.99 250 2.08
  40  0.742  0.501  0.004-  90 1.80  78 1.88 237 1.96 247 1.96 161 2.02 194 2.05
  41  0.759  0.500  0.506-  79 1.83 104 1.83 238 1.98 248 1.98 160 2.04 176 2.07
  42  0.245  0.001  0.243-  75 1.83  91 1.85 239 1.94 252 1.97 156 2.04 195 2.06
  43  0.258  0.998  0.744- 105 1.83  76 1.84 253 1.93 240 1.97 177 2.03 157 2.03
  44  0.255  0.492  0.252- 129 1.82 106 1.85 158 1.93 153 1.96 178 2.03 241 2.04
  45  0.248  0.506  0.741-  77 1.80 125 1.83 179 1.95 196 1.98 251 2.02 159 2.06
  46  0.744  1.000  0.256-  80 1.85  92 1.85 256 1.95 242 1.96 197 2.00 154 2.00
  47  0.748  0.007  0.756-  81 1.82 126 1.83 180 1.94 198 1.97 257 2.05 155 2.07
  48  0.757  0.499  0.241-  78 1.80 107 1.84 243 1.95 254 1.97 181 2.03 160 2.08
  49  0.758  0.499  0.743- 108 1.83  79 1.84 255 1.93 244 1.97 161 2.03 182 2.03
  50  0.257  0.252  0.006- 109 1.83  82 1.86 245 1.94 233 1.97 168 2.02 183 2.07
  51  0.252  0.256  0.505- 127 1.82  83 1.85 199 1.97 184 2.03 167 2.04 234 2.06
  52  0.253  0.742  0.994- 123 1.82  86 1.84 200 1.94 185 1.97 162 2.03 246 2.04
  53  0.253  0.755  0.493-  85 1.83 128 1.86 201 1.96 186 1.99 235 2.02 163 2.03
  54  0.757  0.252  0.007- 110 1.81  84 1.87 236 1.94 247 1.95 170 2.04 187 2.04
  55  0.738  0.245  0.495-  93 1.81 124 1.84 169 1.95 164 1.98 248 2.06 202 2.11
  56  0.742  0.749  0.994-  94 1.82  88 1.83 249 1.95 237 1.95 203 2.02 165 2.04
  57  0.741  0.754  0.494-  95 1.82  87 1.86 250 1.94 238 2.00 166 2.00 204 2.06
  58  0.251  0.257  0.243-  82 1.82 129 1.83 205 1.97 188 2.00 239 2.03 167 2.04
  59  0.243  0.252  0.744-  83 1.84  96 1.84 251 1.94 240 1.97 168 2.04 206 2.05
  60  0.244  0.748  0.256-  97 1.83  85 1.84 241 1.94 252 1.97 162 2.03 207 2.06
  61  0.248  0.742  0.757- 125 1.82  86 1.84 189 1.93 208 1.97 253 2.03 163 2.04
  62  0.741  0.252  0.242-  84 1.80  98 1.84 242 1.94 254 1.95 209 2.05 169 2.07
  63  0.744  0.243  0.750- 126 1.82  99 1.83 170 1.95 164 2.02 210 2.03 255 2.05
  64  0.745  0.750  0.257-  87 1.81 100 1.90 256 1.95 243 1.95 211 1.98 165 2.02
  65  0.758  0.750  0.757- 111 1.82  88 1.84 257 1.93 244 1.97 190 2.03 166 2.05
  66  0.009  0.504  0.624-   5 1.82  13 1.83
  67  0.997  0.004  0.376-   3 1.83  10 1.86
  68  0.003  0.002  0.873-  11 1.79   2 1.88
  69  0.508  0.477  0.376-  16 1.86   9 1.92   1 2.09
  70  0.495  0.488  0.876-  17 1.80   8 1.89
  71  1.000  0.745  0.126-  28 1.82  20 1.86
  72  0.003  0.745  0.624-  21 1.84  29 1.84
  73  0.504  0.739  0.625-  25 1.79  33 1.85
  74  0.986  0.249  0.376-  19 1.78  26 1.88
  75  0.257  0.001  0.125-  42 1.83  34 1.85
  76  0.258  0.003  0.625-  35 1.84  43 1.84
  77  0.241  0.494  0.625-  45 1.80  37 1.85
  78  0.752  0.488  0.125-  48 1.80  40 1.88
  79  0.747  0.492  0.624-  41 1.83  49 1.84
  80  0.748  0.002  0.376-  39 1.84  46 1.85
  81  0.744  0.002  0.874-  47 1.82  38 1.87
  82  0.238  0.251  0.126-  58 1.82  50 1.86
  83  0.245  0.251  0.624-  59 1.84  51 1.85
  84  0.734  0.263  0.126-  62 1.80  54 1.87
  85  0.255  0.744  0.375-  53 1.83  60 1.84
  86  0.253  0.751  0.875-  61 1.84  52 1.84
  87  0.752  0.749  0.374-  64 1.81  57 1.86
  88  0.750  0.749  0.876-  56 1.83  65 1.84
  89  0.125  0.508  0.995-   4 1.84  36 1.84
  90  0.626  0.511  0.999-  40 1.80   8 1.89
  91  0.125  0.999  0.250-  10 1.83  42 1.85
  92  0.624  0.995  0.248-  14 1.83  46 1.85
  93  0.627  0.278  0.474-  55 1.81  23 1.96   1 2.14
  94  0.625  0.737  0.002-  56 1.82  24 1.83
  95  0.625  0.770  0.496-  57 1.82  25 1.84
  96  0.124  0.253  0.756-  27 1.83  59 1.84
  97  0.125  0.756  0.253-  60 1.83  28 1.84
  98  0.625  0.257  0.270-  62 1.84  30 1.85
  99  0.626  0.254  0.758-  63 1.83  31 1.85
 100  0.623  0.758  0.252-  32 1.79  64 1.90
 101  0.376  0.995  0.991-   6 1.84  34 1.86
 102  0.374  0.516  0.499-   9 1.78  37 1.90
 103  0.873  0.997  0.998-  38 1.79   2 1.89
 104  0.877  0.516  0.499-  41 1.83   5 1.85
 105  0.376  0.997  0.760-  15 1.81  43 1.83
 106  0.375  0.501  0.254-  16 1.82  44 1.85
 107  0.876  0.504  0.253-  12 1.83  48 1.84
 108  0.876  0.511  0.745-  13 1.82  49 1.83
 109  0.376  0.252  0.012-  50 1.83  22 1.85
 110  0.874  0.254  0.012-  54 1.81  18 1.88
 111  0.875  0.742  0.748-  65 1.82  29 1.83
 112  0.522  0.118  0.484-   7 1.73  23 2.00
 113  0.998  0.126  0.745-  27 1.80  11 1.84
 114  0.503  0.125  0.271-  30 1.83  14 1.83
 115  0.503  0.123  0.763-  15 1.84  31 1.85
 116  0.504  0.624  0.760-  33 1.81  17 1.88
 117  0.005  0.376  0.005-  18 1.82   4 1.86
 118  0.007  0.875  0.002-  20 1.81   2 1.87
 119  0.980  0.875  0.500-   3 1.82  21 1.83
 120  0.508  0.374  0.016-  22 1.81   8 1.88
 121  0.508  0.874  0.015-  24 1.84   6 1.86
 122  0.002  0.375  0.246-  26 1.80  12 1.85
 123  0.261  0.625  0.004-  52 1.82  36 1.82
 124  0.727  0.126  0.504-  39 1.83  55 1.84
 125  0.246  0.624  0.749-  61 1.82  45 1.83
 126  0.749  0.125  0.741-  63 1.82  47 1.83
 127  0.262  0.373  0.493-  51 1.82  37 1.88
 128  0.265  0.875  0.499-  35 1.83  53 1.86
 129  0.247  0.375  0.258-  44 1.82  58 1.83
 130  0.998  0.003  0.127-  10 2.00   2 2.04
 131  0.000  0.999  0.623-   3 2.00  11 2.07
 132  1.000  0.511  0.125-  12 1.96   4 1.98
 133  0.491  0.017  0.127-  14 1.94   6 1.98
 134  0.494  0.008  0.624-   7 1.95  15 1.99
 135  0.503  0.515  0.129-  16 2.01   8 2.06
 136  0.509  0.512  0.623-   9 1.98  17 2.13
 137  0.004  0.495  0.376-  12 1.93   5 2.03
 138  0.996  0.497  0.872-   4 1.93  13 2.02
 139  0.504  0.976  0.376-   7 1.96  14 1.97
 140  0.517  0.985  0.876-  15 1.95   6 1.96
 141  0.015  0.246  0.127-  18 1.97  26 2.00
 142  0.007  0.258  0.621-  27 1.97  19 2.02
 143  0.517  0.230  0.127-  30 1.95  22 1.99
 144  0.510  0.233  0.627-  31 1.93  23 2.01
 145  0.497  0.733  0.128-  32 1.95  24 2.00
 146  0.988  0.252  0.874-  18 1.98  27 1.98
 147  0.993  0.751  0.375-  21 2.01  28 2.05
 148  0.000  0.752  0.874-  29 2.02  20 2.04
 149  0.482  0.275  0.370-  30 1.93  23 2.05
 150  0.491  0.265  0.876-  31 1.96  22 1.96
 151  0.492  0.764  0.375-  32 1.92  25 2.08
 152  0.498  0.762  0.875-  24 1.95  33 2.04
 153  0.247  0.492  0.125-  44 1.96  36 1.98
 154  0.751  0.999  0.126-  46 2.00  38 2.04
 155  0.751  0.994  0.623-  39 1.99  47 2.07
 156  0.250  0.002  0.376-  35 2.02  42 2.04
 157  0.240  0.995  0.874-  43 2.03  34 2.04
 158  0.244  0.513  0.375-  44 1.93  37 2.05
 159  0.261  0.499  0.874-  36 1.94  45 2.06
 160  0.742  0.504  0.375-  41 2.04  48 2.08
 161  0.753  0.509  0.874-  40 2.02  49 2.03
 162  0.251  0.756  0.125-  60 2.03  52 2.03
 163  0.248  0.751  0.625-  53 2.03  61 2.04
 164  0.739  0.263  0.621-  55 1.98  63 2.02
 165  0.752  0.750  0.126-  64 2.02  56 2.04
 166  0.747  0.751  0.624-  57 2.00  65 2.05
 167  0.260  0.242  0.374-  51 2.04  58 2.04
 168  0.258  0.251  0.875-  50 2.02  59 2.04
 169  0.770  0.240  0.372-  55 1.95  62 2.07
 170  0.762  0.242  0.876-  63 1.95  54 2.04
 171  0.126  0.006  0.005-  34 2.02   2 2.02
 172  0.124  0.986  0.501-   3 1.96  35 1.97
 173  0.123  0.486  0.492-   5 2.00  37 2.02
 174  0.625  0.007  0.010-   6 2.02  38 2.06
 175  0.625  0.974  0.505-   7 1.96  39 1.98
 176  0.628  0.476  0.495-   1 1.92  41 2.07   9 2.18
 177  0.127  0.999  0.744-  11 1.94  43 2.03
 178  0.124  0.504  0.248-  12 2.02  44 2.03
 179  0.124  0.491  0.762-  45 1.95  13 2.05
 180  0.624  0.994  0.738-  47 1.94  15 2.04
 181  0.626  0.489  0.252-  48 2.03  16 2.07
 182  0.627  0.490  0.755-  17 1.95  49 2.03
 183  0.125  0.247  0.988-  18 2.01  50 2.07
 184  0.122  0.262  0.489-  19 1.95  51 2.03
 185  0.125  0.739  1.000-  52 1.97  20 1.98
 186  0.124  0.766  0.495-  21 1.98  53 1.99
 187  0.626  0.245  0.987-  22 2.04  54 2.04
 188  0.124  0.243  0.264-  26 1.96  58 2.00
 189  0.124  0.756  0.752-  61 1.93  29 2.02
 190  0.626  0.756  0.752-  33 1.93  65 2.03
 191  0.377  0.018  0.492-   7 1.94  35 1.98
 192  0.374  0.491  0.009-   8 2.02  36 2.03
 193  0.874  0.023  0.505-  39 1.96   3 1.98
 194  0.875  0.494  0.998-   4 2.03  40 2.05
 195  0.377  0.000  0.258-  14 2.00  42 2.06
 196  0.376  0.500  0.740-  17 1.97  45 1.98
 197  0.873  0.005  0.249-  46 2.00  10 2.06
 198  0.874  0.995  0.746-  47 1.97  11 1.98
 199  0.377  0.231  0.505-  51 1.97  23 2.02
 200  0.377  0.762  0.004-  52 1.94  24 2.02
 201  0.377  0.732  0.503-  53 1.96  25 2.03
 202  0.873  0.235  0.512-  19 1.93  55 2.11
 203  0.872  0.760  1.000-  20 1.95  56 2.02
 204  0.872  0.731  0.504-  21 1.96  57 2.06
 205  0.378  0.250  0.236-  58 1.97  30 2.03
 206  0.376  0.248  0.745-  31 2.02  59 2.05
 207  0.377  0.744  0.247-  32 2.00  60 2.06
 208  0.375  0.752  0.747-  33 1.97  61 1.97
 209  0.873  0.250  0.235-  26 1.95  62 2.05
 210  0.874  0.253  0.738-  63 2.03  27 2.05
 211  0.873  0.741  0.248-  64 1.98  28 2.06
 212  0.999  0.127  0.001-  18 2.02   2 2.04
 213  0.013  0.126  0.506-  19 1.92   3 2.10
 214  0.989  0.625  0.993-   4 2.01  20 2.06
 215  0.017  0.627  0.491-   5 1.93  21 2.05
 216  0.500  0.124  0.988-   6 2.03  22 2.08
 217  0.486  0.627  0.992-  24 2.03   8 2.06
 218  0.518  0.626  0.484-   9 1.99  25 2.00
 219  0.996  0.128  0.247-  10 1.95  26 2.02
 220  0.004  0.624  0.259-  28 1.95  12 2.00
 221  0.013  0.625  0.756-  13 1.96  29 1.98
 222  0.507  0.625  0.268-  32 1.97  16 2.01
 223  0.985  0.375  0.500-  19 1.96   5 2.01
 224  0.484  0.376  0.518-   9 1.94  23 2.06
 225  0.480  0.875  0.511-  25 1.94   7 2.10
 226  0.993  0.375  0.749-  13 1.93  27 2.05
 227  0.990  0.876  0.250-  10 1.97  28 1.98
 228  0.998  0.876  0.746-  29 1.93  11 2.04
 229  0.498  0.372  0.229-  16 1.96  30 2.05
 230  0.496  0.374  0.736-  17 2.03  31 2.05
 231  0.492  0.875  0.234-  32 1.94  14 2.08
 232  0.501  0.874  0.742-  15 2.03  33 2.06
 233  0.251  0.125  0.994-  34 1.97  50 1.97
 234  0.236  0.124  0.497-  35 2.04  51 2.06
 235  0.234  0.626  0.506-  53 2.02  37 2.06
 236  0.749  0.126  0.007-  54 1.94  38 1.96
 237  0.766  0.625  0.007-  56 1.95  40 1.96
 238  0.731  0.625  0.503-  41 1.98  57 2.00
 239  0.255  0.126  0.252-  42 1.94  58 2.03
 240  0.250  0.125  0.757-  43 1.97  59 1.97
 241  0.248  0.623  0.239-  60 1.94  44 2.04
 242  0.748  0.126  0.243-  62 1.94  46 1.96
 243  0.740  0.624  0.245-  48 1.95  64 1.95
 244  0.737  0.625  0.744-  65 1.97  49 1.97
 245  0.245  0.376  0.996-  50 1.94  36 2.04
 246  0.240  0.874  0.002-  34 1.94  52 2.04
 247  0.743  0.375  0.983-  54 1.95  40 1.96
 248  0.771  0.374  0.487-  41 1.98  55 2.06
 249  0.739  0.875  0.004-  56 1.95  38 1.96
 250  0.771  0.877  0.500-  57 1.94  39 2.08
 251  0.256  0.376  0.757-  59 1.94  45 2.02
 252  0.259  0.875  0.253-  42 1.97  60 1.97
 253  0.248  0.873  0.746-  43 1.93  61 2.03
 254  0.756  0.374  0.268-  62 1.95  48 1.97
 255  0.758  0.375  0.760-  49 1.93  63 2.05
 256  0.760  0.875  0.247-  64 1.95  46 1.95
 257  0.752  0.875  0.747-  65 1.93  47 2.05
 

IMPORTANT INFORMATION: All symmetrisations will be switched off!
NOSYMM: (Re-)initialisation of all symmetry stuff for point group C_1.

 
 
 KPOINTS: Title                                   

Automatic generation of k-mesh.
Space group operators:
 irot       det(A)        alpha          n_x          n_y          n_z        tau_x        tau_y        tau_z
    1     1.000000     0.000001     1.000000     0.000000     0.000000     0.000000     0.000000     0.000000
 
 Subroutine IBZKPT returns following result:
 ===========================================
 
 Found      4 irreducible k-points:
 
 Following reciprocal coordinates:
            Coordinates               Weight
  0.250000  0.250000  0.250000      2.000000
 -0.250000  0.250000  0.250000      2.000000
  0.250000 -0.250000  0.250000      2.000000
 -0.250000 -0.250000  0.250000      2.000000
 
 Following cartesian coordinates:
            Coordinates               Weight
  0.016206  0.016206  0.016206      2.000000
 -0.016206  0.016206  0.016206      2.000000
  0.016206 -0.016206  0.016206      2.000000
 -0.016206 -0.016206  0.016206      2.000000
 


--------------------------------------------------------------------------------------------------------




 Dimension of arrays:
   k-points           NKPTS =      4   k-points in BZ     NKDIM =      4   number of bands    NBANDS=   1164
   number of dos      NEDOS =   3001   number of ions     NIONS =    257
   non local maximal  LDIM  =      6   non local SUM 2l+1 LMDIM =     18
   total plane-waves  NPLWV = ******
   max r-space proj   IRMAX =   7595   max aug-charges    IRDMAX= 146383
   dimension x,y,z NGX =   120 NGY =  120 NGZ =  120
   dimension x,y,z NGXF=   240 NGYF=  240 NGZF=  240
   support grid    NGXF=   480 NGYF=  480 NGZF=  480
   ions per type =               1  64  64 128
   NGX,Y,Z   is equivalent  to a cutoff of  12.93, 12.93, 12.93 a.u.
   NGXF,Y,Z  is equivalent  to a cutoff of  25.86, 25.86, 25.86 a.u.

 SYSTEM =  LTO                                     
 POSCAR =  config 38                               

 Startparameter for this run:
   NWRITE =      2    write-flag & timer
   PREC   = accura    normal or accurate (medium, high low for compatibility)
   ISTART =      1    job   : 0-new  1-cont  2-samecut
   ICHARG =      0    charge: 1-file 2-atom 10-const
   ISPIN  =      2    spin polarized calculation?
   LNONCOLLINEAR =      F non collinear calculations
   LSORBIT =      F    spin-orbit coupling
   INIWAV =      1    electr: 0-lowe 1-rand  2-diag
   LASPH  =      T    aspherical Exc in radial PAW
   METAGGA=      F    non-selfconsistent MetaGGA calc.

 Electronic Relaxation 1
   ENCUT  =  500.0 eV  36.75 Ry    6.06 a.u.  28.13 28.13 28.13*2*pi/ulx,y,z
   ENINI  =  500.0     initial cutoff
   ENAUG  =  628.9 eV  augmentation charge cutoff
   NELM   =     60;   NELMIN=  2; NELMDL=  0     # of ELM steps 
   EDIFF  = 0.1E-05   stopping-criterion for ELM
   LREAL  =      T    real-space projection
   NLSPLINE    = F    spline interpolate recip. space projectors
   LCOMPAT=      F    compatible to vasp.4.4
   GGA_COMPAT  = T    GGA compatible to vasp.4.4-vasp.4.6
   LMAXPAW     = -100 max onsite density
   LMAXMIX     =    4 max onsite mixed and CHGCAR
   VOSKOWN=      0    Vosko Wilk Nusair interpolation
   ROPT   =   -0.00010  -0.00010  -0.00010  -0.00010
 Ionic relaxation
   EDIFFG = -.5E-01   stopping-criterion for IOM
   NSW    =    100    number of steps for IOM
   NBLOCK =      1;   KBLOCK =    100    inner block; outer block 
   IBRION =      1    ionic relax: 0-MD 1-quasi-New 2-CG
   NFREE  =      0    steps in history (QN), initial steepest desc. (CG)
   ISIF   =      2    stress and relaxation
   IWAVPR =     11    prediction:  0-non 1-charg 2-wave 3-comb
   ISYM   =      0    0-nonsym 1-usesym 2-fastsym
   LCORR  =      T    Harris-Foulkes like correction to forces

   POTIM  = 0.5000    time-step for ionic-motion
   TEIN   =    0.0    initial temperature
   TEBEG  =    0.0;   TEEND  =   0.0 temperature during run
   SMASS  =  -3.00    Nose mass-parameter (am)
   estimated Nose-frequenzy (Omega)   =  0.10E-29 period in steps =****** mass=  -0.544E-26a.u.
   SCALEE = 1.0000    scale energy and forces
   NPACO  =    256;   APACO  = 16.0  distance and # of slots for P.C.
   PSTRESS=    0.0 pullay stress

  Mass of Ions in am
   POMASS =   7.01 47.88 16.00 19.00
  Ionic Valenz
   ZVAL   =   3.00 10.00  6.00  7.00
  Atomic Wigner-Seitz radii
   RWIGS  =  -1.00 -1.00 -1.00 -1.00
  virtual crystal weights 
   VCA    =   1.00  1.00  1.00  1.00
   NELECT =    1923.0000    total number of electrons
   NUPDOWN=       1.0000    fix difference up-down

 DOS related values:
   EMIN   =  10.00;   EMAX   =-10.00  energy-range for DOS
   EFERMI =   0.00
   ISMEAR =     0;   SIGMA  =   0.01  broadening in eV -4-tet -1-fermi 0-gaus

 Electronic relaxation 2 (details)
   IALGO  =     38    algorithm
   LDIAG  =      T    sub-space diagonalisation (order eigenvalues)
   LSUBROT=      F    optimize rotation matrix (better conditioning)
   TURBO    =      0    0=normal 1=particle mesh
   IRESTART =      0    0=no restart 2=restart with 2 vectors
   NREBOOT  =      0    no. of reboots
   NMIN     =      0    reboot dimension
   EREF     =   0.00    reference energy to select bands
   IMIX   =      4    mixing-type and parameters
     AMIX     =   0.40;   BMIX     =  1.00
     AMIX_MAG =   1.60;   BMIX_MAG =  1.00
     AMIN     =   0.10
     WC   =   100.;   INIMIX=   1;  MIXPRE=   1;  MAXMIX= -45

 Intra band minimization:
   WEIMIN = 0.0010     energy-eigenvalue tresh-hold
   EBREAK =  0.21E-09  absolut break condition
   DEPER  =   0.30     relativ break condition  

   TIME   =   0.40     timestep for ELM

  volume/ion in A,a.u.               =      14.28        96.39
  Fermi-wavevector in a.u.,A,eV,Ry     =   1.319690  2.493853 23.695660  1.741582
  Thomas-Fermi vector in A             =   2.449570
 
 Write flags
   LWAVE        =      T    write WAVECAR
   LDOWNSAMPLE  =      F    k-point downsampling of WAVECAR
   LCHARG       =      T    write CHGCAR
   LVTOT        =      F    write LOCPOT, total local potential
   LVHAR        =      F    write LOCPOT, Hartree potential only
   LELF         =      F    write electronic localiz. function (ELF)
   LORBIT       =     11    0 simple, 1 ext, 2 COOP (PROOUT), +10 PAW based schemes


 Dipole corrections
   LMONO  =      F    monopole corrections only (constant potential shift)
   LDIPOL =      F    correct potential (dipole corrections)
   IDIPOL =      0    1-x, 2-y, 3-z, 4-all directions 
   EPSILON=  1.0000000 bulk dielectric constant

 LDA+U is selected, type is set to LDAUTYPE =  2
   angular momentum for each species LDAUL =    -1    2   -1   -1
   U (eV)           for each species LDAUU =   0.0  4.2  0.0  0.0
   J (eV)           for each species LDAUJ =   0.0  0.0  0.0  0.0
 Exchange correlation treatment:
   GGA     =    PS    GGA type
   LEXCH   =    14    internal setting for exchange type
   VOSKOWN=      0    Vosko Wilk Nusair interpolation
   LHFCALC =     F    Hartree Fock is set to
   LHFONE  =     F    Hartree Fock one center treatment
   AEXX    =    0.0000 exact exchange contribution

 Linear response parameters
   LEPSILON=     F    determine dielectric tensor
   LRPA    =     F    only Hartree local field effects (RPA)
   LNABLA  =     F    use nabla operator in PAW spheres
   LVEL    =     F    velocity operator in full k-point grid
   LINTERFAST=   F  fast interpolation
   KINTER  =     0    interpolate to denser k-point grid
   CSHIFT  =0.1000    complex shift for real part using Kramers Kronig
   OMEGAMAX=  -1.0    maximum frequency
   DEG_THRESHOLD= 0.2000000E-02 threshold for treating states as degnerate
   RTIME   =   -0.100 relaxation time in fs
  (WPLASMAI=    0.000 imaginary part of plasma frequency in eV, 0.658/RTIME)
   DFIELD  = 0.0000000 0.0000000 0.0000000 field for delta impulse in time
 
 Orbital magnetization related:
   ORBITALMAG=     F  switch on orbital magnetization
   LCHIMAG   =     F  perturbation theory with respect to B field
   DQ        =  0.001000  dq finite difference perturbation B field
   LLRAUG    =     F  two centre corrections for induced B field



--------------------------------------------------------------------------------------------------------


 quasi-Newton-method for relaxation of ions
 charge density and potential will be updated during run
 spin polarized calculation
 Variant of blocked Davidson
 Davidson routine will perform the subspace rotation
 perform sub-space diagonalisation
    after iterative eigenvector-optimisation
 modified Broyden-mixing scheme, WC =      100.0
 initial mixing is a Kerker type mixing with AMIX =  0.4000 and BMIX =      1.0000
 Hartree-type preconditioning will be used
 using additional bands          202
 real space projection scheme for non local part
 use partial core corrections
 calculate Harris-corrections to forces 
   (improved forces if not selfconsistent)
 use gradient corrections 
 use of overlap-Matrix (Vanderbilt PP)
 Gauss-broadening in eV      SIGMA  =   0.01


--------------------------------------------------------------------------------------------------------


  energy-cutoff  :      500.00
  volume of cell :     3671.03
      direct lattice vectors                 reciprocal lattice vectors
    15.426331000  0.000000000  0.000000000     0.064824228  0.000000000  0.000000000
     0.000000000 15.426331000  0.000000000     0.000000000  0.064824228  0.000000000
     0.000000000  0.000000000 15.426331000     0.000000000  0.000000000  0.064824228

  length of vectors
    15.426331000 15.426331000 15.426331000     0.064824228  0.064824228  0.064824228


 
 old parameters found on file WAVECAR:
  energy-cutoff  :      500.00
  volume of cell :     3671.03
      direct lattice vectors                 reciprocal lattice vectors
    15.426331000  0.000000000  0.000000000     0.064824228  0.000000000  0.000000000
     0.000000000 15.426331000  0.000000000     0.000000000  0.064824228  0.000000000
     0.000000000  0.000000000 15.426331000     0.000000000  0.000000000  0.064824228

  length of vectors

 
 k-points in units of 2pi/SCALE and weight: Title                                   
   0.01620606  0.01620606  0.01620606       0.250
  -0.01620606  0.01620606  0.01620606       0.250
   0.01620606 -0.01620606  0.01620606       0.250
  -0.01620606 -0.01620606  0.01620606       0.250
 
 k-points in reciprocal lattice and weights: Title                                   
   0.25000000  0.25000000  0.25000000       0.250
  -0.25000000  0.25000000  0.25000000       0.250
   0.25000000 -0.25000000  0.25000000       0.250
  -0.25000000 -0.25000000  0.25000000       0.250
 
 position of ions in fractional coordinates (direct lattice) 
   0.61331352  0.39497318  0.40085743
   0.99576030  0.99512596  0.99456251
   0.99753309  0.99168535  0.49376523
   0.00661539  0.49600427  0.99740832
   0.99555770  0.50456281  0.50685303
   0.49480385  0.99298140  0.00108167
   0.50272650  0.00868221  0.49830236
   0.50498847  0.49431047  0.99759951
   0.48891756  0.50063313  0.49671867
   0.00658668  0.00235006  0.25599358
   0.00178903  0.00783448  0.75688329
   0.99385626  0.49442078  0.25114315
   0.99325080  0.49997538  0.74168568
   0.50632426  0.00753123  0.25192850
   0.49309557  0.00477466  0.75321501
   0.49251158  0.49557320  0.25807496
   0.50173651  0.50260841  0.76036640
   0.99558026  0.25804791  0.00186818
   0.99603739  0.24850248  0.49089398
   0.99855532  0.75809534  0.00601624
   0.99613408  0.75761613  0.50564366
   0.49561155  0.25791817  0.00256204
   0.50674023  0.24626221  0.49743852
   0.50764158  0.75586082  0.00047234
   0.50708604  0.75257188  0.50905966
   0.99775038  0.25828052  0.25492985
   0.00599675  0.24301591  0.74752668
   0.00681405  0.74884190  0.24302122
   0.99305741  0.75070002  0.74272205
   0.50766486  0.24172792  0.25239585
   0.50685537  0.24215513  0.75176959
   0.50662576  0.75144370  0.25211904
   0.50237044  0.74041640  0.74417251
   0.25679428  0.99778094  0.00562533
   0.25177586  0.99307528  0.50618358
   0.24476413  0.50815863  0.99791758
   0.25344761  0.49391872  0.50595439
   0.75687686  0.00027313  0.99403927
   0.74799302  0.00971359  0.49468748
   0.74243245  0.50070707  0.00406473
   0.75934033  0.50036301  0.50628693
   0.24472131  0.00122840  0.24342457
   0.25833576  0.99792253  0.74418372
   0.25511910  0.49223924  0.25231450
   0.24770270  0.50596146  0.74088284
   0.74397477  0.99971146  0.25589274
   0.74769334  0.00736326  0.75583783
   0.75708982  0.49889491  0.24113434
   0.75802202  0.49862100  0.74264766
   0.25730723  0.25170752  0.00625577
   0.25238018  0.25636700  0.50494185
   0.25262680  0.74229544  0.99422227
   0.25256663  0.75519803  0.49330376
   0.75684096  0.25197487  0.00722671
   0.73824117  0.24461595  0.49462116
   0.74181761  0.74873923  0.99419700
   0.74137208  0.75424994  0.49428359
   0.25062601  0.25702936  0.24303662
   0.24320386  0.25171656  0.74374040
   0.24374247  0.74789625  0.25630977
   0.24821086  0.74169915  0.75689268
   0.74054254  0.25180366  0.24165723
   0.74356657  0.24264777  0.75023686
   0.74538381  0.74972684  0.25709099
   0.75770755  0.75048851  0.75681614
   0.00873704  0.50382861  0.62410530
   0.99735608  0.00438790  0.37610779
   0.00276457  0.00176268  0.87298283
   0.50788487  0.47665218  0.37629093
   0.49511915  0.48797861  0.87594495
   0.99959911  0.74472712  0.12559116
   0.00250717  0.74518919  0.62379395
   0.50402693  0.73902819  0.62451613
   0.98582725  0.24855976  0.37575714
   0.25687359  0.00142534  0.12528960
   0.25758217  0.00343905  0.62494431
   0.24100984  0.49419338  0.62499813
   0.75165817  0.48819128  0.12481432
   0.74713057  0.49232768  0.62388803
   0.74847741  0.00190756  0.37565721
   0.74351883  0.00222164  0.87364275
   0.23831892  0.25118801  0.12558241
   0.24514978  0.25081270  0.62446723
   0.73442710  0.26274876  0.12562809
   0.25453944  0.74425930  0.37492709
   0.25326137  0.75096806  0.87545288
   0.75237349  0.74875209  0.37429832
   0.74962447  0.74881839  0.87550501
   0.12529366  0.50822099  0.99527646
   0.62642258  0.51103262  0.99883667
   0.12507427  0.99864100  0.24973758
   0.62440309  0.99476994  0.24783063
   0.62743254  0.27773674  0.47353539
   0.62470566  0.73689323  0.00211643
   0.62465831  0.76984382  0.49582082
   0.12420381  0.25332097  0.75559667
   0.12528586  0.75556704  0.25257822
   0.62497993  0.25745702  0.26980833
   0.62589261  0.25447210  0.75836388
   0.62270619  0.75765976  0.25162962
   0.37627449  0.99462745  0.99112340
   0.37443826  0.51579852  0.49915858
   0.87298145  0.99717020  0.99762274
   0.87679271  0.51636309  0.49878665
   0.37598078  0.99728223  0.76045609
   0.37477000  0.50067167  0.25410627
   0.87580314  0.50377052  0.25329072
   0.87576667  0.51089338  0.74548763
   0.37599675  0.25175998  0.01185714
   0.87401173  0.25370173  0.01243296
   0.87508388  0.74199738  0.74813351
   0.52226060  0.11802831  0.48442113
   0.99760496  0.12649349  0.74491259
   0.50250967  0.12481504  0.27086366
   0.50281372  0.12295583  0.76291667
   0.50362364  0.62420237  0.76040664
   0.00456141  0.37584602  0.00488641
   0.00669283  0.87485290  0.00220555
   0.98039332  0.87525447  0.49988052
   0.50769594  0.37383530  0.01637674
   0.50841605  0.87431945  0.01505900
   0.00168419  0.37456630  0.24611039
   0.26091018  0.62497317  0.00389796
   0.72663907  0.12621189  0.50405196
   0.24586441  0.62419029  0.74890875
   0.74929629  0.12508731  0.74085384
   0.26244370  0.37338376  0.49293793
   0.26454544  0.87502261  0.49917659
   0.24700633  0.37461317  0.25804217
   0.99758251  0.00298377  0.12671919
   0.00017873  0.99933630  0.62329354
   0.99953779  0.51055567  0.12497070
   0.49147062  0.01731429  0.12714119
   0.49416555  0.00787693  0.62439175
   0.50293963  0.51529380  0.12948440
   0.50907116  0.51165381  0.62290353
   0.00441939  0.49489218  0.37594392
   0.99593634  0.49668410  0.87246350
   0.50384545  0.97593937  0.37560749
   0.51704450  0.98518975  0.87598020
   0.01480137  0.24554737  0.12717551
   0.00670281  0.25761803  0.62076558
   0.51708358  0.22954491  0.12685104
   0.50960825  0.23325122  0.62682992
   0.49749612  0.73323358  0.12768495
   0.98762740  0.25211945  0.87419355
   0.99321461  0.75149996  0.37520323
   0.00036760  0.75196325  0.87376777
   0.48187450  0.27466705  0.37021004
   0.49078740  0.26459711  0.87563258
   0.49174625  0.76364677  0.37540907
   0.49790693  0.76177356  0.87489570
   0.24703088  0.49207380  0.12522393
   0.75123335  0.99931300  0.12628936
   0.75056383  0.99383023  0.62251648
   0.24954702  0.00165460  0.37551957
   0.24030408  0.99491983  0.87445184
   0.24407863  0.51326242  0.37506285
   0.26071539  0.49942649  0.87371553
   0.74222135  0.50357073  0.37513824
   0.75308177  0.50916483  0.87361279
   0.25115823  0.75583932  0.12520290
   0.24841722  0.75100327  0.62498572
   0.73938442  0.26324578  0.62131730
   0.75163271  0.75023637  0.12598040
   0.74718592  0.75084167  0.62403118
   0.25964551  0.24238663  0.37395398
   0.25832874  0.25064637  0.87540745
   0.77035450  0.23978601  0.37226513
   0.76165993  0.24153165  0.87556365
   0.12609921  0.00646665  0.00489304
   0.12433050  0.98602607  0.50129205
   0.12330793  0.48616019  0.49247394
   0.62472906  0.00660891  0.01017574
   0.62490392  0.97360105  0.50480944
   0.62798664  0.47559941  0.49451210
   0.12682784  0.99912219  0.74368109
   0.12437855  0.50369377  0.24772079
   0.12402045  0.49097055  0.76181764
   0.62373373  0.99358917  0.73831338
   0.62639131  0.48860419  0.25175425
   0.62718599  0.49038156  0.75512337
   0.12464306  0.24660116  0.98826910
   0.12204155  0.26168724  0.48924325
   0.12529535  0.73904428  0.99957710
   0.12376966  0.76575986  0.49515308
   0.62614472  0.24525921  0.98660615
   0.12377381  0.24251380  0.26418365
   0.12368345  0.75575439  0.75227817
   0.62649762  0.75584993  0.75160151
   0.37721702  0.01810171  0.49221346
   0.37447467  0.49103460  0.00876294
   0.87365731  0.02299173  0.50453616
   0.87498409  0.49358674  0.99835609
   0.37713594  0.00023698  0.25849560
   0.37567043  0.50039969  0.73996514
   0.87321411  0.00493880  0.24856241
   0.87421988  0.99528594  0.74644098
   0.37719877  0.23089630  0.50493649
   0.37670806  0.76157025  0.00377364
   0.37738657  0.73163037  0.50253796
   0.87334522  0.23513917  0.51188508
   0.87225723  0.76025204  0.99998935
   0.87229695  0.73056701  0.50370513
   0.37765865  0.25029097  0.23594559
   0.37608727  0.24773479  0.74483687
   0.37714263  0.74363486  0.24711208
   0.37543395  0.75197122  0.74720734
   0.87335498  0.25046442  0.23451058
   0.87391662  0.25312091  0.73800919
   0.87328615  0.74132450  0.24833229
   0.99893737  0.12737450  0.00063702
   0.01332219  0.12631302  0.50595019
   0.98923926  0.62536827  0.99281691
   0.01691526  0.62698555  0.49132624
   0.49996694  0.12404298  0.98798178
   0.48640244  0.62652072  0.99181587
   0.51846731  0.62562157  0.48423244
   0.99619725  0.12774845  0.24708654
   0.00411213  0.62362058  0.25912355
   0.01341277  0.62473672  0.75647605
   0.50667593  0.62455408  0.26806564
   0.98508737  0.37479841  0.49969342
   0.48436343  0.37648540  0.51774223
   0.47961707  0.87525924  0.51087517
   0.99323927  0.37529175  0.74884669
   0.99018456  0.87575114  0.24998960
   0.99843962  0.87578005  0.74615695
   0.49837921  0.37199392  0.22918487
   0.49603737  0.37372217  0.73582704
   0.49187826  0.87479817  0.23447602
   0.50059000  0.87402687  0.74226081
   0.25108605  0.12471586  0.99428580
   0.23552712  0.12426441  0.49730781
   0.23385864  0.62624475  0.50580038
   0.74883943  0.12643980  0.00746053
   0.76611949  0.62523152  0.00685822
   0.73113072  0.62532453  0.50277116
   0.25487967  0.12609647  0.25187999
   0.24966546  0.12466645  0.75686733
   0.24774328  0.62346217  0.23875656
   0.74794023  0.12632659  0.24314473
   0.73959629  0.62393552  0.24457634
   0.73710138  0.62485740  0.74415691
   0.24498242  0.37615102  0.99595211
   0.23994006  0.87352008  0.00204613
   0.74327873  0.37529307  0.98324197
   0.77058183  0.37402623  0.48707333
   0.73879221  0.87471420  0.00428091
   0.77085805  0.87669759  0.49974086
   0.25609507  0.37597662  0.75672416
   0.25878289  0.87499644  0.25309604
   0.24817332  0.87316786  0.74615609
   0.75590124  0.37418335  0.26845831
   0.75803003  0.37458304  0.75975089
   0.76004947  0.87456670  0.24698024
   0.75244041  0.87513227  0.74708892
 
 position of ions in cartesian coordinates  (Angst):
   9.46117738  6.09298694  6.18375936
  15.36092796 15.35114241 15.34245043
  15.38827560 15.29806647  7.61698590
   0.10205117  7.65152612 15.38635081
  15.35780262  7.78355284  7.81888265
   7.63300798 15.31805979  0.01668620
   7.75522546  0.13393468  7.68697718
   7.79011936  7.62539698 15.38930023
   7.54220413  7.72293242  7.66254660
   0.10160827  0.03625275  3.94904172
   0.02759824  0.12085728 11.67593221
  15.33155563  7.62709866  3.87421735
  15.32221565  7.71278567 11.44148879
   7.81072555  0.11617928  3.88633240
   7.60665547  0.07365544 11.61934400
   7.59764672  7.64487624  3.98114982
   7.73995350  7.75340374 11.72966375
  15.35815058  3.98073254  0.02881910
  15.36520243  3.83348155  7.57269305
  15.40404489 11.69462971  0.09280854
  15.36669404 11.68723717  7.80022646
   7.64546782  3.97873106  0.03952292
   7.81714253  3.79892232  7.67365132
   7.83104709 11.66015922  0.00728643
   7.82247703 11.60942298  7.85292277
  15.39162761  3.98432076  3.93263222
   0.09250788  3.74884390 11.53159402
   0.10511574 11.55188306  3.74892581
  15.31923229 11.58054695 11.45747624
   7.83140613  3.72897491  3.89354197
   7.81891872  3.73556524 11.59704647
   7.81537673 11.59201930  3.88927178
   7.74973273 11.42190848 11.47985146
   3.96139354 15.39209909  0.08677822
   3.88397774 15.31950793  7.80855547
   3.77581253  7.83902330 15.39420693
   3.90976667  7.61935369  7.80501993
  11.67583291  0.00421341 15.33437887
  11.53878794  0.14984510  7.63121277
  11.45300878  7.72407301  0.06270380
  11.71383533  7.71876543  7.81014979
   3.77515200  0.01894969  3.75514793
   3.98517293 15.39428325 11.48002445
   3.93555170  7.59344548  3.89228692
   3.82114379  7.80512902 11.42910385
  11.47680104 15.42187986  3.94748613
  11.53416496  0.11358805 11.65980461
  11.67911820  7.69611807  3.71981812
  11.69349855  7.69189259 11.45632868
   3.96930654  3.88292345  0.09650352
   3.89330017  3.95480222  7.78940014
   3.89710469 11.45089513 15.33720176
   3.89617645 11.64993481  7.60986707
  11.67527920  3.88704768  0.11148155
  11.38835270  3.77352662  7.63018977
  11.44352397 11.55029921 15.33681196
  11.43665106 11.63530917  7.62498223
   3.86623979  3.96501993  3.74916338
   3.75174320  3.88306297 11.47318561
   3.76005207 11.53729517  3.95391934
   3.82898291 11.44169658 11.67607707
  11.42385430  3.88440655  3.72788441
  11.47050407  3.74316488 11.57340214
  11.49853733 11.56553434  3.96597072
  11.68864743 11.57728416 11.67489629
   0.13478040  7.77222692  9.62765488
  15.38554496  0.06768923  5.80196326
   0.04264724  0.02719168 13.46692208
   7.83480012  7.35299435  5.80478843
   7.63787196  7.52771951 13.51261678
  15.42014674 11.48840702  1.93741081
   0.03867636 11.49553512  9.62285188
   7.77528624 11.40049346  9.63399250
  15.20769748  3.83436519  5.79655397
   3.96261698  0.02198775  1.93275889
   3.97354775  0.05305191  9.64059779
   3.71789759  7.62359059  9.64142799
  11.59532768  7.53100020  1.92542697
  11.52548351  7.59480970  9.62430322
  11.54626032  0.02942669  5.79501241
  11.46976753  0.03427181 13.47710228
   3.67638659  3.87490941  1.93727587
   3.78176168  3.86911978  9.63323824
  11.32951559  4.05324940  1.93798054
   3.92660961 11.48119032  5.78374935
   3.90689373 11.58468189 13.50502593
  11.60636244 11.55049750  5.77404974
  11.56395514 11.55152028 13.50583011
   1.93282152  7.83998524 15.35346418
   9.66340212  7.88335836 15.40838516
   1.92943702 15.40536668  3.85253453
   9.63224881 15.34565043  3.82311733
   9.67898205  4.28445895  7.30491360
   9.63691624 11.36755886  0.03264882
   9.63618588 11.87586562  7.64869601
   1.91600905  3.90781311 11.65608430
   1.93270121 11.65562731  3.89635524
   9.64114722  3.97161721  4.16215253
   9.65522650  3.92557085 11.69877223
   9.60607180 11.68791021  3.88172178
   5.80453484 15.34345224 15.28939769
   5.77620851  7.95687873  7.70018549
  13.46690080 15.38267751 15.38965863
  13.52569457  7.96558796  7.69444791
   5.80000396 15.38440581 11.73104737
   5.78132613  7.72352693  3.91992744
  13.51042913  7.77133074  3.90734651
  13.50986652  7.88121039 11.50013898
   5.80025034  3.88373271  0.18291216
  13.48279427  3.91368683  0.19179491
  13.49933353 11.44629717 11.54095522
   8.05656493  1.82074376  7.47284069
  15.38938426  1.95133051 11.49126815
   7.75188048  1.92543808  4.17843254
   7.75657084  1.89675738 11.76900514
   7.76906502  9.62915244 11.73028458
   0.07036579  5.79792517  0.07537934
   0.10324584 13.49577046  0.03402356
  15.12387188 13.50196518  7.71132237
   7.83188555  5.76690701  0.25263296
   7.84299423 13.48754125  0.23230516
   0.02598094  5.77818377  3.79658033
   4.02488675  9.64104298  0.06013130
  11.20937478  1.94698634  7.77567233
   3.79278576  9.62896601 11.55291431
  11.55889253  1.92963828 11.42865650
   4.04854345  5.75994150  7.60422365
   4.08096558 13.49838844  7.70046338
   3.81040135  5.77890671  3.98064387
  15.38903800  0.04602859  1.95481211
   0.00275718 15.41609249  9.61513245
  15.41920075  7.87600075  1.92783935
   7.58158853  0.26709604  1.96132212
   7.62316140  0.12151211  9.63207382
   7.75851314  7.94909275  1.99746929
   7.85310017  7.89294105  9.60911600
   0.06817503  7.63437060  5.79943533
  15.36364364  7.66201327 13.45891077
   7.77248675 15.05516370  5.79424544
   7.97609962 15.19786324 13.51316058
   0.22833082  3.78789507  1.96185144
   0.10339983  3.97410097  9.57613537
   7.97670242  3.54103577  1.95684616
   7.86138553  3.59821053  9.66968588
   7.67453987 11.31110384  1.96971028
  15.23546721  3.88927815 13.48559907
  15.32165725 11.59288719  5.78800928
   0.00567066 11.60003399 13.47903086
   7.43355550  4.23710477  5.71098255
   7.57104887  4.08176253 13.50779797
   7.58584040 11.78026781  5.79118459
   7.68087712 11.75137104 13.49643064
   3.81078010  7.59089324  1.93174583
  11.58877434 15.41573308  1.94818142
  11.57844605 15.33115414  9.60314529
   3.84959499  0.02552438  5.79288917
   3.70701029 15.34796264 13.48958348
   3.76523768  7.91775602  5.78584365
   4.02188192  7.70431839 13.47822503
  11.44975220  7.76824870  5.78700661
  11.61728859  7.85454526 13.47664006
   3.87444999 11.65982746  1.93142132
   3.83216625 11.58522496  9.64123665
  11.40598875  4.06091654  9.58464628
  11.59493502 11.57339455  1.94341530
  11.52633737 11.58273219  9.62651161
   4.00537761  3.73913635  5.76873783
   3.98506465  3.86655381 13.50432504
  11.88374356  3.69901842  5.74268506
  11.74961819  3.72594715 13.50673468
   1.94524814  0.09975673  0.07548163
   1.91796345 15.21076459  7.73309711
   1.90218894  7.49966808  7.59706599
   9.63727734  0.10195130  0.15697432
   9.63997476 15.01909213  7.78735746
   9.68752981  7.33675398  7.62850737
   1.95648817 15.41278965 11.47227059
   1.91870474  7.77014680  3.82142289
   1.91318054  7.57387417 11.75205109
   9.62192294 15.32743534 11.38946663
   9.66291966  7.53736991  3.88364443
   9.67517861  7.56478825 11.64878300
   1.92278503  3.80415118 15.24536620
   1.88265336  4.03687394  7.54722827
   1.93284762 11.40074168 15.41980722
   1.90931169 11.81286504  7.63839525
   9.65911569  3.78344972 15.21971297
   1.90937578  3.74109808  4.07538450
   1.90798179 11.65851744 11.60489200
   9.66455963 11.65999127 11.59445370
   5.81907464  0.27924301  7.59304777
   5.77677019  7.57486228  0.13517997
  13.47732684  0.35467798  7.78314179
  13.49779415  7.61423249 15.40097157
   5.81782380  0.00365575  3.98763874
   5.79521639  7.71933129 11.41494715
  13.47048986  0.07618750  3.83440601
  13.48600531 15.35361035 11.51484563
   5.81879314  3.56188283  7.78931750
   5.81122317 11.74823481  0.05821339
   5.82169010 11.28637230  7.75231697
  13.47251238  3.62733466  7.89650862
  13.45572876 11.72789958 15.42616666
  13.45634154 11.26996848  7.77032203
   5.82588736  3.86107138  3.63977482
   5.80164677  3.82163888 11.49010006
   5.81792697 11.47155745  3.81203276
   5.79156832 11.60015696 11.52666775
  13.47266303  3.86374709  3.61763785
  13.48132711  3.90472701 11.38477410
  13.47160123 11.43591710  3.83085603
  15.40993859  1.96492127  0.00982692
   0.20551244  1.94854645  7.80495504
  15.26033224  9.64713792 15.31552227
   0.26094035  9.67208668  7.57936121
   7.71265549  1.91352802 15.24093397
   7.50340503  9.66491593 15.30007986
   7.99804835  9.65104545  7.46992986
  15.36766851  1.97068985  3.81163868
   0.06343509  9.62017746  3.99732567
   0.20690977  9.63739541 11.66964996
   7.81615063  9.63457792  4.13526924
  15.19628381  5.78176430  7.70843606
   7.47195067  5.80778845  7.98686294
   7.39873171 13.50203872  7.88092952
  15.32203770  5.78937471 11.55195685
  15.27491476 13.50962693  3.85642227
  15.40226011 13.51007289 11.51046411
   7.68816272  5.73850132  3.53548160
   7.65203661  5.76516182 11.35111153
   7.58787692 13.49492609  3.61710468
   7.72226701 13.48302775 11.45036098
   3.87333646  1.92390815 15.33818178
   3.63331930  1.91694391  7.67163493
   3.60758083  9.66065873  7.80264405
  11.55184497  1.95050225  0.11508865
  11.81841277  9.64502838  0.10579714
  11.27866448  9.64646311  7.75591430
   3.93185821  1.94520592  3.88558415
   3.85142197  1.92314586 11.67568591
   3.82176991  9.61773385  3.68313777
  11.53797361  1.94875574  3.75083109
  11.40925722  9.62503588  3.77291554
  11.37076980  9.63925706 11.47961076
   3.77917994  5.80263015 15.36388695
   3.70139472 13.47520990  0.03156433
  11.46606378  5.78939505 15.16781610
  11.88725031  5.76985243  7.51375436
  11.39685323 13.49363072  0.06603870
  11.89151136 13.52422714  7.70916787
   3.95060735  5.79993985 11.67347743
   3.99207048 13.49798466  3.90434325
   3.82840377 13.46977642 11.51045079
  11.66078272  5.77227619  4.14132677
  11.69362223  5.77844200 11.72016867
  11.72477475 13.49135544  3.80999887
  11.60739483 13.50008005 11.52484093
 


--------------------------------------------------------------------------------------------------------


 k-point  1 :   0.2500 0.2500 0.2500  plane waves:   93161
 k-point  2 :  -0.2500 0.2500 0.2500  plane waves:   93161
 k-point  3 :   0.2500-0.2500 0.2500  plane waves:   93161
 k-point  4 :  -0.2500-0.2500 0.2500  plane waves:   93161

 maximum and minimum number of plane-waves per node :     11686    11606

 maximum number of plane-waves:     93161
 maximum index in each direction: 
   IXMAX=   28   IYMAX=   28   IZMAX=   27
   IXMIN=  -28   IYMIN=  -28   IZMIN=  -28


 real space projection operators:
  total allocation   :     105599.38 KBytes
  max/ min on nodes  :      13258.98      13157.43


 parallel 3D FFT for wavefunctions:
    minimum data exchange during FFTs selected (reduces bandwidth)
 parallel 3D FFT for charge:
    minimum data exchange during FFTs selected (reduces bandwidth)


 total amount of memory used by VASP MPI-rank0   291491. kBytes
=======================================================================

   base      :      30000. kBytes
   nonlr-proj:      49456. kBytes
   fftplans  :      27976. kBytes
   grid      :      34041. kBytes
   one-center:       1026. kBytes
   wavefun   :     148992. kBytes
 
     INWAV:  cpu time   50.8514: real time   51.5218
 Broyden mixing: mesh for mixing (old mesh)
   NGX = 57   NGY = 57   NGZ = 57
  (NGX  =240   NGY  =240   NGZ  =240)
  gives a total of 185193 points

 charge density for first step will be calculated from the start-wavefunctions


--------------------------------------------------------------------------------------------------------


 Maximum index for non-local projection operator          969
 Maximum index for augmentation-charges         3297 (set IRDMAX)


--------------------------------------------------------------------------------------------------------


 initial charge from wavefunction
 First call to EWALD:  gamma=   0.115
 Maximum number of real-space cells 3x 3x 3
 Maximum number of reciprocal cells 3x 3x 3

    FEWALD:  cpu time    0.0172: real time    0.0172


--------------------------------------- Iteration      1(   1)  ---------------------------------------


    POTLOK:  cpu time    0.2717: real time    0.2830
    SETDIJ:  cpu time    1.3740: real time    1.3745
     EDDAV:  cpu time  128.8919: real time  129.6391
       DOS:  cpu time    0.0029: real time    0.0029
    CHARGE:  cpu time    5.2733: real time    5.2877
    MIXING:  cpu time    0.0087: real time    0.0089
    --------------------------------------------
      LOOP:  cpu time  135.8227: real time  136.5963

 eigenvalue-minimisations  : 22752
 total energy-change (2. order) :-0.1846342E+04  (-0.3626874E+03)
 number of electron    1923.0000031 magnetization       1.0000000
 augmentation part      504.3837486 magnetization       0.6468254

 Broyden mixing:
  rms(total) = 0.78626E+01    rms(broyden)= 0.78594E+01
  rms(prec ) = 0.12374E+02
  weight for this iteration     100.00

 Free energy of the ion-electron system (eV)
  ---------------------------------------------------
  alpha Z        PSCENC =      6118.73324990
  Ewald energy   TEWEN  =   -103789.02500415
  -Hartree energ DENC   =    -64838.19397833
  -exchange      EXHF   =         0.00000000
  -V(xc)+E(xc)   XCENC  =      8955.51264355
  PAW double counting   =    197023.04143436  -198016.14222931
  entropy T*S    EENTRO =        -0.00235127
  eigenvalues    EBANDS =    -25877.51776470
  atomic energy  EATOM  =    178577.25249613
  Solvation  Ediel_sol  =         0.00000000
  ---------------------------------------------------
  free energy    TOTEN  =     -1846.34150382 eV

  energy without entropy =    -1846.33915255  energy(sigma->0) =    -1846.34032819


--------------------------------------------------------------------------------------------------------




--------------------------------------- Iteration      1(   2)  ---------------------------------------


    POTLOK:  cpu time    0.2611: real time    0.2635
    SETDIJ:  cpu time    1.3727: real time    1.3731
     EDDAV:  cpu time  143.9157: real time  144.9651
       DOS:  cpu time    0.0030: real time    0.0030
    CHARGE:  cpu time    5.2333: real time    5.2363
    MIXING:  cpu time    0.0233: real time    0.0233
    --------------------------------------------
      LOOP:  cpu time  150.8091: real time  151.8643

 eigenvalue-minimisations  : 26664
 total energy-change (2. order) :-0.1509557E+02  (-0.3230797E+03)
 number of electron    1923.0000031 magnetization       1.0000000
 augmentation part      506.6419590 magnetization       0.4529419

 Broyden mixing:
  rms(total) = 0.10550E+02    rms(broyden)= 0.10545E+02
  rms(prec ) = 0.15052E+02
  weight for this iteration     100.00

 eigenvalues of (default mixing * dielectric matrix)
  average eigenvalue GAMMA=   0.3790
  0.3790

 Free energy of the ion-electron system (eV)
  ---------------------------------------------------
  alpha Z        PSCENC =      6118.73324990
  Ewald energy   TEWEN  =   -103789.02500415
  -Hartree energ DENC   =    -64921.49833043
  -exchange      EXHF   =         0.00000000
  -V(xc)+E(xc)   XCENC  =      8954.16637665
  PAW double counting   =    198547.52377858  -199513.63410235
  entropy T*S    EENTRO =        -0.00215315
  eigenvalues    EBANDS =    -25834.95338776
  atomic energy  EATOM  =    178577.25249613
  Solvation  Ediel_sol  =         0.00000000
  ---------------------------------------------------
  free energy    TOTEN  =     -1861.43707659 eV

  energy without entropy =    -1861.43492343  energy(sigma->0) =    -1861.43600001


--------------------------------------------------------------------------------------------------------




--------------------------------------- Iteration      1(   3)  ---------------------------------------


    POTLOK:  cpu time    0.2999: real time    0.3027
    SETDIJ:  cpu time    1.4404: real time    1.4566
     EDDAV:  cpu time  144.3394: real time  145.2294
       DOS:  cpu time    0.0021: real time    0.0021
    CHARGE:  cpu time    5.2721: real time    5.2755
    MIXING:  cpu time    0.0082: real time    0.0082
    --------------------------------------------
      LOOP:  cpu time  151.3621: real time  152.2745

 eigenvalue-minimisations  : 26820
 total energy-change (2. order) : 0.1059967E+02  (-0.1452203E+03)
 number of electron    1923.0000031 magnetization       1.0000000
 augmentation part      491.9507320 magnetization       0.5673416

 Broyden mixing:
  rms(total) = 0.56121E+01    rms(broyden)= 0.56098E+01
  rms(prec ) = 0.64731E+01
  weight for this iteration     100.00

 eigenvalues of (default mixing * dielectric matrix)
  average eigenvalue GAMMA=   0.4539
  0.4539  0.4539

 Free energy of the ion-electron system (eV)
  ---------------------------------------------------
  alpha Z        PSCENC =      6118.73324990
  Ewald energy   TEWEN  =   -103789.02500415
  -Hartree energ DENC   =    -65011.25407328
  -exchange      EXHF   =         0.00000000
  -V(xc)+E(xc)   XCENC  =      8957.34473727
  PAW double counting   =    198931.59409630  -199893.15368566
  entropy T*S    EENTRO =        -0.00000000
  eigenvalues    EBANDS =    -25742.32922018
  atomic energy  EATOM  =    178577.25249613
  Solvation  Ediel_sol  =         0.00000000
  ---------------------------------------------------
  free energy    TOTEN  =     -1850.83740367 eV

  energy without entropy =    -1850.83740367  energy(sigma->0) =    -1850.83740367


--------------------------------------------------------------------------------------------------------




--------------------------------------- Iteration      1(   4)  ---------------------------------------


    POTLOK:  cpu time    0.2601: real time    0.2623
    SETDIJ:  cpu time    1.3721: real time    1.3727
     EDDAV:  cpu time  136.3841: real time  137.0807
       DOS:  cpu time    0.0023: real time    0.0023
    CHARGE:  cpu time    5.2826: real time    5.2858
    MIXING:  cpu time    0.0342: real time    0.0427
    --------------------------------------------
      LOOP:  cpu time  143.3354: real time  144.0465

 eigenvalue-minimisations  : 24936
 total energy-change (2. order) : 0.4895318E+02  (-0.2886128E+02)
 number of electron    1923.0000031 magnetization       1.0000000
 augmentation part      493.4833451 magnetization       0.5991641

 Broyden mixing:
  rms(total) = 0.40502E+01    rms(broyden)= 0.40495E+01
  rms(prec ) = 0.47134E+01
  weight for this iteration     100.00

 eigenvalues of (default mixing * dielectric matrix)
  average eigenvalue GAMMA=   0.6061
  0.6821  0.6821  0.4539

 Free energy of the ion-electron system (eV)
  ---------------------------------------------------
  alpha Z        PSCENC =      6118.73324990
  Ewald energy   TEWEN  =   -103789.02500415
  -Hartree energ DENC   =    -64964.78115035
  -exchange      EXHF   =         0.00000000
  -V(xc)+E(xc)   XCENC  =      8963.18352330
  PAW double counting   =    198986.33943565  -199965.76701378
  entropy T*S    EENTRO =        -0.00000716
  eigenvalues    EBANDS =    -25727.81975306
  atomic energy  EATOM  =    178577.25249613
  Solvation  Ediel_sol  =         0.00000000
  ---------------------------------------------------
  free energy    TOTEN  =     -1801.88422351 eV

  energy without entropy =    -1801.88421636  energy(sigma->0) =    -1801.88421994


--------------------------------------------------------------------------------------------------------




--------------------------------------- Iteration      1(   5)  ---------------------------------------


    POTLOK:  cpu time    0.3991: real time    0.4043
    SETDIJ:  cpu time    1.4317: real time    1.4407
     EDDAV:  cpu time  143.0973: real time  143.7376
       DOS:  cpu time    0.0018: real time    0.0018
    CHARGE:  cpu time    5.2660: real time    5.2696
    MIXING:  cpu time    0.0083: real time    0.0083
    --------------------------------------------
      LOOP:  cpu time  150.2042: real time  150.8624

 eigenvalue-minimisations  : 26400
 total energy-change (2. order) : 0.3373080E+02  (-0.1454335E+02)
 number of electron    1923.0000031 magnetization       1.0000000
 augmentation part      494.2230203 magnetization       0.6264257

 Broyden mixing:
  rms(total) = 0.21101E+01    rms(broyden)= 0.21094E+01
  rms(prec ) = 0.24302E+01
  weight for this iteration     100.00

 eigenvalues of (default mixing * dielectric matrix)
  average eigenvalue GAMMA=   0.6449
  0.8139  0.8139  0.4760  0.4760

 Free energy of the ion-electron system (eV)
  ---------------------------------------------------
  alpha Z        PSCENC =      6118.73324990
  Ewald energy   TEWEN  =   -103789.02500415
  -Hartree energ DENC   =    -64966.39080114
  -exchange      EXHF   =         0.00000000
  -V(xc)+E(xc)   XCENC  =      8968.52599838
  PAW double counting   =    198487.48922907  -199481.61542898
  entropy T*S    EENTRO =        -0.00000000
  eigenvalues    EBANDS =    -25683.12316414
  atomic energy  EATOM  =    178577.25249613
  Solvation  Ediel_sol  =         0.00000000
  ---------------------------------------------------
  free energy    TOTEN  =     -1768.15342494 eV

  energy without entropy =    -1768.15342494  energy(sigma->0) =    -1768.15342494


--------------------------------------------------------------------------------------------------------




--------------------------------------- Iteration      1(   6)  ---------------------------------------


    POTLOK:  cpu time    0.2604: real time    0.2635
    SETDIJ:  cpu time    1.3733: real time    1.3744
     EDDAV:  cpu time  147.3141: real time  148.0620
       DOS:  cpu time    0.0019: real time    0.0019
    CHARGE:  cpu time    5.2280: real time    5.2308
    MIXING:  cpu time    0.0083: real time    0.0083
    --------------------------------------------
      LOOP:  cpu time  154.1861: real time  154.9409

 eigenvalue-minimisations  : 27156
 total energy-change (2. order) : 0.7345303E+01  (-0.3726387E+01)
 number of electron    1923.0000031 magnetization       1.0000000
 augmentation part      495.6308513 magnetization       0.5909289

 Broyden mixing:
  rms(total) = 0.14754E+01    rms(broyden)= 0.14752E+01
  rms(prec ) = 0.15791E+01
  weight for this iteration     100.00

 eigenvalues of (default mixing * dielectric matrix)
  average eigenvalue GAMMA=   0.6789
  0.8985  0.8985  0.4588  0.5694  0.5694

 Free energy of the ion-electron system (eV)
  ---------------------------------------------------
  alpha Z        PSCENC =      6118.73324990
  Ewald energy   TEWEN  =   -103789.02500415
  -Hartree energ DENC   =    -64916.76126787
  -exchange      EXHF   =         0.00000000
  -V(xc)+E(xc)   XCENC  =      8968.35402637
  PAW double counting   =    198122.47729273  -199122.12460682
  entropy T*S    EENTRO =        -0.00000000
  eigenvalues    EBANDS =    -25719.71430809
  atomic energy  EATOM  =    178577.25249613
  Solvation  Ediel_sol  =         0.00000000
  ---------------------------------------------------
  free energy    TOTEN  =     -1760.80812180 eV

  energy without entropy =    -1760.80812180  energy(sigma->0) =    -1760.80812180


--------------------------------------------------------------------------------------------------------




--------------------------------------- Iteration      1(   7)  ---------------------------------------


    POTLOK:  cpu time    0.2597: real time    0.2627
    SETDIJ:  cpu time    1.3795: real time    1.3801
     EDDAV:  cpu time  146.4113: real time  147.5220
       DOS:  cpu time    0.0020: real time    0.0020
    CHARGE:  cpu time    5.2255: real time    5.2294
    MIXING:  cpu time    0.0165: real time    0.0165
    --------------------------------------------
      LOOP:  cpu time  153.2945: real time  154.4127

 eigenvalue-minimisations  : 27264
 total energy-change (2. order) : 0.1284857E+01  (-0.8478015E+00)
 number of electron    1923.0000031 magnetization       1.0000000
 augmentation part      496.0780682 magnetization       0.5992465

 Broyden mixing:
  rms(total) = 0.10263E+01    rms(broyden)= 0.10259E+01
  rms(prec ) = 0.10972E+01
  weight for this iteration     100.00

 eigenvalues of (default mixing * dielectric matrix)
  average eigenvalue GAMMA=   0.8442
  1.3408  1.3408  0.6777  0.6777  0.5143  0.5143

 Free energy of the ion-electron system (eV)
  ---------------------------------------------------
  alpha Z        PSCENC =      6118.73324990
  Ewald energy   TEWEN  =   -103789.02500415
  -Hartree energ DENC   =    -64892.34824075
  -exchange      EXHF   =         0.00000000
  -V(xc)+E(xc)   XCENC  =      8967.37909388
  PAW double counting   =    197834.34001478  -198835.80968363
  entropy T*S    EENTRO =        -0.00000000
  eigenvalues    EBANDS =    -25740.04519130
  atomic energy  EATOM  =    178577.25249613
  Solvation  Ediel_sol  =         0.00000000
  ---------------------------------------------------
  free energy    TOTEN  =     -1759.52326514 eV

  energy without entropy =    -1759.52326514  energy(sigma->0) =    -1759.52326514


--------------------------------------------------------------------------------------------------------




--------------------------------------- Iteration      1(   8)  ---------------------------------------


    POTLOK:  cpu time    0.2684: real time    0.2708
    SETDIJ:  cpu time    1.3844: real time    1.3855
     EDDAV:  cpu time  149.0604: real time  149.8644
       DOS:  cpu time    0.0020: real time    0.0020
    CHARGE:  cpu time    5.2724: real time    5.2759
    MIXING:  cpu time    0.0087: real time    0.0087
    --------------------------------------------
      LOOP:  cpu time  155.9963: real time  156.8072

 eigenvalue-minimisations  : 26568
 total energy-change (2. order) : 0.4560087E-01  (-0.6295837E+00)
 number of electron    1923.0000031 magnetization       1.0000000
[...]
   81        1.573   3.460   0.000   5.033
   82        1.575   3.458   0.000   5.032
   83        1.574   3.457   0.000   5.031
   84        1.576   3.465   0.000   5.040
   85        1.575   3.461   0.000   5.037
   86        1.575   3.465   0.000   5.039
   87        1.576   3.462   0.000   5.038
   88        1.575   3.465   0.000   5.040
   89        1.574   3.459   0.000   5.034
   90        1.575   3.455   0.000   5.030
   91        1.574   3.460   0.000   5.034
   92        1.575   3.460   0.000   5.035
   93        1.569   3.477   0.000   5.045
   94        1.577   3.469   0.000   5.046
   95        1.576   3.466   0.000   5.042
   96        1.575   3.461   0.000   5.035
   97        1.575   3.464   0.000   5.039
   98        1.574   3.468   0.000   5.042
   99        1.575   3.462   0.000   5.037
  100        1.576   3.456   0.000   5.032
  101        1.574   3.455   0.000   5.030
  102        1.576   3.458   0.000   5.033
  103        1.575   3.457   0.000   5.032
  104        1.575   3.462   0.000   5.037
  105        1.577   3.470   0.000   5.047
  106        1.575   3.463   0.000   5.038
  107        1.575   3.465   0.000   5.040
  108        1.576   3.471   0.000   5.048
  109        1.574   3.457   0.000   5.032
  110        1.575   3.455   0.000   5.030
  111        1.576   3.471   0.000   5.047
  112        1.579   3.443   0.000   5.022
  113        1.576   3.473   0.000   5.049
  114        1.576   3.466   0.000   5.042
  115        1.574   3.460   0.000   5.035
  116        1.574   3.459   0.000   5.033
  117        1.575   3.460   0.000   5.035
  118        1.576   3.461   0.000   5.036
  119        1.576   3.468   0.000   5.045
  120        1.575   3.454   0.000   5.029
  121        1.574   3.456   0.000   5.030
  122        1.576   3.468   0.000   5.045
  123        1.577   3.471   0.000   5.048
  124        1.575   3.461   0.000   5.036
  125        1.576   3.474   0.000   5.050
  126        1.576   3.469   0.000   5.045
  127        1.574   3.454   0.000   5.028
  128        1.574   3.455   0.000   5.030
  129        1.576   3.469   0.000   5.045
  130        1.737   4.369   0.000   6.106
  131        1.737   4.370   0.000   6.106
  132        1.737   4.378   0.000   6.115
  133        1.738   4.380   0.000   6.118
  134        1.737   4.382   0.000   6.119
  135        1.736   4.364   0.000   6.100
  136        1.736   4.361   0.000   6.097
  137        1.738   4.379   0.000   6.118
  138        1.738   4.380   0.000   6.119
  139        1.739   4.380   0.000   6.119
  140        1.739   4.380   0.000   6.118
  141        1.738   4.376   0.000   6.114
  142        1.737   4.377   0.000   6.115
  143        1.738   4.377   0.000   6.115
  144        1.737   4.383   0.000   6.120
  145        1.738   4.377   0.000   6.115
  146        1.737   4.377   0.000   6.114
  147        1.737   4.369   0.000   6.105
  148        1.736   4.368   0.000   6.104
  149        1.739   4.375   0.000   6.114
  150        1.738   4.380   0.000   6.118
  151        1.738   4.372   0.000   6.110
  152        1.737   4.374   0.000   6.111
  153        1.737   4.380   0.000   6.118
  154        1.737   4.371   0.000   6.108
  155        1.737   4.370   0.000   6.107
  156        1.737   4.369   0.000   6.105
  157        1.737   4.366   0.000   6.102
  158        1.738   4.375   0.000   6.113
  159        1.738   4.374   0.000   6.112
  160        1.736   4.368   0.000   6.104
  161        1.737   4.370   0.000   6.106
  162        1.736   4.369   0.000   6.105
  163        1.736   4.367   0.000   6.103
  164        1.736   4.373   0.000   6.109
  165        1.737   4.369   0.000   6.106
  166        1.736   4.369   0.000   6.105
  167        1.737   4.367   0.000   6.104
  168        1.737   4.367   0.000   6.104
  169        1.738   4.370   0.000   6.108
  170        1.737   4.374   0.000   6.111
  171        1.737   4.368   0.000   6.105
  172        1.737   4.381   0.000   6.118
  173        1.737   4.372   0.000   6.109
  174        1.737   4.367   0.000   6.104
  175        1.738   4.376   0.000   6.114
  176        1.735   4.375   0.000   6.110
  177        1.738   4.378   0.000   6.116
  178        1.737   4.371   0.000   6.108
  179        1.738   4.374   0.000   6.112
  180        1.738   4.378   0.000   6.116
  181        1.736   4.369   0.000   6.105
  182        1.738   4.376   0.000   6.114
  183        1.737   4.364   0.000   6.101
  184        1.737   4.373   0.000   6.110
  185        1.737   4.379   0.000   6.116
  186        1.737   4.375   0.000   6.111
  187        1.736   4.366   0.000   6.102
  188        1.737   4.376   0.000   6.113
  189        1.738   4.380   0.000   6.118
  190        1.738   4.380   0.000   6.118
  191        1.738   4.381   0.000   6.119
  192        1.737   4.368   0.000   6.105
  193        1.738   4.379   0.000   6.117
  194        1.737   4.367   0.000   6.103
  195        1.737   4.369   0.000   6.106
  196        1.737   4.380   0.000   6.117
  197        1.737   4.368   0.000   6.105
  198        1.737   4.380   0.000   6.117
  199        1.737   4.379   0.000   6.116
  200        1.738   4.378   0.000   6.116
  201        1.737   4.372   0.000   6.110
  202        1.738   4.367   0.000   6.105
  203        1.738   4.378   0.000   6.116
  204        1.738   4.370   0.000   6.107
  205        1.737   4.375   0.000   6.112
  206        1.736   4.366   0.000   6.103
  207        1.737   4.368   0.000   6.104
  208        1.737   4.381   0.000   6.118
  209        1.737   4.373   0.000   6.111
  210        1.736   4.368   0.000   6.104
  211        1.737   4.369   0.000   6.106
  212        1.737   4.367   0.000   6.104
  213        1.738   4.369   0.000   6.107
  214        1.736   4.366   0.000   6.102
  215        1.738   4.372   0.000   6.111
  216        1.736   4.362   0.000   6.098
  217        1.736   4.362   0.000   6.098
  218        1.737   4.371   0.000   6.108
  219        1.738   4.379   0.000   6.117
  220        1.738   4.380   0.000   6.118
  221        1.738   4.379   0.000   6.117
  222        1.737   4.373   0.000   6.110
  223        1.737   4.376   0.000   6.113
  224        1.737   4.374   0.000   6.112
  225        1.738   4.370   0.000   6.108
  226        1.738   4.378   0.000   6.116
  227        1.737   4.378   0.000   6.115
  228        1.738   4.377   0.000   6.115
  229        1.738   4.372   0.000   6.110
  230        1.736   4.365   0.000   6.101
  231        1.738   4.369   0.000   6.107
  232        1.736   4.366   0.000   6.103
  233        1.738   4.379   0.000   6.117
  234        1.736   4.363   0.000   6.099
  235        1.736   4.363   0.000   6.099
  236        1.738   4.386   0.000   6.124
  237        1.739   4.383   0.000   6.122
  238        1.737   4.373   0.000   6.110
  239        1.738   4.379   0.000   6.117
  240        1.737   4.380   0.000   6.117
  241        1.738   4.376   0.000   6.114
  242        1.738   4.386   0.000   6.124
  243        1.738   4.385   0.000   6.123
  244        1.738   4.379   0.000   6.116
  245        1.738   4.377   0.000   6.115
  246        1.738   4.376   0.000   6.115
  247        1.738   4.383   0.000   6.121
  248        1.737   4.371   0.000   6.108
  249        1.738   4.384   0.000   6.122
  250        1.738   4.367   0.000   6.105
  251        1.738   4.379   0.000   6.117
  252        1.738   4.380   0.000   6.117
  253        1.738   4.379   0.000   6.117
  254        1.739   4.386   0.000   6.125
  255        1.738   4.375   0.000   6.113
  256        1.739   4.384   0.000   6.123
  257        1.738   4.377   0.000   6.115
--------------------------------------------------
tot        345.3221194.326 111.9181651.567
 


 magnetization (x)
 
# of ion       s       p       d       tot
------------------------------------------
    1       -0.000  -0.000   0.000  -0.000
    2       -0.000  -0.000  -0.000  -0.000
    3       -0.000  -0.000   0.000   0.000
    4        0.000   0.000   0.000   0.000
    5       -0.000  -0.000  -0.000  -0.000
    6       -0.000  -0.000   0.000   0.000
    7        0.000   0.001   0.088   0.090
    8        0.000   0.000   0.000   0.000
    9       -0.000  -0.000   0.004   0.003
   10       -0.000   0.000   0.000   0.000
   11       -0.000  -0.000  -0.000  -0.000
   12        0.000  -0.000   0.000   0.000
   13        0.000  -0.000   0.000   0.000
   14        0.000   0.000   0.001   0.001
   15        0.000   0.000   0.003   0.003
   16        0.000   0.000   0.001   0.001
   17        0.000   0.000   0.000   0.000
   18       -0.000  -0.000  -0.000  -0.000
   19       -0.000  -0.000  -0.000  -0.000
   20       -0.000  -0.000  -0.000  -0.000
   21       -0.000  -0.000  -0.000  -0.000
   22        0.000   0.000   0.000   0.000
   23        0.005   0.007   0.888   0.899
   24        0.000   0.000   0.000   0.000
   25       -0.000  -0.000   0.000   0.000
   26        0.000  -0.000   0.000   0.000
   27       -0.000  -0.000  -0.000  -0.000
   28        0.000   0.000  -0.000  -0.000
   29        0.000  -0.000   0.000   0.000
   30        0.000   0.000   0.006   0.006
   31       -0.000  -0.000   0.006   0.006
   32        0.000   0.000   0.000   0.000
   33        0.000   0.000   0.000   0.000
   34        0.000  -0.000   0.000   0.000
   35       -0.000  -0.000   0.000   0.000
   36       -0.000   0.000  -0.000  -0.000
   37       -0.000  -0.000   0.000   0.000
   38        0.000   0.000  -0.000   0.000
   39       -0.000  -0.000  -0.000  -0.000
   40        0.000  -0.000   0.000   0.000
   41        0.000   0.000   0.000   0.000
   42       -0.000  -0.000   0.000   0.000
   43       -0.000  -0.000  -0.000  -0.000
   44       -0.000  -0.000   0.000   0.000
   45       -0.000  -0.000  -0.000  -0.000
   46       -0.000  -0.000   0.000   0.000
   47       -0.000  -0.000   0.000   0.000
   48       -0.000  -0.000   0.000   0.000
   49       -0.000  -0.000  -0.000  -0.000
   50       -0.000  -0.000   0.000   0.000
   51       -0.000  -0.000   0.000  -0.000
   52        0.000  -0.000   0.000   0.000
   53        0.000   0.000   0.000   0.000
   54        0.000  -0.000   0.000   0.000
   55       -0.000  -0.000  -0.002  -0.002
   56        0.000  -0.000   0.000   0.000
   57       -0.000  -0.000   0.000   0.000
   58       -0.000  -0.000   0.000   0.000
   59       -0.000  -0.000  -0.000  -0.000
   60        0.000  -0.000  -0.000  -0.000
   61       -0.000  -0.000   0.000  -0.000
   62       -0.000  -0.000   0.000   0.000
   63       -0.000  -0.000  -0.000  -0.000
   64       -0.000  -0.000   0.000   0.000
   65       -0.000  -0.000   0.000  -0.000
   66       -0.000  -0.000   0.000  -0.000
   67       -0.000  -0.000   0.000  -0.000
   68        0.000   0.000   0.000   0.000
   69       -0.000  -0.000   0.000  -0.000
   70        0.000   0.000   0.000   0.000
   71       -0.000   0.000   0.000   0.000
   72       -0.000  -0.000   0.000  -0.000
   73       -0.000  -0.000   0.000  -0.000
   74       -0.000  -0.000   0.000  -0.000
   75       -0.000  -0.000   0.000  -0.000
   76       -0.000  -0.000   0.000  -0.000
   77       -0.000  -0.000   0.000  -0.000
   78       -0.000  -0.000   0.000  -0.000
   79        0.000   0.000   0.000   0.000
   80       -0.000  -0.000   0.000  -0.000
   81       -0.000  -0.000   0.000  -0.000
   82       -0.000  -0.000   0.000  -0.000
   83       -0.000  -0.000   0.000  -0.000
   84       -0.000  -0.000   0.000  -0.000
   85       -0.000  -0.000   0.000  -0.000
   86       -0.000  -0.000   0.000  -0.000
   87       -0.000  -0.000   0.000  -0.000
   88       -0.000  -0.000   0.000  -0.000
   89       -0.000  -0.000   0.000  -0.000
   90       -0.000  -0.000   0.000  -0.000
   91       -0.000  -0.000   0.000  -0.000
   92       -0.000  -0.000   0.000  -0.000
   93       -0.001  -0.014   0.000  -0.014
   94       -0.000  -0.000   0.000  -0.000
   95       -0.000  -0.000   0.000  -0.000
   96       -0.000  -0.000   0.000  -0.000
   97       -0.000  -0.000   0.000  -0.000
   98       -0.000  -0.000   0.000  -0.000
   99       -0.000  -0.000   0.000  -0.000
  100       -0.000  -0.000   0.000  -0.000
  101       -0.000  -0.000   0.000  -0.000
  102       -0.000  -0.000   0.000  -0.000
  103       -0.000   0.000   0.000   0.000
  104       -0.000  -0.000   0.000  -0.000
  105       -0.000  -0.000   0.000  -0.000
  106       -0.000  -0.000   0.000  -0.000
  107       -0.000  -0.000   0.000  -0.000
  108       -0.000  -0.000   0.000  -0.000
  109       -0.000  -0.000   0.000  -0.000
  110       -0.000  -0.000   0.000  -0.000
  111       -0.000  -0.000   0.000  -0.000
  112       -0.002  -0.043   0.000  -0.045
  113        0.000   0.000   0.000   0.000
  114       -0.000  -0.001   0.000  -0.001
  115       -0.000  -0.001   0.000  -0.001
  116        0.000  -0.000   0.000   0.000
  117       -0.000  -0.000   0.000  -0.000
  118        0.000   0.000   0.000   0.000
  119       -0.000  -0.000   0.000  -0.000
  120       -0.000  -0.000   0.000  -0.000
  121       -0.000  -0.000   0.000  -0.000
  122       -0.000  -0.000   0.000  -0.000
  123       -0.000  -0.000   0.000  -0.000
  124       -0.000  -0.000   0.000  -0.000
  125       -0.000  -0.000   0.000  -0.000
  126       -0.000  -0.000   0.000  -0.000
  127       -0.000  -0.000   0.000  -0.000
  128       -0.000  -0.000   0.000  -0.000
  129       -0.000  -0.000   0.000  -0.000
  130        0.000   0.000   0.000   0.000
  131       -0.000  -0.000   0.000  -0.000
  132       -0.000  -0.000   0.000  -0.000
  133       -0.000  -0.000   0.000  -0.000
  134       -0.000  -0.000   0.000  -0.000
  135       -0.000  -0.000   0.000  -0.000
  136        0.000   0.000   0.000   0.000
  137       -0.000   0.000   0.000   0.000
  138       -0.000  -0.000   0.000  -0.000
  139       -0.000  -0.000   0.000  -0.000
  140       -0.000  -0.000   0.000  -0.000
  141       -0.000  -0.000   0.000  -0.000
  142        0.000   0.000   0.000   0.000
  143        0.000   0.000   0.000   0.000
  144       -0.000   0.002   0.000   0.001
  145        0.000   0.000   0.000   0.000
  146        0.000   0.000   0.000   0.000
  147       -0.000   0.000   0.000   0.000
  148       -0.000  -0.000   0.000  -0.000
  149       -0.000   0.001   0.000   0.001
  150       -0.000  -0.000   0.000  -0.000
  151        0.000  -0.000   0.000  -0.000
  152        0.000  -0.000   0.000  -0.000
  153       -0.000  -0.000   0.000  -0.000
  154       -0.000  -0.000   0.000  -0.000
  155       -0.000  -0.000   0.000  -0.000
  156       -0.000  -0.000   0.000  -0.000
  157       -0.000  -0.000   0.000  -0.000
  158       -0.000  -0.000   0.000  -0.000
  159       -0.000  -0.000   0.000  -0.000
  160        0.000  -0.000   0.000  -0.000
  161       -0.000  -0.000   0.000  -0.000
  162       -0.000  -0.000   0.000  -0.000
  163       -0.000   0.000   0.000   0.000
  164        0.000  -0.000   0.000  -0.000
  165       -0.000  -0.000   0.000  -0.000
  166       -0.000  -0.000   0.000  -0.000
  167       -0.000  -0.000   0.000  -0.000
  168       -0.000  -0.000   0.000  -0.000
  169       -0.000  -0.000   0.000  -0.000
  170       -0.000  -0.000   0.000  -0.000
  171       -0.000  -0.000   0.000  -0.000
  172       -0.000  -0.000   0.000  -0.000
  173       -0.000  -0.000   0.000  -0.000
  174        0.000  -0.000   0.000  -0.000
  175       -0.000  -0.001   0.000  -0.001
  176       -0.000  -0.000   0.000  -0.000
  177        0.000  -0.000   0.000  -0.000
  178       -0.000  -0.000   0.000  -0.000
  179       -0.000  -0.000   0.000  -0.000
  180       -0.000  -0.000   0.000  -0.000
  181        0.000  -0.000   0.000  -0.000
  182       -0.000  -0.000   0.000  -0.000
  183       -0.000  -0.000   0.000  -0.000
  184       -0.000  -0.000   0.000  -0.000
  185       -0.000  -0.000   0.000  -0.000
  186        0.000   0.000   0.000   0.000
  187       -0.000  -0.000   0.000  -0.000
  188       -0.000  -0.000   0.000  -0.000
  189        0.000   0.000   0.000   0.000
  190       -0.000  -0.000   0.000  -0.000
  191       -0.000  -0.001   0.000  -0.001
  192       -0.000  -0.000   0.000  -0.000
  193        0.000  -0.000   0.000  -0.000
  194       -0.000  -0.000   0.000  -0.000
  195       -0.000  -0.000   0.000  -0.000
  196       -0.000  -0.000   0.000  -0.000
  197       -0.000  -0.000   0.000  -0.000
  198        0.000  -0.000   0.000  -0.000
  199       -0.000  -0.005   0.000  -0.006
  200        0.000   0.000   0.000   0.000
  201       -0.000  -0.000   0.000  -0.000
  202       -0.000  -0.000   0.000  -0.000
  203        0.000   0.000   0.000   0.000
  204        0.000   0.000   0.000   0.000
  205       -0.000  -0.000   0.000  -0.000
  206       -0.000  -0.000   0.000  -0.000
  207       -0.000  -0.000   0.000  -0.000
  208       -0.000  -0.000   0.000  -0.000
  209        0.000  -0.000   0.000  -0.000
  210       -0.000  -0.000   0.000  -0.000
  211       -0.000   0.000   0.000   0.000
  212        0.000   0.000   0.000   0.000
  213       -0.000  -0.000   0.000  -0.000
  214        0.000   0.000   0.000   0.000
  215        0.000   0.000   0.000   0.000
  216       -0.000  -0.000   0.000  -0.000
  217        0.000   0.000   0.000   0.000
  218        0.000  -0.000   0.000  -0.000
  219       -0.000  -0.000   0.000  -0.000
  220        0.000   0.000   0.000   0.000
  221        0.000  -0.000   0.000  -0.000
  222       -0.000  -0.000   0.000  -0.000
  223       -0.000   0.000   0.000   0.000
  224       -0.000   0.002   0.000   0.001
  225       -0.000  -0.000   0.000  -0.000
  226       -0.000   0.000   0.000   0.000
  227        0.000   0.000   0.000   0.000
  228        0.000  -0.000   0.000  -0.000
  229        0.000  -0.000   0.000  -0.000
  230        0.000   0.000   0.000   0.000
  231        0.000  -0.000   0.000  -0.000
  232        0.000   0.000   0.000   0.000
  233       -0.000  -0.000   0.000  -0.000
  234       -0.000  -0.000   0.000  -0.000
  235       -0.000  -0.000   0.000  -0.000
  236        0.000   0.000   0.000   0.000
  237       -0.000  -0.000   0.000  -0.000
  238       -0.000  -0.000   0.000  -0.000
  239       -0.000  -0.000   0.000  -0.000
  240        0.000  -0.000   0.000  -0.000
  241       -0.000   0.000   0.000   0.000
  242       -0.000  -0.000   0.000  -0.000
  243        0.000   0.000   0.000   0.000
  244        0.000   0.000   0.000   0.000
  245       -0.000   0.000   0.000   0.000
  246        0.000  -0.000   0.000  -0.000
  247       -0.000  -0.000   0.000  -0.000
  248       -0.000  -0.000   0.000  -0.000
  249        0.000   0.000   0.000   0.000
  250       -0.000  -0.000   0.000  -0.000
  251       -0.000  -0.000   0.000  -0.000
  252        0.000   0.000   0.000   0.000
  253        0.000   0.000   0.000   0.000
  254        0.000  -0.000   0.000  -0.000
  255       -0.000  -0.000   0.000  -0.000
  256       -0.000  -0.000   0.000  -0.000
  257        0.000  -0.000   0.000  -0.000
--------------------------------------------------
tot          0.002  -0.057   0.996   0.941
 

 total amount of memory used by VASP MPI-rank0   291491. kBytes
=======================================================================

   base      :      30000. kBytes
   nonlr-proj:      49456. kBytes
   fftplans  :      27976. kBytes
   grid      :      34041. kBytes
   one-center:       1026. kBytes
   wavefun   :     148992. kBytes
 
  
  
 General timing and accounting informations for this job:
 ========================================================
  
                  Total CPU time used (sec):     4868.999
                            User time (sec):     4464.496
                          System time (sec):      404.503
                         Elapsed time (sec):     4904.345
  
                   Maximum memory used (kb):      627316.
                   Average memory used (kb):           0.
  
                          Minor page faults:       475165
                          Major page faults:           16
                 Voluntary context switches:        33403
