       N       E                     dE             d eps       ncg     rms          rms(c)
DAV:   1    -0.213495809937E+03   -0.21350E+03   -0.64004E-01 20480   0.530E+00    0.638E-02
DAV:   2    -0.213495879353E+03   -0.69417E-04   -0.23681E-05 20096   0.250E-02    0.358E-02
DAV:   3    -0.213495954101E+03   -0.74747E-04   -0.13657E-05 19072   0.236E-02    0.499E-03
DAV:   4    -0.213495955802E+03   -0.17008E-05   -0.63810E-07 10752   0.519E-03    0.109E-03
DAV:   5    -0.213495955830E+03   -0.28085E-07   -0.15259E-07 10624   0.238E-03
   1 F= -.21349596E+03 E0= -.21349596E+03  d E =-.213496E+03  mag=    -0.0000
