 vasp.6.3.0 20Jan22 (build Jan 25 2022 13:20:17) complex                        
  
 executed on             LinuxIFC date 2024.06.05  15:59:06
 running on   80 total cores
 distrk:  each k-point on   80 cores,    1 groups
 distr:  one band on NCORE=   8 cores,   10 groups


--------------------------------------------------------------------------------------------------------


 INCAR:
   SYSTEM = LTO
   ISTART = 1
   ENCUT = 700.0
   IALGO = 38
   EDIFF = 1E-6
   PREC = Accurate
   ISPIN = 2
   LMAXMIX = 4
   ADDGRID = .TRUE.
   LASPH = .TRUE.
   LREAL = Auto
   ROPT = 1E-4 1E-4 1E-4
   GGA = PS
   LDAU = .TRUE.
   LDAUTYPE = 2
   LDAUL = 2   -1    -1
   LDAUU = 4.2  0.0  0.0
   LDAUJ = 0.0  0.0  0.0
   NSW = 100
   EDIFFG = -0.01
   IBRION = 1
   ISIF = 3
   ISMEAR = 0
   SIGMA = 0.01
   ISYM = 0
   LORBIT = 11
   NEDOS = 3001
   NWRITE = 2
   NCORE = 8

 POTCAR:   PAW_PBE Ti_pv 07Sep2000                
 POTCAR:   PAW_PBE O 08Apr2002                    
 POTCAR:    PAW_PBE F 08Apr2002                   
 -----------------------------------------------------------------------------
|                                                                             |
|           W    W    AA    RRRRR   N    N  II  N    N   GGGG   !!!           |
|           W    W   A  A   R    R  NN   N  II  NN   N  G    G  !!!           |
|           W    W  A    A  R    R  N N  N  II  N N  N  G       !!!           |
|           W WW W  AAAAAA  RRRRR   N  N N  II  N  N N  G  GGG   !            |
|           WW  WW  A    A  R   R   N   NN  II  N   NN  G    G                |
|           W    W  A    A  R    R  N    N  II  N    N   GGGG   !!!           |
|                                                                             |
|     You use a magnetic or noncollinear calculation, but did not specify     |
|     the initial magnetic moment with the MAGMOM tag. Note that a            |
|     default of 1 will be used for all atoms. This ferromagnetic setup       |
|     may break the symmetry of the crystal, in particular it may rule        |
|     out finding an antiferromagnetic solution. Thence, we recommend         |
|     setting the initial magnetic moment manually or verifying carefully     |
|     that this magnetic setup is desired.                                    |
|                                                                             |
 -----------------------------------------------------------------------------

 POTCAR:   PAW_PBE Ti_pv 07Sep2000                
   VRHFIN =Ti: d3 s1                                                                                
   LEXCH  = PE                                                                                      
   EATOM  =  1042.3781 eV,   76.6126 Ry                                                             
                                                                                                    
   TITEL  = PAW_PBE Ti_pv 07Sep2000                                                                 
   LULTRA =        F    use ultrasoft PP ?                                                          
   IUNSCR =        1    unscreen: 0-lin 1-nonlin 2-no                                               
   RPACOR =    2.200    partial core radius                                                         
   POMASS =   47.880; ZVAL   =   10.000    mass and valenz                                          
   RCORE  =    2.500    outmost cutoff radius                                                       
   RWIGS  =    2.500; RWIGS  =    1.323    wigner-seitz radius (au A)                               
   ENMAX  =  222.338; ENMIN  =  166.753 eV                                                          
   RCLOC  =    1.701    cutoff for local pot                                                        
   LCOR   =        T    correct aug charges                                                         
   LPAW   =        T    paw PP                                                                      
   EAUG   =  482.848                                                                                
   DEXC   =    -.008                                                                                
   RMAX   =    3.092    core radius for proj-oper                                                   
   RAUG   =    1.300    factor for augmentation sphere                                              
   RDEP   =    2.538    radius for radial grids                                                     
   QCUT   =   -4.042; QGAM   =    8.085    optimization parameters                                  
                                                                                                    
   Description                                                                                      
     l     E      TYP  RCUT    TYP  RCUT                                                            
     1   .000     23  2.300                                                                         
     1  -.100     23  2.300                                                                         
     2   .000     23  2.500                                                                         
     2   .000     23  2.500                                                                         
     0   .000     23  2.500                                                                         
     0  1.500     23  2.500                                                                         
     3   .000      7   .000                                                                         
  local pseudopotential read in
  partial core-charges read in
  atomic valenz-charges read in
  non local Contribution for L=           1  read in
    real space projection operators read in
  non local Contribution for L=           1  read in
    real space projection operators read in
  non local Contribution for L=           2  read in
    real space projection operators read in
  non local Contribution for L=           2  read in
    real space projection operators read in
  non local Contribution for L=           0  read in
    real space projection operators read in
  non local Contribution for L=           0  read in
    real space projection operators read in
    PAW grid and wavefunctions read in
 
   number of l-projection  operators is LMAX  =           6
   number of lm-projection operators is LMMAX =          18
 
 POTCAR:   PAW_PBE O 08Apr2002                    
   VRHFIN =O: s2p4                                                                                  
   LEXCH  = PE                                                                                      
   EATOM  =   432.3788 eV,   31.7789 Ry                                                             
                                                                                                    
   TITEL  = PAW_PBE O 08Apr2002                                                                     
   LULTRA =        F    use ultrasoft PP ?                                                          
   IUNSCR =        0    unscreen: 0-lin 1-nonlin 2-no                                               
   RPACOR =     .000    partial core radius                                                         
   POMASS =   16.000; ZVAL   =    6.000    mass and valenz                                          
   RCORE  =    1.520    outmost cutoff radius                                                       
   RWIGS  =    1.550; RWIGS  =     .820    wigner-seitz radius (au A)                               
   ENMAX  =  400.000; ENMIN  =  300.000 eV                                                          
   ICORE  =        2    local potential                                                             
   LCOR   =        T    correct aug charges                                                         
   LPAW   =        T    paw PP                                                                      
   EAUG   =  605.392                                                                                
   DEXC   =     .000                                                                                
   RMAX   =    2.264    core radius for proj-oper                                                   
   RAUG   =    1.300    factor for augmentation sphere                                              
   RDEP   =    1.550    radius for radial grids                                                     
   QCUT   =   -5.520; QGAM   =   11.041    optimization parameters                                  
                                                                                                    
   Description                                                                                      
     l     E      TYP  RCUT    TYP  RCUT                                                            
     0   .000     23  1.200                                                                         
     0  -.700     23  1.200                                                                         
     1   .000     23  1.520                                                                         
     1   .600     23  1.520                                                                         
     2   .000      7  1.500                                                                         
  local pseudopotential read in
  atomic valenz-charges read in
  non local Contribution for L=           0  read in
    real space projection operators read in
  non local Contribution for L=           0  read in
    real space projection operators read in
  non local Contribution for L=           1  read in
    real space projection operators read in
  non local Contribution for L=           1  read in
    real space projection operators read in
    PAW grid and wavefunctions read in
 
   number of l-projection  operators is LMAX  =           4
   number of lm-projection operators is LMMAX =           8
 
 POTCAR:    PAW_PBE F 08Apr2002                   
   VRHFIN =F: s2p5                                                                                  
   LEXCH  = PE                                                                                      
   EATOM  =   659.6475 eV,   48.4827 Ry                                                             
                                                                                                    
   TITEL  = PAW_PBE F 08Apr2002                                                                     
   LULTRA =        F    use ultrasoft PP ?                                                          
   IUNSCR =        1    unscreen: 0-lin 1-nonlin 2-no                                               
   RPACOR =    1.200    partial core radius                                                         
   POMASS =   18.998; ZVAL   =    7.000    mass and valenz                                          
   RCORE  =    1.520    outmost cutoff radius                                                       
   RWIGS  =    1.500; RWIGS  =    0.794    wigner-seitz radius (au A)                               
   ENMAX  =  400.000; ENMIN  =  300.000 eV                                                          
   ICORE  =        2    local potential                                                             
   LCOR   =        T    correct aug charges                                                         
   LPAW   =        T    paw PP                                                                      
   EAUG   =  613.614                                                                                
   RMAX   =    1.555    core radius for proj-oper                                                   
   RAUG   =    1.300    factor for augmentation sphere                                              
   RDEP   =    1.539    radius for radial grids                                                     
   RDEPT  =    1.299    core radius for aug-charge                                                  
                                                                                                    
   Atomic configuration                                                                             
    4 entries                                                                                       
     n  l   j            E        occ.                                                              
     1  0  0.50      -663.3661   2.0000                                                             
     2  0  0.50       -29.8995   2.0000                                                             
     2  1  0.50       -11.1114   5.0000                                                             
     3  2  1.50       -10.8847   0.0000                                                             
   Description                                                                                      
     l       E           TYP  RCUT    TYP  RCUT                                                     
     0    -29.8995018     23  1.200                                                                 
     0     -9.5240782     23  1.200                                                                 
     1    -11.1113914     23  1.520                                                                 
     1      1.3605826     23  1.520                                                                 
     2    -10.8846608      7  1.500                                                                 
  local pseudopotential read in
  partial core-charges read in
  partial kinetic energy density read in
  atomic valenz-charges read in
  non local Contribution for L=           0  read in
    real space projection operators read in
  non local Contribution for L=           0  read in
    real space projection operators read in
  non local Contribution for L=           1  read in
    real space projection operators read in
  non local Contribution for L=           1  read in
    real space projection operators read in
    PAW grid and wavefunctions read in
 
   number of l-projection  operators is LMAX  =           4
   number of lm-projection operators is LMMAX =           8
 
 Optimization of the real space projectors (new method)

 maximal supplied QI-value         = 15.12
 optimisation between [QCUT,QGAM] = [ 13.45, 27.06] = [ 50.69,205.06] Ry 
 Optimized for a Real-space Cutoff    1.49 Angstroem

   l    n(q)    QCUT    max X(q) W(low)/X(q) W(high)/X(q)  e(spline) 
   1     12    13.455     4.841    0.13E-05    0.83E-06    0.56E-07
   1     12    13.455     5.701    0.32E-04    0.25E-04    0.17E-06
   2     11    13.455     4.569    0.64E-05    0.34E-05    0.50E-07
   2     11    13.455    32.276    0.49E-04    0.38E-04    0.46E-06
   0     12    13.455    30.046    0.17E-04    0.41E-05    0.51E-07
   0     12    13.455    45.433    0.12E-04    0.27E-04    0.38E-06
 Optimization of the real space projectors (new method)

 maximal supplied QI-value         = 24.76
 optimisation between [QCUT,QGAM] = [ 13.37, 26.98] = [ 50.04,203.89] Ry 
 Optimized for a Real-space Cutoff    1.17 Angstroem

   l    n(q)    QCUT    max X(q) W(low)/X(q) W(high)/X(q)  e(spline) 
   0      9    13.368     4.192    0.20E-04    0.58E-05    0.56E-07
   0      9    13.368     8.473    0.60E-04    0.52E-04    0.21E-06
   1      9    13.368     2.474    0.22E-04    0.17E-04    0.28E-07
   1      9    13.368     3.912    0.94E-04    0.97E-04    0.20E-06
 Optimization of the real space projectors (new method)

 maximal supplied QI-value         = 24.76
 optimisation between [QCUT,QGAM] = [ 13.37, 26.98] = [ 50.04,203.89] Ry 
 Optimized for a Real-space Cutoff    1.17 Angstroem

   l    n(q)    QCUT    max X(q) W(low)/X(q) W(high)/X(q)  e(spline) 
   0      9    13.368    14.049    0.39E-04    0.34E-04    0.16E-06
   0      9    13.368     8.945    0.54E-04    0.47E-04    0.20E-06
   1      9    13.368     7.086    0.99E-04    0.10E-03    0.23E-06
   1      9    13.368     6.747    0.86E-04    0.89E-04    0.21E-06
 -----------------------------------------------------------------------------
|                                                                             |
|               ----> ADVICE to this user running VASP <----                  |
|                                                                             |
|     You enforced a specific xc type in the INCAR file but a different       |
|     type was found in the POTCAR file.                                      |
|     I HOPE YOU KNOW WHAT YOU ARE DOING!                                     |
|                                                                             |
 -----------------------------------------------------------------------------

 PAW_PBE Ti_pv 07Sep2000                :
 energy of atom  1       EATOM=-1042.3781
 kinetic energy error for atom=    0.0006 (will be added to EATOM!!)
 PAW_PBE O 08Apr2002                    :
 energy of atom  2       EATOM= -432.3788
 kinetic energy error for atom=    0.0091 (will be added to EATOM!!)
  PAW_PBE F 08Apr2002                   :
 energy of atom  3       EATOM= -659.6475
 kinetic energy error for atom=    0.0140 (will be added to EATOM!!)
 
 
 POSCAR: Ti27 O27 F54
  positions in direct lattice
  velocities in cartesian coordinates
 exchange correlation table for  LEXCH =       14
   RHO(1)=    0.500       N(1)  =     2000
   RHO(2)=  100.500       N(2)  =     4000
 


--------------------------------------------------------------------------------------------------------


 ion  position               nearest neighbor table
   1  0.012  1.000  0.991-  37 1.79  46 1.83  55 1.94  58 1.94  91 2.07  86 2.10
   2  1.000  0.014  0.334-  28 1.75  92 1.92  91 1.93  73 1.94  87 1.95  59 2.08
   3  0.991  0.000  0.677-  46 1.81  42 1.83  60 1.94  56 1.94  74 2.06  92 2.08
   4  0.001  0.345  0.009-  29 1.79  47 1.84  75 1.96  88 1.97  94 2.05  55 2.08
   5  0.991  0.328  0.324-  47 1.82  43 1.85  28 1.90  57 2.03  93 2.04  76 2.07
   6  0.990  0.344  0.666-  30 1.80  44 1.82  93 1.96  94 1.96  77 2.08  56 2.08
   7  0.010  0.660  0.989-  48 1.83  38 1.83  29 1.87  58 2.05  95 2.09  89 2.10
   8  0.987  0.668  0.334-  45 1.77  95 1.91  96 1.91  59 1.93  57 1.93  78 2.09
   9  0.009  0.659  0.678-  48 1.82  39 1.85  30 1.86  60 2.05  90 2.08  96 2.09
  10  0.324  0.988  0.993-  32 1.81  37 1.85  49 1.87  97 2.05  79 2.07  61 2.09
  11  0.343  0.993  0.333-  40 1.82  33 1.86  98 1.92  97 1.93  62 2.03  73 2.05
  12  0.334  0.006  0.678-  49 1.79  31 1.86  74 1.95  80 1.95  66 2.03  98 2.09
  13  0.346  0.333  0.002-  41 1.77  61 1.92  63 1.93  99 1.94 100 1.95  75 2.05
  14  0.334  0.334  0.346-  50 1.77  76 1.92  81 1.93  64 1.93  62 1.95  99 2.06
  15  0.334  0.322  0.660-  31 1.80  50 1.88  82 1.93  77 1.93 100 2.02  65 2.05
  16  0.323  0.677  0.991-  38 1.82  32 1.84  51 1.85  63 2.08 101 2.08  83 2.09
  17  0.332  0.679  0.333-  33 1.79 101 1.91 102 1.91  78 1.92  84 1.93  64 2.06
  18  0.322  0.666  0.678-  39 1.80  51 1.80  65 1.95  66 1.97  85 2.08 102 2.11
  19  0.667  0.999  0.012-  52 1.80  86 1.91  79 1.92  70 1.92  67 1.93 104 2.03
  20  0.656  0.999  0.327-  40 1.82  52 1.86  71 1.93  68 1.94 103 2.00  87 2.05
  21  0.676  0.012  0.668-  34 1.79  42 1.83 104 1.96 103 1.97  80 2.05  72 2.08
  22  0.662  0.340  0.989-  53 1.80  35 1.89  41 1.90  88 2.00  67 2.04 105 2.08
  23  0.678  0.343  0.333-  43 1.80  36 1.83 105 1.94 106 1.95  68 2.07  81 2.09
  24  0.676  0.324  0.674-  44 1.83  34 1.86  53 1.86 106 2.06  82 2.06  69 2.07
  25  0.667  0.653  1.000-  35 1.76  89 1.92  83 1.92 108 1.94 107 1.95  70 2.09
  26  0.673  0.656  0.339-  36 1.82  54 1.87  45 1.88 107 2.02  84 2.03  71 2.05
  27  0.666  0.668  0.653-  54 1.78  90 1.92  85 1.92  69 1.92  72 1.93 108 2.09
  28  0.000  0.165  0.336-   2 1.75   5 1.90
  29  0.995  0.499  0.995-   4 1.79   7 1.87
  30  0.997  0.499  0.670-   6 1.80   9 1.86
  31  0.338  0.167  0.668-  15 1.80  12 1.86
  32  0.343  0.834  0.012-  10 1.81  16 1.84
  33  0.330  0.833  0.330-  17 1.79  11 1.86
  34  0.656  0.165  0.664-  21 1.79  24 1.86
  35  0.674  0.501  0.008-  25 1.76  22 1.89
  36  0.659  0.500  0.324-  26 1.82  23 1.83
  37  0.166  0.998  0.008-   1 1.79  10 1.85
  38  0.166  0.670  0.003-  16 1.82   7 1.83
  39  0.168  0.668  0.661-  18 1.80   9 1.85
  40  0.499  0.003  0.335-  11 1.82  20 1.82
  41  0.499  0.333  0.005-  13 1.77  22 1.90
  42  0.833  0.005  0.667-  21 1.83   3 1.83
  43  0.833  0.338  0.341-  23 1.80   5 1.85
  44  0.834  0.327  0.658-   6 1.82  24 1.83
  45  0.834  0.667  0.330-   8 1.77  26 1.88
  46  0.004  0.997  0.833-   3 1.81   1 1.83
  47  0.002  0.336  0.168-   5 1.82   4 1.84
  48  0.995  0.678  0.833-   9 1.82   7 1.83
  49  0.333  0.994  0.832-  12 1.79  10 1.87
  50  0.336  0.335  0.498-  14 1.77  15 1.88
  51  0.337  0.671  0.832-  18 1.80  16 1.85
  52  0.670  0.000  0.167-  19 1.80  20 1.86
  53  0.668  0.336  0.834-  22 1.80  24 1.86
  54  0.664  0.668  0.500-  27 1.78  26 1.87
  55  0.998  0.166  0.003-   1 1.94   4 2.08
  56  0.012  0.166  0.660-   3 1.94   6 2.08
  57  0.007  0.503  0.339-   8 1.93   5 2.03
  58  0.992  0.834  0.012-   1 1.94   7 2.05
  59  0.006  0.834  0.331-   8 1.93   2 2.08
  60  0.997  0.834  0.657-   3 1.94   9 2.05
  61  0.332  0.168  0.998-  13 1.92  10 2.09
  62  0.325  0.167  0.333-  14 1.95  11 2.03
  63  0.333  0.499  0.004-  13 1.93  16 2.08
  64  0.340  0.500  0.330-  14 1.93  17 2.06
  65  0.334  0.498  0.667-  18 1.95  15 2.05
  66  0.338  0.833  0.652-  18 1.97  12 2.03
  67  0.670  0.164  0.997-  19 1.93  22 2.04
  68  0.671  0.165  0.342-  20 1.94  23 2.07
  69  0.669  0.502  0.666-  27 1.92  24 2.07
  70  0.660  0.834  0.995-  19 1.92  25 2.09
  71  0.665  0.833  0.333-  20 1.93  26 2.05
  72  0.665  0.833  0.673-  27 1.93  21 2.08
  73  0.167  1.000  0.326-   2 1.94  11 2.05
  74  0.167  0.994  0.660-  12 1.95   3 2.06
  75  0.169  0.332  0.996-   4 1.96  13 2.05
  76  0.169  0.339  0.333-  14 1.92   5 2.07
  77  0.169  0.334  0.672-  15 1.93   6 2.08
  78  0.167  0.663  0.336-  17 1.92   8 2.09
  79  0.501  0.009  0.003-  19 1.92  10 2.07
  80  0.500  0.990  0.660-  12 1.95  21 2.05
  81  0.498  0.323  0.324-  14 1.93  23 2.09
  82  0.499  0.343  0.670-  15 1.93  24 2.06
  83  0.502  0.660  0.003-  25 1.92  16 2.09
  84  0.499  0.672  0.329-  17 1.93  26 2.03
  85  0.501  0.665  0.666-  27 1.92  18 2.08
  86  0.831  0.998  0.995-  19 1.91   1 2.10
  87  0.833  0.994  0.340-   2 1.95  20 2.05
  88  0.833  0.325  0.002-   4 1.97  22 2.00
  89  0.831  0.677  0.007-  25 1.92   7 2.10
  90  0.831  0.671  0.663-  27 1.92   9 2.08
  91  0.988  1.000  0.168-   2 1.93   1 2.07
  92  0.004  0.996  0.498-   2 1.92   3 2.08
  93  0.013  0.335  0.499-   6 1.96   5 2.04
  94  0.999  0.321  0.834-   6 1.96   4 2.05
  95  0.002  0.665  0.169-   8 1.91   7 2.09
  96  0.997  0.670  0.498-   8 1.91   9 2.09
  97  0.338  0.012  0.168-  11 1.93  10 2.05
  98  0.328  0.003  0.498-  11 1.92  12 2.09
  99  0.327  0.332  0.169-  13 1.94  14 2.06
 100  0.334  0.338  0.834-  13 1.95  15 2.02
 101  0.336  0.657  0.169-  17 1.91  16 2.08
 102  0.341  0.660  0.497-  17 1.91  18 2.11
 103  0.668  0.991  0.499-  21 1.97  20 2.00
 104  0.661  0.999  0.836-  21 1.96  19 2.03
 105  0.670  0.320  0.167-  23 1.94  22 2.08
 106  0.652  0.338  0.499-  23 1.95  24 2.06
 107  0.662  0.680  0.166-  25 1.95  26 2.02
 108  0.668  0.665  0.833-  25 1.94  27 2.09
 

IMPORTANT INFORMATION: All symmetrisations will be switched off!
NOSYMM: (Re-)initialisation of all symmetry stuff for point group C_1.


----------------------------------------------------------------------------------------

                                     Primitive cell                                     

  volume of cell :    1555.6025

  direct lattice vectors                    reciprocal lattice vectors
    11.594201295 -0.007175364  0.007857285     0.086250085  0.000053296 -0.000058470
    -0.007158505 11.582551563 -0.001998047     0.000053422  0.086336798  0.000014896
     0.007854092 -0.002003505 11.583876514    -0.000058494  0.000014856  0.086326929

  length of vectors
    11.594206178 11.582553947 11.583879350     0.086250121  0.086336816  0.086326950

  position of ions in fractional coordinates (direct lattice)
     0.012006183  0.999716982  0.990972080
     0.999538292  0.013569955  0.333646881
     0.990501166  0.000112734  0.677031337
     0.001191743  0.345376190  0.009146819
     0.991063490  0.328325414  0.324059923
     0.989694187  0.343839120  0.666063320
     0.009798448  0.660170409  0.989097687
     0.986848890  0.668329838  0.333588006
     0.009295547  0.658952533  0.678017629
     0.324463396  0.987803283  0.993009222
     0.342823411  0.992824224  0.333208126
     0.333746445  0.006227673  0.678306823
     0.346355116  0.333206446  0.002044113
     0.333920235  0.334258297  0.345906790
     0.334401442  0.321782724  0.660424895
     0.322743492  0.677454634  0.991155498
     0.332329294  0.678573746  0.332855632
     0.321793041  0.666208115  0.677872705
     0.666684945  0.998872431  0.011589120
     0.656474158  0.999459842  0.326537671
     0.675574648  0.011768591  0.667536699
     0.661616672  0.339835920  0.988801450
     0.677744088  0.343358565  0.332572583
     0.676246660  0.323699889  0.674131964
     0.667094650  0.653339420  0.999915245
     0.672914159  0.655974559  0.338642066
     0.666057961  0.667555780  0.652824866
     0.000121525  0.164888572  0.335712689
     0.994610367  0.499188679  0.995049846
     0.997088537  0.499187472  0.670213351
     0.337886898  0.166740518  0.667599066
     0.342646427  0.833977398  0.012059947
     0.329947267  0.832849667  0.330398020
     0.655599454  0.165152047  0.663560015
     0.673718702  0.501455768  0.008263258
     0.659074045  0.500142978  0.324020782
     0.165644845  0.997685839  0.008024793
     0.166389079  0.669512225  0.003055736
     0.167798306  0.668484953  0.661487737
     0.499475292  0.002518724  0.335491718
     0.498889400  0.332607295  0.004696993
     0.833005422  0.004758681  0.667106653
     0.832871898  0.338244587  0.340893360
     0.833619957  0.326613320  0.657687867
     0.834184288  0.666716438  0.330346108
     0.003767434  0.996825473  0.832971189
     0.001796285  0.335775653  0.167798835
     0.995015503  0.677788738  0.833247499
     0.333350945  0.994042311  0.831920340
     0.336201801  0.334752868  0.498296652
     0.336954673  0.670662048  0.832400945
     0.669978918  0.000043155  0.166726424
     0.667940663  0.335945348  0.833789270
     0.663989611  0.667867982  0.499555981
     0.997715431  0.165935792  0.003144976
     0.011514277  0.165717781  0.660060536
     0.006752746  0.502610133  0.338791410
     0.991579287  0.834367404  0.011886544
     0.005777228  0.834066570  0.331300028
     0.997213519  0.833967239  0.656560613
     0.331920571  0.167802916  0.998489030
     0.325229137  0.166967931  0.333471240
     0.332735643  0.498948656  0.003563636
     0.339519087  0.500498924  0.330349515
     0.333839830  0.498236957  0.666632129
     0.337686310  0.833343156  0.652081005
     0.669842894  0.164428770  0.997249783
     0.670687028  0.165435965  0.341657848
     0.668864122  0.501968466  0.666139832
     0.659686507  0.833706793  0.995136400
     0.665063270  0.833043292  0.332697131
     0.664619603  0.832809371  0.672573012
     0.166506080  0.999545479  0.326093077
     0.167159679  0.994302822  0.660122268
     0.169310152  0.331933177  0.995958067
     0.168817741  0.338781387  0.333260013
     0.168543144  0.333789032  0.671542433
     0.167171289  0.662614445  0.335943091
     0.501413782  0.009380111  0.002664757
     0.500435668  0.990341249  0.659956447
     0.498438040  0.323479933  0.324028952
     0.499361746  0.343462845  0.669952066
     0.501802914  0.660226941  0.002569457
     0.498907460  0.671865205  0.329400628
     0.500994839  0.665056097  0.666350498
     0.830971962  0.998329077  0.995100610
     0.832684360  0.994323108  0.340157100
     0.833096000  0.324518471  0.001771197
     0.830693726  0.676581865  0.007345988
     0.831090464  0.671356944  0.663450558
     0.988103766  0.999736840  0.168026345
     0.004466844  0.995563242  0.498451079
     0.013189134  0.334744656  0.498763028
     0.999243010  0.321249123  0.833832989
     0.002156870  0.665003499  0.169383744
     0.997405186  0.669924197  0.498352538
     0.337516314  0.011921361  0.168111414
     0.327579323  0.003178699  0.497724685
     0.326770199  0.331682439  0.168518857
     0.334003019  0.337690235  0.834464498
     0.335667007  0.657235990  0.169458495
     0.340591373  0.660187211  0.496767795
     0.667831302  0.991315887  0.498793271
     0.660793048  0.998803252  0.836021420
     0.670262601  0.319696993  0.166654429
     0.652109376  0.338492757  0.498917457
     0.662231765  0.679976050  0.165935910
     0.667945022  0.664827212  0.833035950

  ion indices of the primitive-cell ions
   primitive index   ion index
                 1           1
                 2           2
                 3           3
                 4           4
                 5           5
                 6           6
                 7           7
                 8           8
                 9           9
                10          10
                11          11
                12          12
                13          13
                14          14
                15          15
                16          16
                17          17
                18          18
                19          19
                20          20
                21          21
                22          22
                23          23
                24          24
                25          25
                26          26
                27          27
                28          28
                29          29
                30          30
                31          31
                32          32
                33          33
                34          34
                35          35
                36          36
                37          37
                38          38
                39          39
                40          40
                41          41
                42          42
                43          43
                44          44
                45          45
                46          46
                47          47
                48          48
                49          49
                50          50
                51          51
                52          52
                53          53
                54          54
                55          55
                56          56
                57          57
                58          58
                59          59
                60          60
                61          61
                62          62
                63          63
                64          64
                65          65
                66          66
                67          67
                68          68
                69          69
                70          70
                71          71
                72          72
                73          73
                74          74
                75          75
                76          76
                77          77
                78          78
                79          79
                80          80
                81          81
                82          82
                83          83
                84          84
                85          85
                86          86
                87          87
                88          88
                89          89
                90          90
                91          91
                92          92
                93          93
                94          94
                95          95
                96          96
                97          97
                98          98
                99          99
               100         100
               101         101
               102         102
               103         103
               104         104
               105         105
               106         106
               107         107
               108         108

----------------------------------------------------------------------------------------

 
 
 KPOINTS: Title                                   

Automatic generation of k-mesh.
 Grid dimensions read from file:
 generate k-points for:    3    3    3

 Generating k-lattice:

  Cartesian coordinates                     Fractional coordinates (reciprocal lattice)
     0.028750028  0.000017765 -0.000019490     0.333333333 -0.000000000  0.000000000
     0.000017807  0.028778933  0.000004965    -0.000000000  0.333333333 -0.000000000
    -0.000019498  0.000004952  0.028775643    -0.000000000 -0.000000000  0.333333333

  Length of vectors
     0.028750040  0.028778939  0.028775650

  Shift w.r.t. Gamma in fractional coordinates (k-lattice)
     0.000000000  0.000000000  0.000000000

 
 Subroutine IBZKPT returns following result:
 ===========================================
 
 Found     14 irreducible k-points:
 
 Following reciprocal coordinates:
            Coordinates               Weight
  0.000000  0.000000  0.000000      1.000000
  0.333333 -0.000000 -0.000000      2.000000
  0.000000  0.333333  0.000000      2.000000
  0.333333  0.333333  0.000000      2.000000
 -0.333333  0.333333  0.000000      2.000000
  0.000000 -0.000000  0.333333      2.000000
  0.333333 -0.000000  0.333333      2.000000
 -0.333333 -0.000000  0.333333      2.000000
 -0.000000  0.333333  0.333333      2.000000
  0.333333  0.333333  0.333333      2.000000
 -0.333333  0.333333  0.333333      2.000000
 -0.000000 -0.333333  0.333333      2.000000
  0.333333 -0.333333  0.333333      2.000000
 -0.333333 -0.333333  0.333333      2.000000
 
 Following cartesian coordinates:
            Coordinates               Weight
  0.000000  0.000000  0.000000      1.000000
  0.028750  0.000018 -0.000019      2.000000
  0.000018  0.028779  0.000005      2.000000
  0.028768  0.028797 -0.000015      2.000000
 -0.028732  0.028761  0.000024      2.000000
 -0.000019  0.000005  0.028776      2.000000
  0.028731  0.000023  0.028756      2.000000
 -0.028770 -0.000013  0.028795      2.000000
 -0.000002  0.028784  0.028781      2.000000
  0.028748  0.028802  0.028761      2.000000
 -0.028752  0.028766  0.028800      2.000000
 -0.000037 -0.028774  0.028771      2.000000
  0.028713 -0.028756  0.028751      2.000000
 -0.028787 -0.028792  0.028790      2.000000
 


--------------------------------------------------------------------------------------------------------




 Dimension of arrays:
   k-points           NKPTS =     14   k-points in BZ     NKDIM =     14   number of bands    NBANDS=    540
   number of dos      NEDOS =   3001   number of ions     NIONS =    108
   non local maximal  LDIM  =      6   non local SUM 2l+1 LMDIM =     18
   total plane-waves  NPLWV = ******
   max r-space proj   IRMAX =   8919   max aug-charges    IRDMAX= 199838
   dimension x,y,z NGX =   100 NGY =  100 NGZ =  100
   dimension x,y,z NGXF=   200 NGYF=  200 NGZF=  200
   support grid    NGXF=   400 NGYF=  400 NGZF=  400
   ions per type =              27  27  54
   NGX,Y,Z   is equivalent  to a cutoff of  14.34, 14.35, 14.35 a.u.
   NGXF,Y,Z  is equivalent  to a cutoff of  28.68, 28.71, 28.70 a.u.

 SYSTEM =  LTO                                     
 POSCAR =  Ti27 O27 F54                            

 Startparameter for this run:
   NWRITE =      2    write-flag & timer
   PREC   = accura    normal or accurate (medium, high low for compatibility)
   ISTART =      1    job   : 0-new  1-cont  2-samecut
   ICHARG =      0    charge: 1-file 2-atom 10-const
   ISPIN  =      2    spin polarized calculation?
   LNONCOLLINEAR =      F non collinear calculations
   LSORBIT =      F    spin-orbit coupling
   INIWAV =      1    electr: 0-lowe 1-rand  2-diag
   LASPH  =      T    aspherical Exc in radial PAW
 Electronic Relaxation 1
   ENCUT  =  700.0 eV  51.45 Ry    7.17 a.u.  25.01 24.99 24.99*2*pi/ulx,y,z
   ENINI  =  700.0     initial cutoff
   ENAUG  =  613.6 eV  augmentation charge cutoff
   NELM   =     60;   NELMIN=  2; NELMDL=  0     # of ELM steps 
   EDIFF  = 0.1E-05   stopping-criterion for ELM
   LREAL  =      T    real-space projection
   NLSPLINE    = F    spline interpolate recip. space projectors
   LCOMPAT=      F    compatible to vasp.4.4
   GGA_COMPAT  = T    GGA compatible to vasp.4.4-vasp.4.6
   LMAXPAW     = -100 max onsite density
   LMAXMIX     =    4 max onsite mixed and CHGCAR
   VOSKOWN=      0    Vosko Wilk Nusair interpolation
   ROPT   =   -0.00010  -0.00010  -0.00010
 Ionic relaxation
   EDIFFG = -.1E-01   stopping-criterion for IOM
   NSW    =    100    number of steps for IOM
   NBLOCK =      1;   KBLOCK =    100    inner block; outer block 
   IBRION =      1    ionic relax: 0-MD 1-quasi-New 2-CG
   NFREE  =      0    steps in history (QN), initial steepest desc. (CG)
   ISIF   =      3    stress and relaxation
   IWAVPR =     11    prediction:  0-non 1-charg 2-wave 3-comb
   ISYM   =      0    0-nonsym 1-usesym 2-fastsym
   LCORR  =      T    Harris-Foulkes like correction to forces

   POTIM  = 0.5000    time-step for ionic-motion
   TEIN   =    0.0    initial temperature
   TEBEG  =    0.0;   TEEND  =   0.0 temperature during run
   SMASS  =  -3.00    Nose mass-parameter (am)
   estimated Nose-frequenzy (Omega)   =  0.10E-29 period in steps = 0.13E+47 mass=  -0.307E-26a.u.
   SCALEE = 1.0000    scale energy and forces
   NPACO  =    256;   APACO  = 10.0  distance and # of slots for P.C.
   PSTRESS=    0.0 pullay stress

  Mass of Ions in am
   POMASS =  47.88 16.00 19.00
  Ionic Valenz
   ZVAL   =  10.00  6.00  7.00
  Atomic Wigner-Seitz radii
   RWIGS  =  -1.00 -1.00 -1.00
  virtual crystal weights 
   VCA    =   1.00  1.00  1.00
   NELECT =     810.0000    total number of electrons
   NUPDOWN=      -1.0000    fix difference up-down

 DOS related values:
   EMIN   =  10.00;   EMAX   =-10.00  energy-range for DOS
   EFERMI =   0.00
   ISMEAR =     0;   SIGMA  =   0.01  broadening in eV -4-tet -1-fermi 0-gaus

 Electronic relaxation 2 (details)
   IALGO  =     38    algorithm
   LDIAG  =      T    sub-space diagonalisation (order eigenvalues)
   LSUBROT=      F    optimize rotation matrix (better conditioning)
   TURBO    =      0    0=normal 1=particle mesh
   IRESTART =      0    0=no restart 2=restart with 2 vectors
   NREBOOT  =      0    no. of reboots
   NMIN     =      0    reboot dimension
   EREF     =   0.00    reference energy to select bands
   IMIX   =      4    mixing-type and parameters
     AMIX     =   0.40;   BMIX     =  1.00
     AMIX_MAG =   1.60;   BMIX_MAG =  1.00
     AMIN     =   0.10
     WC   =   100.;   INIMIX=   1;  MIXPRE=   1;  MAXMIX= -45

 Intra band minimization:
   WEIMIN = 0.0010     energy-eigenvalue tresh-hold
   EBREAK =  0.46E-09  absolut break condition
   DEPER  =   0.30     relativ break condition  

   TIME   =   0.40     timestep for ELM

  volume/ion in A,a.u.               =      14.40        97.20
  Fermi-wavevector in a.u.,A,eV,Ry     =   1.317054  2.488871 23.601096  1.734632
  Thomas-Fermi vector in A             =   2.447123
 
 Write flags
   LWAVE        =      T    write WAVECAR
   LDOWNSAMPLE  =      F    k-point downsampling of WAVECAR
   LCHARG       =      T    write CHGCAR
   LVTOT        =      F    write LOCPOT, total local potential
   LVHAR        =      F    write LOCPOT, Hartree potential only
   LELF         =      F    write electronic localiz. function (ELF)
   LORBIT       =     11    0 simple, 1 ext, 2 COOP (PROOUT), +10 PAW based schemes


 Dipole corrections
   LMONO  =      F    monopole corrections only (constant potential shift)
   LDIPOL =      F    correct potential (dipole corrections)
   IDIPOL =      0    1-x, 2-y, 3-z, 4-all directions 
   EPSILON=  1.0000000 bulk dielectric constant

 LDA+U is selected, type is set to LDAUTYPE =  2
   angular momentum for each species LDAUL =     2   -1   -1
   U (eV)           for each species LDAUU =   4.2  0.0  0.0
   J (eV)           for each species LDAUJ =   0.0  0.0  0.0
 Exchange correlation treatment:
   GGA     =    PS    GGA type
   LEXCH   =    14    internal setting for exchange type
   LIBXC   =     F    Libxc                    
   VOSKOWN =     0    Vosko Wilk Nusair interpolation
   LHFCALC =     F    Hartree Fock is set to
   LHFONE  =     F    Hartree Fock one center treatment
   AEXX    =    0.0000 exact exchange contribution

 Linear response parameters
   LEPSILON=     F    determine dielectric tensor
   LRPA    =     F    only Hartree local field effects (RPA)
   LNABLA  =     F    use nabla operator in PAW spheres
   LVEL    =     F    velocity operator in full k-point grid
   CSHIFT  =0.1000    complex shift for real part using Kramers Kronig
   OMEGAMAX=  -1.0    maximum frequency
   DEG_THRESHOLD= 0.2000000E-02 threshold for treating states as degnerate
   RTIME   =   -0.100 relaxation time in fs
  (WPLASMAI=    0.000 imaginary part of plasma frequency in eV, 0.658/RTIME)
   DFIELD  = 0.0000000 0.0000000 0.0000000 field for delta impulse in time
 
  Optional k-point grid parameters
   LKPOINTS_OPT  =     F    use optional k-point grid
   KPOINTS_OPT_MODE=     1    mode for optional k-point grid
 
 Orbital magnetization related:
   ORBITALMAG=     F  switch on orbital magnetization
   LCHIMAG   =     F  perturbation theory with respect to B field
   DQ        =  0.001000  dq finite difference perturbation B field
   LLRAUG    =     F  two centre corrections for induced B field



--------------------------------------------------------------------------------------------------------


 quasi-Newton-method for relaxation of ions
 charge density and potential will be updated during run
 spin polarized calculation
 Variant of blocked Davidson
 Davidson routine will perform the subspace rotation
 perform sub-space diagonalisation
    after iterative eigenvector-optimisation
 modified Broyden-mixing scheme, WC =      100.0
 initial mixing is a Kerker type mixing with AMIX =  0.4000 and BMIX =      1.0000
 Hartree-type preconditioning will be used
 using additional bands          135
 real space projection scheme for non local part
 use partial core corrections
 calculate Harris-corrections to forces 
   (improved forces if not selfconsistent)
 use gradient corrections 
 use of overlap-Matrix (Vanderbilt PP)
 Gauss-broadening in eV      SIGMA  =   0.01


--------------------------------------------------------------------------------------------------------


  energy-cutoff  :      700.00
  volume of cell :     1555.60
      direct lattice vectors                 reciprocal lattice vectors
    11.594201295 -0.007175364  0.007857285     0.086250085  0.000053296 -0.000058470
    -0.007158505 11.582551563 -0.001998047     0.000053422  0.086336798  0.000014896
     0.007854092 -0.002003505 11.583876514    -0.000058494  0.000014856  0.086326929

  length of vectors
    11.594206178 11.582553947 11.583879350     0.086250121  0.086336816  0.086326950


 
 old parameters found on file WAVECAR:
  energy-cutoff  :      700.00
  volume of cell :     1555.60
      direct lattice vectors                 reciprocal lattice vectors
    11.594201295 -0.007175364  0.007857285     0.086250085  0.000053296 -0.000058470
    -0.007158505 11.582551563 -0.001998047     0.000053422  0.086336798  0.000014896
     0.007854092 -0.002003505 11.583876514    -0.000058494  0.000014856  0.086326929

  length of vectors

 
 k-points in units of 2pi/SCALE and weight: Title                                   
   0.00000000  0.00000000  0.00000000       0.037
   0.02875003  0.00001777 -0.00001949       0.074
   0.00001781  0.02877893  0.00000497       0.074
   0.02876784  0.02879670 -0.00001452       0.074
  -0.02873222  0.02876117  0.00002446       0.074
  -0.00001950  0.00000495  0.02877564       0.074
   0.02873053  0.00002272  0.02875615       0.074
  -0.02876953 -0.00001281  0.02879513       0.074
  -0.00000169  0.02878388  0.02878061       0.074
   0.02874834  0.02880165  0.02876112       0.074
  -0.02875172  0.02876612  0.02880010       0.074
  -0.00003731 -0.02877398  0.02877068       0.074
   0.02871272 -0.02875622  0.02875119       0.074
  -0.02878733 -0.02879175  0.02879017       0.074
 
 k-points in reciprocal lattice and weights: Title                                   
   0.00000000  0.00000000  0.00000000       0.037
   0.33333333 -0.00000000 -0.00000000       0.074
   0.00000000  0.33333333  0.00000000       0.074
   0.33333333  0.33333333  0.00000000       0.074
  -0.33333333  0.33333333  0.00000000       0.074
   0.00000000 -0.00000000  0.33333333       0.074
   0.33333333 -0.00000000  0.33333333       0.074
  -0.33333333 -0.00000000  0.33333333       0.074
  -0.00000000  0.33333333  0.33333333       0.074
   0.33333333  0.33333333  0.33333333       0.074
  -0.33333333  0.33333333  0.33333333       0.074
  -0.00000000 -0.33333333  0.33333333       0.074
   0.33333333 -0.33333333  0.33333333       0.074
  -0.33333333 -0.33333333  0.33333333       0.074
 
 position of ions in fractional coordinates (direct lattice) 
   0.01200618  0.99971698  0.99097208
   0.99953829  0.01356995  0.33364688
   0.99050117  0.00011273  0.67703134
   0.00119174  0.34537619  0.00914682
   0.99106349  0.32832541  0.32405992
   0.98969419  0.34383912  0.66606332
   0.00979845  0.66017041  0.98909769
   0.98684889  0.66832984  0.33358801
   0.00929555  0.65895253  0.67801763
   0.32446340  0.98780328  0.99300922
   0.34282341  0.99282422  0.33320813
   0.33374644  0.00622767  0.67830682
   0.34635512  0.33320645  0.00204411
   0.33392023  0.33425830  0.34590679
   0.33440144  0.32178272  0.66042489
   0.32274349  0.67745463  0.99115550
   0.33232929  0.67857375  0.33285563
   0.32179304  0.66620811  0.67787270
   0.66668494  0.99887243  0.01158912
   0.65647416  0.99945984  0.32653767
   0.67557465  0.01176859  0.66753670
   0.66161667  0.33983592  0.98880145
   0.67774409  0.34335856  0.33257258
   0.67624666  0.32369989  0.67413196
   0.66709465  0.65333942  0.99991524
   0.67291416  0.65597456  0.33864207
   0.66605796  0.66755578  0.65282487
   0.00012152  0.16488857  0.33571269
   0.99461037  0.49918868  0.99504985
   0.99708854  0.49918747  0.67021335
   0.33788690  0.16674052  0.66759907
   0.34264643  0.83397740  0.01205995
   0.32994727  0.83284967  0.33039802
   0.65559945  0.16515205  0.66356002
   0.67371870  0.50145577  0.00826326
   0.65907404  0.50014298  0.32402078
   0.16564485  0.99768584  0.00802479
   0.16638908  0.66951222  0.00305574
   0.16779831  0.66848495  0.66148774
   0.49947529  0.00251872  0.33549172
   0.49888940  0.33260729  0.00469699
   0.83300542  0.00475868  0.66710665
   0.83287190  0.33824459  0.34089336
   0.83361996  0.32661332  0.65768787
   0.83418429  0.66671644  0.33034611
   0.00376743  0.99682547  0.83297119
   0.00179628  0.33577565  0.16779883
   0.99501550  0.67778874  0.83324750
   0.33335095  0.99404231  0.83192034
   0.33620180  0.33475287  0.49829665
   0.33695467  0.67066205  0.83240095
   0.66997892  0.00004316  0.16672642
   0.66794066  0.33594535  0.83378927
   0.66398961  0.66786798  0.49955598
   0.99771543  0.16593579  0.00314498
   0.01151428  0.16571778  0.66006054
   0.00675275  0.50261013  0.33879141
   0.99157929  0.83436740  0.01188654
   0.00577723  0.83406657  0.33130003
   0.99721352  0.83396724  0.65656061
   0.33192057  0.16780292  0.99848903
   0.32522914  0.16696793  0.33347124
   0.33273564  0.49894866  0.00356364
   0.33951909  0.50049892  0.33034951
   0.33383983  0.49823696  0.66663213
   0.33768631  0.83334316  0.65208101
   0.66984289  0.16442877  0.99724978
   0.67068703  0.16543596  0.34165785
   0.66886412  0.50196847  0.66613983
   0.65968651  0.83370679  0.99513640
   0.66506327  0.83304329  0.33269713
   0.66461960  0.83280937  0.67257301
   0.16650608  0.99954548  0.32609308
   0.16715968  0.99430282  0.66012227
   0.16931015  0.33193318  0.99595807
   0.16881774  0.33878139  0.33326001
   0.16854314  0.33378903  0.67154243
   0.16717129  0.66261445  0.33594309
   0.50141378  0.00938011  0.00266476
   0.50043567  0.99034125  0.65995645
   0.49843804  0.32347993  0.32402895
   0.49936175  0.34346285  0.66995207
   0.50180291  0.66022694  0.00256946
   0.49890746  0.67186520  0.32940063
   0.50099484  0.66505610  0.66635050
   0.83097196  0.99832908  0.99510061
   0.83268436  0.99432311  0.34015710
   0.83309600  0.32451847  0.00177120
   0.83069373  0.67658187  0.00734599
   0.83109046  0.67135694  0.66345056
   0.98810377  0.99973684  0.16802635
   0.00446684  0.99556324  0.49845108
   0.01318913  0.33474466  0.49876303
   0.99924301  0.32124912  0.83383299
   0.00215687  0.66500350  0.16938374
   0.99740519  0.66992420  0.49835254
   0.33751631  0.01192136  0.16811141
   0.32757932  0.00317870  0.49772469
   0.32677020  0.33168244  0.16851886
   0.33400302  0.33769024  0.83446450
   0.33566701  0.65723599  0.16945850
   0.34059137  0.66018721  0.49676779
   0.66783130  0.99131589  0.49879327
   0.66079305  0.99880325  0.83602142
   0.67026260  0.31969699  0.16665443
   0.65210938  0.33849276  0.49891746
   0.66223177  0.67997605  0.16593591
   0.66794502  0.66482721  0.83303595
 
 position of ions in cartesian coordinates  (Angst):
   0.13982881 11.57720192 11.47739505
  11.59137152  0.14933419  3.87275081
  11.48938656 -0.00715790  7.85042983
   0.01141677  4.00031066  0.10527490
  11.49078447  3.79508554  3.76100119
  11.47748357  3.97409846  7.72268455
   0.11664781  7.64440583 11.45634340
  11.43956047  7.73321547  3.87066086
   0.10838255  7.63092658  7.85282891
   3.76262192 11.43696481 11.50347193
   3.97027355 11.49631030  3.86055174
   3.87480637  0.06837860  7.86003237
   4.01334173  3.85689153  0.02573440
   3.87186241  3.86847494  4.00889738
   3.88000119  3.72334238  7.65226498
   3.74488808  7.84235165 11.48260520
   3.85084943  7.85656394  3.85701393
   3.73148831  7.71272274  7.85359101
   7.72262004 11.56468451  0.13748947
   7.60670355 11.57093050  3.78573319
   7.83790711  0.13012541  7.73794736
   7.67625030  3.92943866 11.45867340
   7.85805550  3.97143891  3.85711891
   7.84351739  3.74306771  7.81372812
   7.73760615  7.56054754 11.58683087
   7.79986614  7.59235228  3.92676448
   7.72275872  7.72591209  7.56614224
   0.00286535  1.90915692  3.88852583
  11.53595457  5.77274834 11.53335207
  11.56213569  5.77336739  7.77050570
   3.92157848  1.92751865  7.73570686
   3.96683634  9.65710344  0.14072688
   3.82210805  9.64349477  3.82821828
   7.60518146  1.90684849  7.69141853
   7.80770548  5.80328656  0.10001223
   7.64040175  5.78755356  3.75759595
   1.91344077 11.55454303  0.09226631
   1.92437977  7.75345984  0.03536692
   1.94589737  7.74023213  7.66257503
   5.79363403  0.02491717  3.89021412
   5.78188005  3.84885202  0.05766473
   9.66323799  0.04780400  7.73421674
   9.65674052  3.91107623  3.95473487
   9.66798506  3.77571642  7.62447243
   9.66952243  7.71563009  3.83191081
   0.04308684 11.54408654  9.64707329
   0.01974074  3.88878973  1.94310420
  11.53810248  7.84171399  9.65870000
   3.86435608 11.50948765  9.63749558
   3.89950870  3.87388164  5.77417966
   3.90845713  7.76389226  9.64373730
   7.76917961 -0.00464153  1.93660244
   7.74838229  3.88464110  9.66308891
   7.69757183  7.72985010  5.79067751
  11.56655039  1.91479460  0.04393880
   0.13749673  1.91802969  7.64581909
   0.07735566  5.82078056  3.92356668
  11.49069039  9.65696473  0.14381628
   0.06361374  9.65991384  3.83611750
  11.56108101  9.65099776  7.61168614
   3.85499493  1.93920380 11.56864634
   3.77219595  1.93091292  3.86511147
   3.85426029  5.77670390  0.04289820
   3.93546441  5.79395656  3.82839566
   3.87227535  5.76712422  7.72381184
   3.91435906  9.64851060  7.55461408
   7.77294878  1.89770034 11.55695295
   7.77757955  1.91067365  3.96266155
   7.75658385  5.80794168  7.72073405
   7.65038596  9.64972467 11.53105473
   7.70752712  9.64332825  3.85748361
   7.70505425  9.63994109  7.79456083
   1.92591092 11.57543897  3.77673308
   1.93614991 11.51404171  7.64610159
   1.96846219  3.84142287 11.53772236
   1.95749916  3.92207387  3.86109239
   1.95700807  3.86357387  7.77972199
   1.93611277  7.67289340  3.89151285
   5.81344611  0.10504246  0.03478922
   5.80024586 11.46576554  7.64680731
   5.77922029  3.74249733  3.75678141
   5.79250378  3.97325076  7.76387938
   5.81329794  7.64350682  0.03238791
   5.78221111  7.77767358  3.81831384
   5.80910778  7.69811668  7.72152953
   9.63512527 11.55524180 11.53165706
   9.64986384 11.51014235  3.94489378
   9.65677357  3.75277061  0.02641480
   9.62644465  7.83056909  0.09027017
   9.63623502  7.76873382  7.69051805
  11.45043703 11.57207686  1.95216273
   0.04857762 11.53013189  5.77204166
   0.15443853  3.87610332  5.77704412
  11.58967393  3.71204401  9.66622784
   0.02157711  7.70208248  1.96080861
  11.56323495  7.75127636  5.77935261
   3.91446711  0.13532117  1.95001000
   3.80190703  0.03346975  5.76814882
   3.78758868  3.83904663  1.95400644
   3.87663484  3.90724611  9.66828334
   3.88841696  7.60972170  1.96431052
   3.94806064  7.64321327  5.75585383
   7.73979177 11.47617611  5.78122630
   7.66078386 11.56227376  9.68756527
   7.77017989  3.69776363  1.93513200
   7.56218282  3.91493110  5.78384569
   7.67448406  7.87077346  1.92602581
   7.74607261  7.69393372  9.65370546
 


--------------------------------------------------------------------------------------------------------


 k-point   1 :   0.0000 0.0000 0.0000  plane waves:   65199
 k-point   2 :   0.3333-0.0000-0.0000  plane waves:   65366
 k-point   3 :   0.0000 0.3333 0.0000  plane waves:   65362
 k-point   4 :   0.3333 0.3333 0.0000  plane waves:   65426
 k-point   5 :  -0.3333 0.3333 0.0000  plane waves:   65391
 k-point   6 :   0.0000-0.0000 0.3333  plane waves:   65365
 k-point   7 :   0.3333-0.0000 0.3333  plane waves:   65392
 k-point   8 :  -0.3333-0.0000 0.3333  plane waves:   65428
 k-point   9 :  -0.0000 0.3333 0.3333  plane waves:   65408
 k-point  10 :   0.3333 0.3333 0.3333  plane waves:   65450
 k-point  11 :  -0.3333 0.3333 0.3333  plane waves:   65457
 k-point  12 :  -0.0000-0.3333 0.3333  plane waves:   65396
 k-point  13 :   0.3333-0.3333 0.3333  plane waves:   65458
 k-point  14 :  -0.3333-0.3333 0.3333  plane waves:   65456

 maximum and minimum number of plane-waves per node :      8212     8116

 maximum number of plane-waves:     65458
 maximum index in each direction: 
   IXMAX=   25   IYMAX=   25   IZMAX=   24
   IXMIN=  -25   IYMIN=  -25   IZMIN=  -25


 real space projection operators:
  total allocation   :      54097.81 KBytes
  max/ min on nodes  :       7382.08       6155.95


 parallel 3D FFT for wavefunctions:
    minimum data exchange during FFTs selected (reduces bandwidth)
 parallel 3D FFT for charge:
    minimum data exchange during FFTs selected (reduces bandwidth)


 total amount of memory used by VASP MPI-rank0   298425. kBytes
=======================================================================

   base      :      30000. kBytes
   nonlr-proj:      25301. kBytes
   fftplans  :      18873. kBytes
   grid      :      21088. kBytes
   one-center:        435. kBytes
   wavefun   :     202728. kBytes
 
     INWAV:  cpu time     34.8015: real time     34.9081
 Broyden mixing: mesh for mixing (old mesh)
   NGX = 51   NGY = 49   NGZ = 49
  (NGX  =200   NGY  =200   NGZ  =200)
  gives a total of 122451 points

 charge density for first step will be calculated from the start-wavefunctions


--------------------------------------------------------------------------------------------------------


 Maximum index for non-local projection operator         1376
 Maximum index for augmentation-charges         4053 (set IRDMAX)


--------------------------------------------------------------------------------------------------------


 initial charge from wavefunction
 First call to EWALD:  gamma=   0.153
 Maximum number of real-space cells 3x 3x 3
 Maximum number of reciprocal cells 3x 3x 3

    FEWALD:  cpu time      0.0043: real time      0.0043


--------------------------------------- Iteration      1(   1)  ---------------------------------------


    POTLOK:  cpu time      0.1660: real time      0.1734
    SETDIJ:  cpu time      0.8999: real time      0.9023
     EDDAV:  cpu time    111.9190: real time    112.2678
       DOS:  cpu time      0.0027: real time      0.0027
    CHARGE:  cpu time      3.9948: real time      4.0047
    MIXING:  cpu time      0.0044: real time      0.0049
    --------------------------------------------
      LOOP:  cpu time    116.9870: real time    117.3557

 eigenvalue-minimisations  : 41120
 total energy-change (2. order) :-0.7213492E+03  (-0.1096020E-05)
 number of electron     810.0000011 magnetization      -0.0000000
 augmentation part      209.1344915 magnetization       0.0000000

 Broyden mixing:
  rms(total) = 0.92303E-03    rms(broyden)= 0.91968E-03
  rms(prec ) = 0.12127E-02
  weight for this iteration     100.00

 Free energy of the ion-electron system (eV)
  ---------------------------------------------------
  alpha Z        PSCENC =      2564.02962636
  Ewald energy   TEWEN  =    -43311.53361619
  -Hartree energ DENC   =    -27716.98979463
  -exchange      EXHF   =         0.00000000
  -V(xc)+E(xc)   XCENC  =      3779.56165699
  PAW double counting   =     60875.46298896   -61291.05634578
  entropy T*S    EENTRO =        -0.00000000
  eigenvalues    EBANDS =    -10891.26586502
  atomic energy  EATOM  =     75270.44210491
  Solvation  Ediel_sol  =         0.00000000
  ---------------------------------------------------
  free energy    TOTEN  =      -721.34924441 eV

  energy without entropy =     -721.34924441  energy(sigma->0) =     -721.34924441


--------------------------------------------------------------------------------------------------------




--------------------------------------- Iteration      1(   2)  ---------------------------------------


    POTLOK:  cpu time      0.1560: real time      0.1702
    SETDIJ:  cpu time      0.9074: real time      0.9097
     EDDAV:  cpu time    110.9356: real time    111.2358
       DOS:  cpu time      0.0026: real time      0.0026
    CHARGE:  cpu time      3.9487: real time      3.9586
    MIXING:  cpu time      0.0041: real time      0.0052
    --------------------------------------------
      LOOP:  cpu time    115.9544: real time    116.2821

 eigenvalue-minimisations  : 40620
 total energy-change (2. order) : 0.1552311E-05  (-0.7258112E-06)
 number of electron     810.0000011 magnetization      -0.0000000
 augmentation part      209.1350357 magnetization       0.0000000

 Broyden mixing:
  rms(total) = 0.50666E-03    rms(broyden)= 0.50061E-03
  rms(prec ) = 0.67029E-03
  weight for this iteration     100.00

 eigenvalues of (default mixing * dielectric matrix)
  average eigenvalue GAMMA=   0.6835
  0.6835

 Free energy of the ion-electron system (eV)
  ---------------------------------------------------
  alpha Z        PSCENC =      2564.02962636
  Ewald energy   TEWEN  =    -43311.53361619
  -Hartree energ DENC   =    -27717.05195805
  -exchange      EXHF   =         0.00000000
  -V(xc)+E(xc)   XCENC  =      3779.56693220
  PAW double counting   =     60875.51076889   -61291.11173060
  entropy T*S    EENTRO =        -0.00000000
  eigenvalues    EBANDS =    -10891.20137037
  atomic energy  EATOM  =     75270.44210491
  Solvation  Ediel_sol  =         0.00000000
  ---------------------------------------------------
  free energy    TOTEN  =      -721.34924286 eV

  energy without entropy =     -721.34924286  energy(sigma->0) =     -721.34924286


--------------------------------------------------------------------------------------------------------




--------------------------------------- Iteration      1(   3)  ---------------------------------------


    POTLOK:  cpu time      0.1528: real time      0.1583
    SETDIJ:  cpu time      0.8847: real time      0.8869
     EDDAV:  cpu time     65.4272: real time     65.6140
       DOS:  cpu time      0.0027: real time      0.0027
    --------------------------------------------
      LOOP:  cpu time     66.4673: real time     66.6618

 eigenvalue-minimisations  : 19780
 total energy-change (2. order) : 0.5502079E-06  (-0.9776803E-07)
 number of electron     810.0000011 magnetization      -0.0000000
 augmentation part      209.1350357 magnetization       0.0000000

 Free energy of the ion-electron system (eV)
  ---------------------------------------------------
  alpha Z        PSCENC =      2564.02962636
  Ewald energy   TEWEN  =    -43311.53361619
  -Hartree energ DENC   =    -27717.06243481
  -exchange      EXHF   =         0.00000000
  -V(xc)+E(xc)   XCENC  =      3779.56694042
  PAW double counting   =     60875.51992424   -61291.11988050
  entropy T*S    EENTRO =        -0.00000000
  eigenvalues    EBANDS =    -10891.19190674
  atomic energy  EATOM  =     75270.44210491
  Solvation  Ediel_sol  =         0.00000000
  ---------------------------------------------------
  free energy    TOTEN  =      -721.34924231 eV

  energy without entropy =     -721.34924231  energy(sigma->0) =     -721.34924231


--------------------------------------------------------------------------------------------------------




 average (electrostatic) potential at core
  the test charge radii are     1.0397  0.7215  0.7167
  (the norm of the test charge is              1.0000)
       1 -58.6433       2 -59.2166       3 -58.7279       4 -58.5875       5 -58.5596
       6 -58.5373       7 -58.1815       8 -59.2885       9 -58.2150      10 -58.3424
      11 -59.2047      12 -58.7566      13 -59.2147      14 -59.3661      15 -58.9684
      16 -58.1934      17 -59.4868      18 -58.4598      19 -59.4780      20 -59.2146
      21 -58.6902      22 -58.6164      23 -58.8176      24 -58.4147      25 -59.2221
      26 -58.7761      27 -59.2762      28 -74.3838      29 -73.8686      30 -73.8397
      31 -74.1685      32 -73.8301      33 -74.6007      34 -74.0287      35 -74.3758
      36 -74.2085      37 -74.0031      38 -73.7642      39 -73.8678      40 -74.4782
      41 -74.2848      42 -74.0481      43 -74.1467      44 -73.9097      45 -74.4466
      46 -74.0813      47 -73.9558      48 -73.7717      49 -74.0612      50 -74.4878
      51 -73.8897      52 -74.5176      53 -73.9960      54 -74.3998      55 -78.7323
      56 -78.7251      57 -79.1510      58 -78.7452      59 -79.1424      60 -78.7524
      61 -78.9522      62 -79.2884      63 -78.9585      64 -79.2522      65 -78.7924
      66 -78.8368      67 -79.2036      68 -79.1203      69 -79.0271      70 -79.1709
      71 -79.0986      72 -79.0381      73 -79.1912      74 -78.8181      75 -78.8208
      76 -79.1232      77 -78.8559      78 -79.2263      79 -79.0923      80 -78.8528
      81 -79.1218      82 -78.8539      83 -78.9447      84 -79.2616      85 -79.0038
      86 -79.0760      87 -79.1785      88 -78.8765      89 -78.9451      90 -78.9791
      91 -79.0542      92 -79.0430      93 -78.7368      94 -78.7177      95 -78.9867
      96 -78.9817      97 -79.0535      98 -79.0275      99 -79.1381     100 -79.1537
     101 -79.1018     102 -79.1021     103 -79.0706     104 -78.9955     105 -78.8460
     106 -78.8795     107 -79.1606     108 -79.0917
 
 
 
 E-fermi :  -0.6420     XC(G=0):  -8.9955     alpha+bet : -7.6663

 Fermi energy:        -0.6419898733

 spin component 1

 k-point     1 :       0.0000    0.0000    0.0000
  band No.  band energies     occupation 
      1     -35.4256      1.00000
      2     -35.4192      1.00000
      3     -35.4151      1.00000
      4     -35.4011      1.00000
      5     -35.3317      1.00000
      6     -35.3191      1.00000
      7     -35.2993      1.00000
      8     -35.2810      1.00000
      9     -35.2406      1.00000
     10     -35.2364      1.00000
     11     -35.2212      1.00000
     12     -35.2169      1.00000
     13     -35.1993      1.00000
     14     -35.1877      1.00000
     15     -35.1777      1.00000
     16     -35.1743      1.00000
     17     -35.1726      1.00000
     18     -35.1717      1.00000
     19     -35.1658      1.00000
     20     -35.1619      1.00000
     21     -35.1584      1.00000
     22     -35.1274      1.00000
     23     -35.1016      1.00000
     24     -35.0988      1.00000
     25     -35.0736      1.00000
     26     -35.0635      1.00000
     27     -35.0570      1.00000
     28     -35.0526      1.00000
     29     -35.0239      1.00000
     30     -35.0217      1.00000
     31     -34.9346      1.00000
     32     -34.8515      1.00000
     33     -34.8063      1.00000
     34     -34.7897      1.00000
     35     -34.7377      1.00000
     36     -34.7327      1.00000
     37     -34.7063      1.00000
     38     -34.6992      1.00000
     39     -34.6931      1.00000
     40     -34.6837      1.00000
     41     -34.6809      1.00000
     42     -34.6477      1.00000
     43     -34.6442      1.00000
     44     -34.6312      1.00000
     45     -34.6295      1.00000
     46     -34.6144      1.00000
     47     -34.6082      1.00000
     48     -34.5871      1.00000
     49     -34.5836      1.00000
     50     -34.5526      1.00000
     51     -34.5505      1.00000
     52     -34.5384      1.00000
     53     -34.5287      1.00000
     54     -34.5163      1.00000
     55     -34.5155      1.00000
     56     -34.5025      1.00000
     57     -34.4959      1.00000
     58     -34.4849      1.00000
     59     -34.4707      1.00000
     60     -34.4622      1.00000
     61     -34.4515      1.00000
     62     -34.4401      1.00000
     63     -34.4095      1.00000
     64     -34.4000      1.00000
     65     -34.3916      1.00000
     66     -34.3560      1.00000
     67     -34.3498      1.00000
     68     -34.3145      1.00000
     69     -34.3030      1.00000
     70     -34.2962      1.00000
     71     -34.2611      1.00000
     72     -34.2550      1.00000
     73     -34.1809      1.00000
     74     -34.1651      1.00000
     75     -34.1485      1.00000
     76     -34.1376      1.00000
     77     -34.1236      1.00000
     78     -34.1164      1.00000
     79     -34.1089      1.00000
     80     -34.0850      1.00000
     81     -34.0730      1.00000
     82     -23.2253      1.00000
     83     -23.1233      1.00000
     84     -23.1066      1.00000
     85     -23.0895      1.00000
     86     -23.0137      1.00000
     87     -22.9944      1.00000
     88     -22.9733      1.00000
     89     -22.9662      1.00000
     90     -22.9372      1.00000
     91     -22.8948      1.00000
     92     -22.8505      1.00000
     93     -22.8429      1.00000
     94     -22.8398      1.00000
     95     -22.8088      1.00000
     96     -22.7973      1.00000
     97     -22.7723      1.00000
     98     -22.7553      1.00000
     99     -22.7468      1.00000
    100     -22.7386      1.00000
    101     -22.7159      1.00000
    102     -22.7038      1.00000
    103     -22.7016      1.00000
    104     -22.6859      1.00000
    105     -22.6744      1.00000
    106     -22.6707      1.00000
    107     -22.6525      1.00000
    108     -22.6373      1.00000
    109     -22.6357      1.00000
    110     -22.6244      1.00000
    111     -22.6176      1.00000
    112     -22.6047      1.00000
    113     -22.5955      1.00000
    114     -22.5724      1.00000
    115     -22.5615      1.00000
    116     -22.5455      1.00000
    117     -22.5394      1.00000
    118     -22.5207      1.00000
    119     -22.5079      1.00000
    120     -22.5037      1.00000
    121     -22.4902      1.00000
    122     -22.4751      1.00000
    123     -22.4575      1.00000
    124     -22.4258      1.00000
    125     -22.4241      1.00000
    126     -22.4127      1.00000
    127     -22.3939      1.00000
    128     -22.3881      1.00000
    129     -22.3485      1.00000
    130     -22.3308      1.00000
    131     -22.3235      1.00000
    132     -22.3138      1.00000
    133     -22.2647      1.00000
    134     -22.2290      1.00000
    135     -22.2122      1.00000
    136     -17.1110      1.00000
    137     -17.0204      1.00000
    138     -16.9926      1.00000
    139     -16.9516      1.00000
    140     -16.8848      1.00000
    141     -16.8797      1.00000
    142     -16.8606      1.00000
    143     -16.8049      1.00000
    144     -16.7044      1.00000
    145     -16.6930      1.00000
    146     -16.6905      1.00000
    147     -16.6604      1.00000
    148     -16.6149      1.00000
    149     -16.5766      1.00000
    150     -16.5660      1.00000
    151     -16.5238      1.00000
    152     -16.4846      1.00000
    153     -16.4564      1.00000
    154     -16.4221      1.00000
    155     -16.3998      1.00000
    156     -16.3792      1.00000
    157     -16.3567      1.00000
    158     -16.3454      1.00000
    159     -16.2574      1.00000
    160     -16.2141      1.00000
    161     -16.1947      1.00000
    162     -16.1406      1.00000
    163      -6.6135      1.00000
    164      -6.5455      1.00000
    165      -6.5223      1.00000
    166      -6.4949      1.00000
    167      -6.4241      1.00000
    168      -6.4034      1.00000
    169      -6.3835      1.00000
    170      -6.3644      1.00000
    171      -6.3561      1.00000
    172      -6.3435      1.00000
    173      -6.3110      1.00000
    174      -6.2859      1.00000
    175      -6.2635      1.00000
    176      -6.2360      1.00000
    177      -6.2124      1.00000
    178      -6.1951      1.00000
    179      -6.1660      1.00000
    180      -6.1278      1.00000
    181      -6.1106      1.00000
    182      -6.0805      1.00000
    183      -6.0678      1.00000
    184      -6.0417      1.00000
    185      -6.0330      1.00000
    186      -6.0006      1.00000
    187      -5.9327      1.00000
    188      -5.9276      1.00000
    189      -5.9160      1.00000
    190      -5.8926      1.00000
    191      -5.8787      1.00000
    192      -5.8654      1.00000
    193      -5.8431      1.00000
    194      -5.8399      1.00000
    195      -5.8028      1.00000
    196      -5.7961      1.00000
    197      -5.7656      1.00000
    198      -5.7141      1.00000
    199      -5.7113      1.00000
    200      -5.6986      1.00000
    201      -5.6701      1.00000
    202      -5.6579      1.00000
    203      -5.6361      1.00000
    204      -5.5980      1.00000
    205      -5.5738      1.00000
    206      -5.5617      1.00000
    207      -5.5504      1.00000
    208      -5.5358      1.00000
    209      -5.5041      1.00000
    210      -5.4662      1.00000
    211      -5.4364      1.00000
    212      -5.4078      1.00000
    213      -5.4031      1.00000
    214      -5.3799      1.00000
    215      -5.3553      1.00000
    216      -5.3351      1.00000
    217      -5.2454      1.00000
    218      -5.1983      1.00000
    219      -5.1698      1.00000
    220      -5.1402      1.00000
    221      -5.1290      1.00000
    222      -5.1183      1.00000
    223      -5.1031      1.00000
    224      -5.0826      1.00000
    225      -5.0669      1.00000
    226      -5.0393      1.00000
    227      -5.0066      1.00000
    228      -4.9958      1.00000
    229      -4.9828      1.00000
    230      -4.9582      1.00000
    231      -4.9456      1.00000
    232      -4.9175      1.00000
    233      -4.9134      1.00000
    234      -4.8944      1.00000
    235      -4.8724      1.00000
    236      -4.8334      1.00000
    237      -4.8259      1.00000
    238      -4.8117      1.00000
    239      -4.7828      1.00000
    240      -4.7549      1.00000
    241      -4.7149      1.00000
    242      -4.7015      1.00000
    243      -4.6957      1.00000
    244      -4.6533      1.00000
    245      -4.6434      1.00000
    246      -4.6311      1.00000
    247      -4.6102      1.00000
    248      -4.5651      1.00000
    249      -4.5295      1.00000
    250      -4.5175      1.00000
    251      -4.4814      1.00000
    252      -4.4610      1.00000
    253      -4.4406      1.00000
    254      -4.3929      1.00000
    255      -4.3409      1.00000
    256      -4.3112      1.00000
    257      -4.2911      1.00000
    258      -4.2620      1.00000
    259      -4.2572      1.00000
    260      -4.2139      1.00000
    261      -4.1957      1.00000
    262      -4.1669      1.00000
    263      -4.1510      1.00000
    264      -4.1479      1.00000
    265      -4.1409      1.00000
    266      -4.1224      1.00000
    267      -4.1092      1.00000
    268      -4.0884      1.00000
    269      -4.0713      1.00000
    270      -4.0583      1.00000
    271      -4.0453      1.00000
    272      -4.0289      1.00000
    273      -4.0229      1.00000
    274      -3.9987      1.00000
    275      -3.9895      1.00000
    276      -3.9743      1.00000
    277      -3.9534      1.00000
    278      -3.9413      1.00000
    279      -3.9277      1.00000
    280      -3.9130      1.00000
    281      -3.8951      1.00000
    282      -3.8769      1.00000
    283      -3.8748      1.00000
    284      -3.8613      1.00000
    285      -3.8558      1.00000
    286      -3.8398      1.00000
    287      -3.8232      1.00000
    288      -3.8034      1.00000
    289      -3.7992      1.00000
    290      -3.7818      1.00000
    291      -3.7634      1.00000
    292      -3.7421      1.00000
    293      -3.7229      1.00000
    294      -3.7120      1.00000
    295      -3.6890      1.00000
    296      -3.6736      1.00000
    297      -3.6674      1.00000
    298      -3.6583      1.00000
    299      -3.6443      1.00000
    300      -3.6290      1.00000
    301      -3.6150      1.00000
    302      -3.5948      1.00000
    303      -3.5808      1.00000
    304      -3.5775      1.00000
    305      -3.5666      1.00000
    306      -3.5621      1.00000
    307      -3.5514      1.00000
    308      -3.5275      1.00000
    309      -3.5176      1.00000
    310      -3.5081      1.00000
    311      -3.4954      1.00000
    312      -3.4883      1.00000
    313      -3.4774      1.00000
    314      -3.4691      1.00000
    315      -3.4513      1.00000
    316      -3.4452      1.00000
    317      -3.4371      1.00000
    318      -3.4185      1.00000
    319      -3.4040      1.00000
    320      -3.3972      1.00000
    321      -3.3825      1.00000
    322      -3.3680      1.00000
    323      -3.3608      1.00000
    324      -3.3555      1.00000
    325      -3.3375      1.00000
    326      -3.3097      1.00000
    327      -3.3062      1.00000
    328      -3.2888      1.00000
    329      -3.2815      1.00000
    330      -3.2669      1.00000
    331      -3.2480      1.00000
    332      -3.2325      1.00000
    333      -3.2163      1.00000
    334      -3.2121      1.00000
    335      -3.1977      1.00000
    336      -3.1919      1.00000
    337      -3.1830      1.00000
    338      -3.1677      1.00000
    339      -3.1608      1.00000
    340      -3.1451      1.00000
    341      -3.1218      1.00000
    342      -3.1074      1.00000
    343      -3.0874      1.00000
    344      -3.0805      1.00000
    345      -3.0736      1.00000
    346      -3.0426      1.00000
    347      -3.0334      1.00000
    348      -3.0181      1.00000
    349      -2.9986      1.00000
    350      -2.9735      1.00000
    351      -2.9365      1.00000
    352      -2.8841      1.00000
    353      -2.7341      1.00000
    354      -2.7257      1.00000
    355      -2.6979      1.00000
    356      -2.6716      1.00000
    357      -2.6310      1.00000
    358      -2.5792      1.00000
    359      -2.5743      1.00000
    360      -2.5625      1.00000
    361      -2.5491      1.00000
    362      -2.5279      1.00000
    363      -2.5165      1.00000
    364      -2.4977      1.00000
    365      -2.4639      1.00000
    366      -2.4382      1.00000
    367      -2.3766      1.00000
    368      -2.3431      1.00000
    369      -2.3224      1.00000
    370      -2.2620      1.00000
    371      -2.2393      1.00000
    372      -2.2038      1.00000
    373      -2.1864      1.00000
    374      -2.1614      1.00000
    375      -2.0882      1.00000
    376      -2.0698      1.00000
    377      -2.0382      1.00000
    378      -2.0079      1.00000
    379      -1.9758      1.00000
    380      -1.9311      1.00000
    381      -1.9173      1.00000
    382      -1.8949      1.00000
    383      -1.8291      1.00000
    384      -1.7933      1.00000
    385      -1.7686      1.00000
    386      -1.7387      1.00000
    387      -1.7204      1.00000
    388      -1.6642      1.00000
    389      -1.6375      1.00000
    390      -1.6196      1.00000
    391      -1.5719      1.00000
    392      -1.5064      1.00000
    393      -1.4580      1.00000
    394      -1.3942      1.00000
    395      -1.3407      1.00000
    396      -1.2940      1.00000
    397      -1.2772      1.00000
    398      -1.2678      1.00000
    399      -1.1639      1.00000
    400      -1.0837      1.00000
    401      -1.0689      1.00000
    402      -0.9514      1.00000
    403      -0.8905      1.00000
    404      -0.8584      1.00000
    405      -0.7175      1.00000
    406       1.7267      0.00000
    407       1.8360      0.00000
    408       1.8670      0.00000
    409       1.9092      0.00000
    410       1.9612      0.00000
    411       2.0131      0.00000
    412       2.0404      0.00000
    413       2.1502      0.00000
    414       2.1605      0.00000
    415       2.3269      0.00000
    416       2.3385      0.00000
    417       2.3730      0.00000
    418       2.4750      0.00000
    419       2.4778      0.00000
    420       2.5022      0.00000
    421       2.5190      0.00000
    422       2.5350      0.00000
    423       2.5655      0.00000
    424       2.5715      0.00000
    425       2.5977      0.00000
    426       2.6054      0.00000
    427       2.6391      0.00000
    428       2.6447      0.00000
    429       2.6524      0.00000
    430       2.6597      0.00000
    431       2.7031      0.00000
    432       2.7270      0.00000
    433       2.7516      0.00000
    434       2.7834      0.00000
    435       2.7886      0.00000
    436       2.8130      0.00000
    437       2.8262      0.00000
    438       2.8510      0.00000
    439       2.8589      0.00000
    440       2.8712      0.00000
    441       2.9035      0.00000
    442       2.9222      0.00000
    443       2.9276      0.00000
    444       2.9581      0.00000
    445       2.9812      0.00000
    446       2.9939      0.00000
    447       3.0128      0.00000
    448       3.0355      0.00000
    449       3.0753      0.00000
    450       3.1043      0.00000
    451       3.1080      0.00000
    452       3.1343      0.00000
    453       3.1579      0.00000
    454       3.1723      0.00000
    455       3.2207      0.00000
    456       3.2247      0.00000
    457       3.2337      0.00000
    458       3.2521      0.00000
    459       3.2717      0.00000
    460       3.3161      0.00000
    461       3.3232      0.00000
    462       3.3902      0.00000
    463       3.4085      0.00000
    464       3.4432      0.00000
    465       3.4595      0.00000
    466       3.4667      0.00000
    467       3.4772      0.00000
    468       3.5058      0.00000
    469       3.5166      0.00000
    470       3.5435      0.00000
    471       3.5606      0.00000
[...]
      3.88000      3.72334      7.65226         0.001054     -0.000865      0.000191
      3.74489      7.84235     11.48261         0.000035      0.001332     -0.000599
      3.85085      7.85656      3.85701        -0.000859      0.002122     -0.001269
      3.73149      7.71272      7.85359        -0.001104      0.000390     -0.000767
      7.72262     11.56468      0.13749        -0.000061     -0.001684      0.000293
      7.60670     11.57093      3.78573        -0.000430      0.000105     -0.000019
      7.83791      0.13013      7.73795        -0.000674     -0.000100     -0.000507
      7.67625      3.92944     11.45867         0.000967     -0.001684     -0.000332
      7.85806      3.97144      3.85712         0.001486      0.000393      0.000474
      7.84352      3.74307      7.81373         0.000235     -0.001697      0.000502
      7.73761      7.56055     11.58683         0.000218     -0.003142     -0.000344
      7.79987      7.59235      3.92676        -0.002733     -0.000561     -0.002352
      7.72276      7.72591      7.56614        -0.000784     -0.000059     -0.002890
      0.00287      1.90916      3.88853         0.001316      0.002569      0.000516
     11.53595      5.77275     11.53335        -0.001620     -0.000582     -0.002459
     11.56214      5.77337      7.77051        -0.002361     -0.000398      0.002677
      3.92158      1.92752      7.73571         0.002121     -0.000480      0.003334
      3.96684      9.65710      0.14073         0.005659     -0.001174      0.006745
      3.82211      9.64349      3.82822        -0.002258      0.001531     -0.003277
      7.60518      1.90685      7.69142        -0.004416     -0.000664      0.000313
      7.80771      5.80329      0.10001         0.005592     -0.001270      0.002912
      7.64040      5.78755      3.75760        -0.002829     -0.000519     -0.004314
      1.91344     11.55454      0.09227         0.000327     -0.003965      0.003662
      1.92438      7.75346      0.03537        -0.000404      0.004074     -0.001056
      1.94590      7.74023      7.66258        -0.000695      0.000204     -0.001885
      5.79363      0.02492      3.89021        -0.000250      0.001542      0.000872
      5.78188      3.84885      0.05766         0.001191     -0.001776      0.001023
      9.66324      0.04780      7.73422        -0.000339      0.003724      0.001726
      9.65674      3.91108      3.95473         0.001865      0.004203      0.001946
      9.66799      3.77572      7.62447         0.001508     -0.003008      0.000208
      9.66952      7.71563      3.83191        -0.001794     -0.001007     -0.002494
      0.04309     11.54409      9.64707         0.001364     -0.002051      0.000693
      0.01974      3.88879      1.94310         0.002682      0.004280      0.001370
     11.53810      7.84171      9.65870        -0.001091      0.005592      0.000097
      3.86436     11.50949      9.63750        -0.000786     -0.005991     -0.000945
      3.89951      3.87388      5.77418         0.001621     -0.000228     -0.000748
      3.90846      7.76389      9.64374        -0.000413      0.005217     -0.001570
      7.76918     -0.00464      1.93660         0.001600     -0.000718     -0.001020
      7.74838      3.88464      9.66309        -0.000348     -0.000245      0.001044
      7.69757      7.72985      5.79068        -0.003732      0.000104     -0.002225
     11.56655      1.91479      0.04394         0.000735     -0.001265      0.005409
      0.13750      1.91803      7.64582         0.005490     -0.000881     -0.002274
      0.07736      5.82078      3.92357         0.003727      0.002492      0.004573
     11.49069      9.65696      0.14382        -0.003858      0.000660      0.007842
      0.06361      9.65991      3.83612         0.000541      0.000465     -0.001945
     11.56108      9.65100      7.61169        -0.002937      0.000986     -0.003477
      3.85499      1.93920     11.56865         0.002043     -0.000092     -0.001823
      3.77220      1.93091      3.86511        -0.004281      0.002201      0.000800
      3.85426      5.77670      0.04290         0.000775     -0.000514      0.001452
      3.93546      5.79396      3.82840         0.004121     -0.000541      0.000273
      3.87228      5.76712      7.72381         0.000250      0.001383     -0.001500
      3.91436      9.64851      7.55461         0.000083     -0.001416     -0.009495
      7.77295      1.89770     11.55695         0.002961     -0.002352     -0.002858
      7.77758      1.91067      3.96266         0.001484     -0.000026      0.002621
      7.75658      5.80794      7.72073         0.000938      0.000122      0.000416
      7.65039      9.64972     11.53105        -0.003915     -0.001509     -0.001446
      7.70753      9.64333      3.85748        -0.001885      0.000017     -0.002157
      7.70505      9.63994      7.79456        -0.002766     -0.001385     -0.000245
      1.92591     11.57544      3.77673        -0.001403      0.000419     -0.003790
      1.93615     11.51404      7.64610         0.000074     -0.004195     -0.001349
      1.96846      3.84142     11.53772         0.000320     -0.001769      0.001810
      1.95750      3.92207      3.86109         0.002066      0.003793     -0.000111
      1.95701      3.86357      7.77972         0.001340      0.002562      0.000850
      1.93611      7.67289      3.89151        -0.000983      0.001697      0.002142
      5.81345      0.10504      0.03479         0.000746      0.003237      0.001569
      5.80025     11.46577      7.64681        -0.001438     -0.004836     -0.004339
      5.77922      3.74250      3.75678         0.000481     -0.004490     -0.001599
      5.79250      3.97325      7.76388         0.000166      0.002454      0.000606
      5.81330      7.64351      0.03239         0.000627     -0.007126      0.000126
      5.78221      7.77767      3.81831        -0.001182      0.003937     -0.003255
      5.80911      7.69812      7.72153        -0.000557     -0.002247     -0.000554
      9.63513     11.55524     11.53166        -0.000716     -0.001079     -0.002192
      9.64986     11.51014      3.94489         0.000394      0.000261      0.003300
      9.65677      3.75277      0.02641         0.002162     -0.005042      0.002939
      9.62644      7.83057      0.09027        -0.001068      0.002406      0.003697
      9.63624      7.76873      7.69052        -0.001463      0.001532     -0.005136
     11.45044     11.57208      1.95216        -0.005922      0.002537      0.001315
      0.04858     11.53013      5.77204         0.000238      0.000312     -0.000432
      0.15444      3.87610      5.77704         0.004815     -0.000331      0.002056
     11.58967      3.71204      9.66623         0.002959     -0.005413      0.000539
      0.02158      7.70208      1.96081        -0.000793     -0.001946      0.000866
     11.56323      7.75128      5.77935        -0.004816      0.004024     -0.000262
      3.91447      0.13532      1.95001         0.002688      0.007785     -0.000088
      3.80191      0.03347      5.76815        -0.001888      0.004989     -0.001531
      3.78759      3.83905      1.95401         0.000853     -0.000449      0.000262
      3.87663      3.90725      9.66828        -0.000417      0.004297      0.001024
      3.88842      7.60972      1.96431        -0.000518     -0.005973     -0.000096
      3.94806      7.64321      5.75585         0.004686     -0.003481     -0.002360
      7.73979     11.47618      5.78123         0.000717     -0.002783      0.000338
      7.66078     11.56227      9.68757        -0.003648     -0.004546     -0.001478
      7.77018      3.69776      1.93513         0.000212     -0.004898      0.001288
      7.56218      3.91493      5.78385        -0.002924      0.001989     -0.000407
      7.67448      7.87077      1.92603        -0.004033      0.004003     -0.001917
      7.74607      7.69393      9.65371         0.000851     -0.001459      0.000461
 -----------------------------------------------------------------------------------
    total drift:                               -0.001376     -0.001263     -0.001768


--------------------------------------------------------------------------------------------------------



  FREE ENERGIE OF THE ION-ELECTRON SYSTEM (eV)
  ---------------------------------------------------
  free  energy   TOTEN  =      -721.34924231 eV

  energy  without entropy=     -721.34924231  energy(sigma->0) =     -721.34924231
 


--------------------------------------------------------------------------------------------------------


    POTLOK:  cpu time      1.0487: real time      1.0513


--------------------------------------------------------------------------------------------------------


 Quasi-Newton relaxation of ions (Broydens 2nd method)
  g(Force)  = 0.916E-04   g(Stress)= 0.126E-04

 Reset! Starting new Quasi-Newton update for ions 


--------------------------------------------------------------------------------------------------------


  
 reached required accuracy - stopping structural energy minimisation
 writing wavefunctions
     LOOP+:  cpu time    445.7024: real time    456.0726
    4ORBIT:  cpu time      0.0000: real time      0.0000



 total charge

# of ion       s       p       d       tot
------------------------------------------
    1        0.323   6.457   1.798   8.578
    2        0.316   6.461   1.778   8.554
    3        0.321   6.457   1.776   8.554
    4        0.318   6.452   1.785   8.555
    5        0.326   6.460   1.793   8.579
    6        0.319   6.450   1.788   8.557
    7        0.329   6.456   1.820   8.605
    8        0.319   6.466   1.765   8.550
    9        0.329   6.458   1.816   8.603
   10        0.329   6.458   1.817   8.603
   11        0.322   6.466   1.756   8.545
   12        0.320   6.455   1.779   8.555
   13        0.314   6.462   1.756   8.532
   14        0.316   6.464   1.762   8.542
   15        0.320   6.463   1.758   8.540
   16        0.330   6.456   1.829   8.615
   17        0.318   6.468   1.746   8.531
   18        0.323   6.453   1.823   8.599
   19        0.316   6.468   1.732   8.517
   20        0.321   6.464   1.748   8.533
   21        0.320   6.454   1.795   8.569
   22        0.325   6.461   1.787   8.573
   23        0.321   6.454   1.785   8.559
   24        0.327   6.456   1.795   8.578
   25        0.316   6.461   1.768   8.545
   26        0.327   6.465   1.787   8.580
   27        0.318   6.465   1.756   8.539
   28        1.572   3.470   0.000   5.041
   29        1.569   3.471   0.000   5.039
   30        1.569   3.473   0.000   5.041
   31        1.569   3.469   0.000   5.038
   32        1.570   3.475   0.000   5.045
   33        1.571   3.472   0.000   5.042
   34        1.570   3.474   0.000   5.044
   35        1.571   3.469   0.000   5.040
   36        1.570   3.473   0.000   5.042
   37        1.570   3.476   0.000   5.046
   38        1.569   3.478   0.000   5.047
   39        1.569   3.477   0.000   5.047
   40        1.570   3.473   0.000   5.044
   41        1.571   3.467   0.000   5.038
   42        1.569   3.473   0.000   5.041
   43        1.569   3.473   0.000   5.042
   44        1.569   3.472   0.000   5.041
   45        1.571   3.473   0.000   5.044
   46        1.569   3.475   0.000   5.044
   47        1.569   3.472   0.000   5.041
   48        1.570   3.477   0.000   5.047
   49        1.569   3.472   0.000   5.042
   50        1.571   3.471   0.000   5.042
   51        1.569   3.478   0.000   5.046
   52        1.570   3.470   0.000   5.040
   53        1.570   3.472   0.000   5.041
   54        1.571   3.473   0.000   5.043
   55        1.729   4.377   0.000   6.107
   56        1.729   4.376   0.000   6.105
   57        1.730   4.382   0.000   6.112
   58        1.730   4.381   0.000   6.110
   59        1.730   4.378   0.000   6.107
   60        1.730   4.380   0.000   6.110
   61        1.730   4.377   0.000   6.107
   62        1.730   4.382   0.000   6.112
   63        1.730   4.378   0.000   6.108
   64        1.730   4.379   0.000   6.108
   65        1.729   4.380   0.000   6.109
   66        1.729   4.381   0.000   6.110
   67        1.730   4.382   0.000   6.113
   68        1.730   4.377   0.000   6.107
   69        1.730   4.378   0.000   6.108
   70        1.730   4.376   0.000   6.106
   71        1.730   4.380   0.000   6.110
   72        1.730   4.378   0.000   6.108
   73        1.729   4.379   0.000   6.109
   74        1.729   4.378   0.000   6.107
   75        1.729   4.378   0.000   6.107
   76        1.730   4.379   0.000   6.109
   77        1.730   4.377   0.000   6.106
   78        1.730   4.376   0.000   6.106
   79        1.730   4.378   0.000   6.108
   80        1.729   4.379   0.000   6.109
   81        1.730   4.375   0.000   6.105
   82        1.730   4.378   0.000   6.108
   83        1.730   4.377   0.000   6.107
   84        1.730   4.383   0.000   6.113
   85        1.730   4.378   0.000   6.109
   86        1.730   4.375   0.000   6.106
   87        1.729   4.378   0.000   6.108
   88        1.729   4.383   0.000   6.112
   89        1.730   4.375   0.000   6.106
   90        1.730   4.378   0.000   6.108
   91        1.730   4.379   0.000   6.109
   92        1.730   4.379   0.000   6.109
   93        1.729   4.379   0.000   6.108
   94        1.729   4.377   0.000   6.106
   95        1.731   4.377   0.000   6.108
   96        1.731   4.377   0.000   6.108
   97        1.730   4.380   0.000   6.111
   98        1.730   4.376   0.000   6.107
   99        1.730   4.379   0.000   6.109
  100        1.729   4.382   0.000   6.111
  101        1.731   4.377   0.000   6.108
  102        1.730   4.374   0.000   6.104
  103        1.729   4.382   0.000   6.112
  104        1.729   4.379   0.000   6.108
  105        1.730   4.376   0.000   6.105
  106        1.729   4.377   0.000   6.106
  107        1.730   4.382   0.000   6.112
  108        1.729   4.375   0.000   6.104
--------------------------------------------------
tot        144.476 504.609  48.098 697.183



 magnetization (x)

# of ion       s       p       d       tot
------------------------------------------
    1        0.000   0.000  -0.000   0.000
    2        0.000   0.000   0.000   0.000
    3        0.000   0.000   0.000   0.000
    4       -0.000   0.000   0.000   0.000
    5       -0.000  -0.000   0.000   0.000
    6       -0.000   0.000   0.000   0.000
    7       -0.000   0.000  -0.000  -0.000
    8        0.000   0.000   0.000   0.000
    9       -0.000   0.000  -0.000  -0.000
   10        0.000   0.000   0.000   0.000
   11        0.000  -0.000   0.000   0.000
   12        0.000  -0.000  -0.000   0.000
   13        0.000  -0.000  -0.000  -0.000
   14       -0.000   0.000  -0.000  -0.000
   15        0.000   0.000   0.000   0.000
   16       -0.000  -0.000  -0.000  -0.000
   17        0.000   0.000  -0.000   0.000
   18        0.000   0.000   0.000   0.000
   19        0.000  -0.000  -0.000  -0.000
   20       -0.000  -0.000  -0.000  -0.000
   21        0.000  -0.000  -0.000  -0.000
   22       -0.000   0.000   0.000   0.000
   23        0.000  -0.000  -0.000  -0.000
   24        0.000  -0.000  -0.000  -0.000
   25       -0.000   0.000  -0.000  -0.000
   26       -0.000   0.000   0.000   0.000
   27       -0.000  -0.000  -0.000  -0.000
   28       -0.000  -0.000   0.000  -0.000
   29        0.000  -0.000   0.000  -0.000
   30       -0.000  -0.000   0.000  -0.000
   31        0.000   0.000   0.000   0.000
   32        0.000  -0.000   0.000  -0.000
   33        0.000   0.000   0.000   0.000
   34        0.000  -0.000   0.000  -0.000
   35        0.000   0.000   0.000   0.000
   36       -0.000   0.000   0.000  -0.000
   37        0.000   0.000   0.000   0.000
   38       -0.000   0.000   0.000  -0.000
   39       -0.000  -0.000   0.000  -0.000
   40       -0.000   0.000   0.000   0.000
   41       -0.000   0.000   0.000   0.000
   42       -0.000   0.000   0.000  -0.000
   43       -0.000   0.000   0.000  -0.000
   44       -0.000  -0.000   0.000  -0.000
   45        0.000   0.000   0.000   0.000
   46        0.000  -0.000   0.000  -0.000
   47       -0.000  -0.000   0.000  -0.000
   48        0.000   0.000   0.000   0.000
   49        0.000   0.000   0.000   0.000
   50       -0.000   0.000   0.000   0.000
   51        0.000  -0.000   0.000  -0.000
   52        0.000   0.000   0.000   0.000
   53        0.000  -0.000   0.000   0.000
   54       -0.000   0.000   0.000  -0.000
   55        0.000  -0.000   0.000  -0.000
   56       -0.000  -0.000   0.000  -0.000
   57        0.000   0.000   0.000   0.000
   58       -0.000   0.000   0.000   0.000
   59       -0.000  -0.000   0.000  -0.000
   60        0.000  -0.000   0.000   0.000
   61        0.000   0.000   0.000   0.000
   62       -0.000   0.000   0.000   0.000
   63       -0.000  -0.000   0.000  -0.000
   64       -0.000   0.000   0.000  -0.000
   65        0.000  -0.000   0.000   0.000
   66        0.000  -0.000   0.000   0.000
   67       -0.000  -0.000   0.000  -0.000
   68        0.000  -0.000   0.000   0.000
   69        0.000  -0.000   0.000   0.000
   70        0.000  -0.000   0.000   0.000
   71        0.000   0.000   0.000   0.000
   72        0.000   0.000   0.000   0.000
   73       -0.000  -0.000   0.000  -0.000
   74        0.000  -0.000   0.000  -0.000
   75       -0.000  -0.000   0.000  -0.000
   76        0.000  -0.000   0.000   0.000
   77       -0.000  -0.000   0.000  -0.000
   78       -0.000  -0.000   0.000  -0.000
   79       -0.000  -0.000   0.000  -0.000
   80       -0.000   0.000   0.000   0.000
   81       -0.000   0.000   0.000   0.000
   82       -0.000   0.000   0.000  -0.000
   83        0.000   0.000   0.000   0.000
   84       -0.000  -0.000   0.000  -0.000
   85       -0.000   0.000   0.000   0.000
   86        0.000  -0.000   0.000   0.000
   87       -0.000  -0.000   0.000  -0.000
   88        0.000  -0.000   0.000   0.000
   89        0.000   0.000   0.000   0.000
   90        0.000   0.000   0.000   0.000
   91        0.000  -0.000   0.000   0.000
   92        0.000  -0.000   0.000   0.000
   93        0.000   0.000   0.000   0.000
   94        0.000  -0.000   0.000   0.000
   95        0.000  -0.000   0.000   0.000
   96       -0.000  -0.000   0.000  -0.000
   97       -0.000   0.000   0.000  -0.000
   98        0.000   0.000   0.000   0.000
   99        0.000   0.000   0.000   0.000
  100        0.000  -0.000   0.000   0.000
  101       -0.000  -0.000   0.000  -0.000
  102        0.000  -0.000   0.000  -0.000
  103       -0.000   0.000   0.000   0.000
  104        0.000   0.000   0.000   0.000
  105       -0.000  -0.000   0.000  -0.000
  106       -0.000   0.000   0.000   0.000
  107        0.000   0.000   0.000   0.000
  108        0.000  -0.000   0.000   0.000
--------------------------------------------------
tot          0.000  -0.000   0.000   0.000
 

 total amount of memory used by VASP MPI-rank0   298425. kBytes
=======================================================================

   base      :      30000. kBytes
   nonlr-proj:      25301. kBytes
   fftplans  :      18873. kBytes
   grid      :      21088. kBytes
   one-center:        435. kBytes
   wavefun   :     202728. kBytes
 
  
  
 General timing and accounting informations for this job:
 ========================================================
  
                  Total CPU time used (sec):      536.902
                            User time (sec):      514.904
                          System time (sec):       21.997
                         Elapsed time (sec):      549.971
  
                   Maximum memory used (kb):      833740.
                   Average memory used (kb):          N/A
  
                          Minor page faults:       135293
                          Major page faults:           12
                 Voluntary context switches:         7884
