       N       E                     dE             d eps       ncg     rms          rms(c)
DAV:   1    -0.213571248260E+03   -0.21357E+03   -0.26471E-04 16832   0.496E-02    0.369E-03
DAV:   2    -0.213571248017E+03    0.24278E-06   -0.85126E-07 13952   0.107E-02
   1 F= -.21357125E+03 E0= -.21357125E+03  d E =-.213571E+03  mag=    -0.0000
