 vasp.5.4.4.18Apr17-6-g9f103f2a35 (build Apr 30 2017 20:10:35) complex          
  
 executed on             LinuxIFC date 2017.08.07  12:54:28
 running on   64 total cores
 distrk:  each k-point on   64 cores,    1 groups
 distr:  one band on NCORES_PER_BAND=   8 cores,    8 groups


--------------------------------------------------------------------------------------------------------


 INCAR:
 POTCAR:   PAW_PBE Ti_pv 07Sep2000                
 POTCAR:   PAW_PBE O 08Apr2002                    
 POTCAR:    PAW_PBE F 08Apr2002                   
 POTCAR:   PAW_PBE Ti_pv 07Sep2000                
   VRHFIN =Ti: d3 s1                                                            
   LEXCH  = PE                                                                  
   EATOM  =  1042.3781 eV,   76.6126 Ry                                         
                                                                                
   TITEL  = PAW_PBE Ti_pv 07Sep2000                                             
   LULTRA =        F    use ultrasoft PP ?                                      
   IUNSCR =        1    unscreen: 0-lin 1-nonlin 2-no                           
   RPACOR =    2.200    partial core radius                                     
   POMASS =   47.880; ZVAL   =   10.000    mass and valenz                      
   RCORE  =    2.500    outmost cutoff radius                                   
   RWIGS  =    2.500; RWIGS  =    1.323    wigner-seitz radius (au A)           
   ENMAX  =  222.338; ENMIN  =  166.753 eV                                      
   RCLOC  =    1.701    cutoff for local pot                                    
   LCOR   =        T    correct aug charges                                     
   LPAW   =        T    paw PP                                                  
   EAUG   =  482.848                                                            
   DEXC   =    -.008                                                            
   RMAX   =    3.092    core radius for proj-oper                               
   RAUG   =    1.300    factor for augmentation sphere                          
   RDEP   =    2.538    radius for radial grids                                 
   QCUT   =   -4.042; QGAM   =    8.085    optimization parameters              
                                                                                
   Description                                                                  
     l     E      TYP  RCUT    TYP  RCUT                                        
     1   .000     23  2.300                                                     
     1  -.100     23  2.300                                                     
     2   .000     23  2.500                                                     
     2   .000     23  2.500                                                     
     0   .000     23  2.500                                                     
     0  1.500     23  2.500                                                     
     3   .000      7   .000                                                     
  local pseudopotential read in
  partial core-charges read in
  atomic valenz-charges read in
  non local Contribution for L=           1  read in
    real space projection operators read in
  non local Contribution for L=           1  read in
    real space projection operators read in
  non local Contribution for L=           2  read in
    real space projection operators read in
  non local Contribution for L=           2  read in
    real space projection operators read in
  non local Contribution for L=           0  read in
    real space projection operators read in
  non local Contribution for L=           0  read in
    real space projection operators read in
    PAW grid and wavefunctions read in
 
   number of l-projection  operators is LMAX  =           6
   number of lm-projection operators is LMMAX =          18
 
 POTCAR:   PAW_PBE O 08Apr2002                    
   VRHFIN =O: s2p4                                                              
   LEXCH  = PE                                                                  
   EATOM  =   432.3788 eV,   31.7789 Ry                                         
                                                                                
   TITEL  = PAW_PBE O 08Apr2002                                                 
   LULTRA =        F    use ultrasoft PP ?                                      
   IUNSCR =        0    unscreen: 0-lin 1-nonlin 2-no                           
   RPACOR =     .000    partial core radius                                     
   POMASS =   16.000; ZVAL   =    6.000    mass and valenz                      
   RCORE  =    1.520    outmost cutoff radius                                   
   RWIGS  =    1.550; RWIGS  =     .820    wigner-seitz radius (au A)           
   ENMAX  =  400.000; ENMIN  =  300.000 eV                                      
   ICORE  =        2    local potential                                         
   LCOR   =        T    correct aug charges                                     
   LPAW   =        T    paw PP                                                  
   EAUG   =  605.392                                                            
   DEXC   =     .000                                                            
   RMAX   =    2.264    core radius for proj-oper                               
   RAUG   =    1.300    factor for augmentation sphere                          
   RDEP   =    1.550    radius for radial grids                                 
   QCUT   =   -5.520; QGAM   =   11.041    optimization parameters              
                                                                                
   Description                                                                  
     l     E      TYP  RCUT    TYP  RCUT                                        
     0   .000     23  1.200                                                     
     0  -.700     23  1.200                                                     
     1   .000     23  1.520                                                     
     1   .600     23  1.520                                                     
     2   .000      7  1.500                                                     
  local pseudopotential read in
  atomic valenz-charges read in
  non local Contribution for L=           0  read in
    real space projection operators read in
  non local Contribution for L=           0  read in
    real space projection operators read in
  non local Contribution for L=           1  read in
    real space projection operators read in
  non local Contribution for L=           1  read in
    real space projection operators read in
    PAW grid and wavefunctions read in
 
   number of l-projection  operators is LMAX  =           4
   number of lm-projection operators is LMMAX =           8
 
 POTCAR:    PAW_PBE F 08Apr2002                   
   VRHFIN =F: s2p5                                                              
   LEXCH  = PE                                                                  
   EATOM  =   659.6475 eV,   48.4827 Ry                                         
                                                                                
   TITEL  = PAW_PBE F 08Apr2002                                                 
   LULTRA =        F    use ultrasoft PP ?                                      
   IUNSCR =        1    unscreen: 0-lin 1-nonlin 2-no                           
   RPACOR =    1.200    partial core radius                                     
   POMASS =   18.998; ZVAL   =    7.000    mass and valenz                      
   RCORE  =    1.520    outmost cutoff radius                                   
   RWIGS  =    1.500; RWIGS  =    0.794    wigner-seitz radius (au A)           
   ENMAX  =  400.000; ENMIN  =  300.000 eV                                      
   ICORE  =        2    local potential                                         
   LCOR   =        T    correct aug charges                                     
   LPAW   =        T    paw PP                                                  
   EAUG   =  613.614                                                            
   RMAX   =    1.555    core radius for proj-oper                               
   RAUG   =    1.300    factor for augmentation sphere                          
   RDEP   =    1.539    radius for radial grids                                 
   RDEPT  =    1.299    core radius for aug-charge                              
                                                                                
   Atomic configuration                                                         
    4 entries                                                                   
     n  l   j            E        occ.                                          
     1  0  0.50      -663.3661   2.0000                                         
     2  0  0.50       -29.8995   2.0000                                         
     2  1  0.50       -11.1114   5.0000                                         
     3  2  1.50       -10.8847   0.0000                                         
   Description                                                                  
     l       E           TYP  RCUT    TYP  RCUT                                 
     0    -29.8995018     23  1.200                                             
     0     -9.5240782     23  1.200                                             
     1    -11.1113914     23  1.520                                             
     1      1.3605826     23  1.520                                             
     2    -10.8846608      7  1.500                                             
  local pseudopotential read in
  partial core-charges read in
  partial kinetic energy density read in
  atomic valenz-charges read in
  non local Contribution for L=           0  read in
    real space projection operators read in
  non local Contribution for L=           0  read in
    real space projection operators read in
  non local Contribution for L=           1  read in
    real space projection operators read in
  non local Contribution for L=           1  read in
    real space projection operators read in
    PAW grid and wavefunctions read in
 
   number of l-projection  operators is LMAX  =           4
   number of lm-projection operators is LMMAX =           8
 
 Optimization of the real space projectors (new method)

 maximal supplied QI-value         = 15.12
 optimisation between [QCUT,QGAM] = [ 13.45, 27.06] = [ 50.69,205.06] Ry 
 Optimized for a Real-space Cutoff    1.49 Angstroem

   l    n(q)    QCUT    max X(q) W(low)/X(q) W(high)/X(q)  e(spline) 
   1     12    13.455     4.841    0.13E-05    0.83E-06    0.56E-07
   1     12    13.455     5.701    0.32E-04    0.25E-04    0.17E-06
   2     11    13.455     4.569    0.64E-05    0.34E-05    0.50E-07
   2     11    13.455    32.276    0.49E-04    0.38E-04    0.46E-06
   0     12    13.455    30.046    0.17E-04    0.41E-05    0.51E-07
   0     12    13.455    45.433    0.12E-04    0.27E-04    0.38E-06
 Optimization of the real space projectors (new method)

 maximal supplied QI-value         = 24.76
 optimisation between [QCUT,QGAM] = [ 13.37, 26.98] = [ 50.04,203.89] Ry 
 Optimized for a Real-space Cutoff    1.17 Angstroem

   l    n(q)    QCUT    max X(q) W(low)/X(q) W(high)/X(q)  e(spline) 
   0      9    13.368     4.192    0.20E-04    0.58E-05    0.56E-07
   0      9    13.368     8.473    0.60E-04    0.52E-04    0.21E-06
   1      9    13.368     2.474    0.22E-04    0.17E-04    0.28E-07
   1      9    13.368     3.912    0.94E-04    0.97E-04    0.20E-06
 Optimization of the real space projectors (new method)

 maximal supplied QI-value         = 24.76
 optimisation between [QCUT,QGAM] = [ 13.37, 26.98] = [ 50.04,203.89] Ry 
 Optimized for a Real-space Cutoff    1.17 Angstroem

   l    n(q)    QCUT    max X(q) W(low)/X(q) W(high)/X(q)  e(spline) 
   0      9    13.368    14.049    0.39E-04    0.34E-04    0.16E-06
   0      9    13.368     8.945    0.54E-04    0.47E-04    0.20E-06
   1      9    13.368     7.086    0.99E-04    0.10E-03    0.23E-06
   1      9    13.368     6.747    0.86E-04    0.89E-04    0.21E-06

 ----------------------------------------------------------------------------- 
|                                                                             |
|  ADVICE TO THIS USER RUNNING 'VASP/VAMP'   (HEAR YOUR MASTER'S VOICE ...):  |
|                                                                             |
|      You enforced a specific xc-type in the INCAR file,                     |
|      a different type was found on the POTCAR file                          |
|          I HOPE YOU KNOW, WHAT YOU ARE  DOING                               |
|                                                                             |
 ----------------------------------------------------------------------------- 

 PAW_PBE Ti_pv 07Sep2000                :
 energy of atom  1       EATOM=-1042.3781
 kinetic energy error for atom=    0.0006 (will be added to EATOM!!)
 PAW_PBE O 08Apr2002                    :
 energy of atom  2       EATOM= -432.3788
 kinetic energy error for atom=    0.0091 (will be added to EATOM!!)
  PAW_PBE F 08Apr2002                   :
 energy of atom  3       EATOM= -659.6475
 kinetic energy error for atom=    0.0140 (will be added to EATOM!!)
 
 
 POSCAR: TiOF2 2x2x2 config 1016                 
  positions in direct lattice
  velocities in cartesian coordinates
 exchange correlation table for  LEXCH =       14
   RHO(1)=    0.500       N(1)  =     2000
   RHO(2)=  100.500       N(2)  =     4000

 VTST: version 3.1, (03/28/14)

 CHAIN: initializing optimizer
 
 OPT: Using VASP QUASI-newton optimizer
 CHAIN: Read ICHAIN            0
 
 POSCAR: TiOF2 2x2x2 config 1016                 
  positions in direct lattice
  velocities in cartesian coordinates
 


--------------------------------------------------------------------------------------------------------


 ion  position               nearest neighbor table
   1  0.000  0.983  0.995-  10 1.79  13 1.89  21 1.94  17 1.95  29 1.99  24 2.04
   2  0.001  0.001  0.519-  13 1.76  25 1.91  26 1.92  18 1.93  22 1.93  29 2.04
   3  0.001  0.508  0.015-  14 1.79  10 1.88  19 1.95  23 1.95  24 2.01  30 2.03
   4  0.981  0.500  0.490-   9 1.79  14 1.86  25 1.96  26 1.97  30 2.01  20 2.08
   5  0.500  0.015  0.013-  11 1.81  15 1.82  21 1.98  17 1.98  31 2.02  28 2.04
   6  0.500  0.984  0.488-  12 1.79  15 1.83  18 1.99  22 2.00  31 2.02  27 2.03
   7  0.500  0.489  0.984-  16 1.79  11 1.85  19 1.97  23 1.97  32 2.02  28 2.03
   8  0.507  0.509  0.509-  16 1.85  12 1.87   9 1.92  32 2.01  27 2.03  20 2.04
   9  0.753  0.499  0.500-   4 1.79   8 1.92
  10  1.000  0.751  1.000-   1 1.79   3 1.88
  11  0.500  0.250  0.999-   5 1.81   7 1.85
  12  0.499  0.752  0.500-   6 1.79   8 1.87
  13  1.000  0.002  0.748-   2 1.76   1 1.89
  14  0.001  0.498  0.249-   3 1.79   4 1.86
  15  0.500  1.000  0.250-   5 1.82   6 1.83
  16  0.499  0.500  0.751-   7 1.79   8 1.85
  17  0.248  0.001  1.000-   1 1.95   5 1.98
  18  0.247  0.003  0.499-   2 1.93   6 1.99
  19  0.249  0.500  0.999-   3 1.95   7 1.97
  20  0.247  0.498  0.500-   8 2.04   4 2.08
  21  0.752  0.001  1.000-   1 1.94   5 1.98
  22  0.755  0.004  0.499-   2 1.93   6 2.00
  23  0.752  0.500  0.999-   3 1.95   7 1.97
  24  1.000  0.248  0.999-   3 2.01   1 2.04
  25  0.005  0.248  0.498-   2 1.91   4 1.96
  26  0.005  0.754  0.498-   2 1.92   4 1.97
  27  0.498  0.247  0.501-   8 2.03   6 2.03
  28  0.500  0.752  0.999-   7 2.03   5 2.04
  29  1.000  0.004  0.253-   1 1.99   2 2.04
  30  0.004  0.496  0.750-   4 2.01   3 2.03
  31  0.501  1.000  0.750-   6 2.02   5 2.02
  32  0.497  0.501  0.247-   8 2.01   7 2.02
 

IMPORTANT INFORMATION: All symmetrisations will be switched off!
NOSYMM: (Re-)initialisation of all symmetry stuff for point group C_1.

 
 
 KPOINTS: Title                                   

Automatic generation of k-mesh.
Space group operators:
 irot       det(A)        alpha          n_x          n_y          n_z        tau_x        tau_y        tau_z
    1     1.000000     0.000000     1.000000     0.000000     0.000000     0.000000     0.000000     0.000000
 
 Subroutine IBZKPT returns following result:
 ===========================================
 
 Found     32 irreducible k-points:
 
 Following reciprocal coordinates:
            Coordinates               Weight
  0.125000  0.125000  0.125000      2.000000
  0.375000  0.125000  0.125000      2.000000
 -0.375000  0.125000  0.125000      2.000000
 -0.125000  0.125000  0.125000      2.000000
  0.125000  0.375000  0.125000      2.000000
  0.375000  0.375000  0.125000      2.000000
 -0.375000  0.375000  0.125000      2.000000
 -0.125000  0.375000  0.125000      2.000000
  0.125000 -0.375000  0.125000      2.000000
  0.375000 -0.375000  0.125000      2.000000
 -0.375000 -0.375000  0.125000      2.000000
 -0.125000 -0.375000  0.125000      2.000000
  0.125000 -0.125000  0.125000      2.000000
  0.375000 -0.125000  0.125000      2.000000
 -0.375000 -0.125000  0.125000      2.000000
 -0.125000 -0.125000  0.125000      2.000000
  0.125000  0.125000  0.375000      2.000000
  0.375000  0.125000  0.375000      2.000000
 -0.375000  0.125000  0.375000      2.000000
 -0.125000  0.125000  0.375000      2.000000
  0.125000  0.375000  0.375000      2.000000
  0.375000  0.375000  0.375000      2.000000
 -0.375000  0.375000  0.375000      2.000000
 -0.125000  0.375000  0.375000      2.000000
  0.125000 -0.375000  0.375000      2.000000
  0.375000 -0.375000  0.375000      2.000000
 -0.375000 -0.375000  0.375000      2.000000
 -0.125000 -0.375000  0.375000      2.000000
  0.125000 -0.125000  0.375000      2.000000
  0.375000 -0.125000  0.375000      2.000000
 -0.375000 -0.125000  0.375000      2.000000
 -0.125000 -0.125000  0.375000      2.000000
 
 Following cartesian coordinates:
            Coordinates               Weight
  0.015982  0.016189  0.016286      2.000000
  0.047947  0.016192  0.016280      2.000000
 -0.047949  0.016182  0.016297      2.000000
 -0.015984  0.016185  0.016292      2.000000
  0.015985  0.048581  0.016268      2.000000
  0.047950  0.048585  0.016262      2.000000
 -0.047946  0.048575  0.016279      2.000000
 -0.015980  0.048578  0.016274      2.000000
  0.015975 -0.048596  0.016323      2.000000
  0.047940 -0.048593  0.016317      2.000000
 -0.047956 -0.048603  0.016334      2.000000
 -0.015990 -0.048599  0.016328      2.000000
  0.015978 -0.016204  0.016304      2.000000
  0.047943 -0.016200  0.016299      2.000000
 -0.047952 -0.016210  0.016316      2.000000
 -0.015987 -0.016207  0.016310      2.000000
  0.015976  0.016171  0.048882      2.000000
  0.047941  0.016174  0.048877      2.000000
 -0.047954  0.016164  0.048894      2.000000
 -0.015989  0.016167  0.048888      2.000000
  0.015979  0.048563  0.048864      2.000000
  0.047945  0.048566  0.048858      2.000000
 -0.047951  0.048556  0.048875      2.000000
 -0.015986  0.048560  0.048870      2.000000
  0.015969 -0.048614  0.048919      2.000000
  0.047935 -0.048611  0.048913      2.000000
 -0.047961 -0.048621  0.048930      2.000000
 -0.015996 -0.048617  0.048925      2.000000
  0.015973 -0.016222  0.048901      2.000000
  0.047938 -0.016218  0.048895      2.000000
 -0.047958 -0.016228  0.048912      2.000000
 -0.015993 -0.016225  0.048906      2.000000
 


--------------------------------------------------------------------------------------------------------




 Dimension of arrays:
   k-points           NKPTS =     32   k-points in BZ     NKDIM =     32   number of bands    NBANDS=    160
   number of dos      NEDOS =   3001   number of ions     NIONS =     32
   non local maximal  LDIM  =      6   non local SUM 2l+1 LMDIM =     18
   total plane-waves  NPLWV = 343000
   max r-space proj   IRMAX =  10272   max aug-charges    IRDMAX= 230293
   dimension x,y,z NGX =    70 NGY =   70 NGZ =   70
   dimension x,y,z NGXF=   140 NGYF=  140 NGZF=  140
   support grid    NGXF=   280 NGYF=  280 NGZF=  280
   ions per type =               8   8  16
   NGX,Y,Z   is equivalent  to a cutoff of  14.88, 15.08, 15.17 a.u.
   NGXF,Y,Z  is equivalent  to a cutoff of  29.76, 30.16, 30.35 a.u.

 SYSTEM =  LTO                                     
 POSCAR =  TiOF2 2x2x2 config 1016                 

 Startparameter for this run:
   NWRITE =      2    write-flag & timer
   PREC   = accura    normal or accurate (medium, high low for compatibility)
   ISTART =      1    job   : 0-new  1-cont  2-samecut
   ICHARG =      0    charge: 1-file 2-atom 10-const
   ISPIN  =      2    spin polarized calculation?
   LNONCOLLINEAR =      F non collinear calculations
   LSORBIT =      F    spin-orbit coupling
   INIWAV =      1    electr: 0-lowe 1-rand  2-diag
   LASPH  =      T    aspherical Exc in radial PAW
   METAGGA=      F    non-selfconsistent MetaGGA calc.

 Electronic Relaxation 1
   ENCUT  =  700.0 eV  51.45 Ry    7.17 a.u.  16.87 16.65 16.55*2*pi/ulx,y,z
   ENINI  =  700.0     initial cutoff
   ENAUG  =  613.6 eV  augmentation charge cutoff
   NELM   =     60;   NELMIN=  2; NELMDL=  0     # of ELM steps 
   EDIFF  = 0.1E-05   stopping-criterion for ELM
   LREAL  =      T    real-space projection
   NLSPLINE    = F    spline interpolate recip. space projectors
   LCOMPAT=      F    compatible to vasp.4.4
   GGA_COMPAT  = T    GGA compatible to vasp.4.4-vasp.4.6
   LMAXPAW     = -100 max onsite density
   LMAXMIX     =    4 max onsite mixed and CHGCAR
   VOSKOWN=      0    Vosko Wilk Nusair interpolation
   ROPT   =   -0.00010  -0.00010  -0.00010
 Ionic relaxation
   EDIFFG = -.1E-01   stopping-criterion for IOM
   NSW    =    100    number of steps for IOM
   NBLOCK =      1;   KBLOCK =    100    inner block; outer block 
   IBRION =      1    ionic relax: 0-MD 1-quasi-New 2-CG
   NFREE  =      0    steps in history (QN), initial steepest desc. (CG)
   ISIF   =      3    stress and relaxation
   IWAVPR =     11    prediction:  0-non 1-charg 2-wave 3-comb
   ISYM   =      0    0-nonsym 1-usesym 2-fastsym
   LCORR  =      T    Harris-Foulkes like correction to forces

   POTIM  = 0.5000    time-step for ionic-motion
   TEIN   =    0.0    initial temperature
   TEBEG  =    0.0;   TEEND  =   0.0 temperature during run
   SMASS  =  -3.00    Nose mass-parameter (am)
   estimated Nose-frequenzy (Omega)   =  0.10E-29 period in steps =****** mass=  -0.140E-26a.u.
   SCALEE = 1.0000    scale energy and forces
   NPACO  =    256;   APACO  = 16.0  distance and # of slots for P.C.
   PSTRESS=    0.0 pullay stress

  Mass of Ions in am
   POMASS =  47.88 16.00 19.00
  Ionic Valenz
   ZVAL   =  10.00  6.00  7.00
  Atomic Wigner-Seitz radii
   RWIGS  =  -1.00 -1.00 -1.00
  virtual crystal weights 
   VCA    =   1.00  1.00  1.00
   NELECT =     240.0000    total number of electrons
   NUPDOWN=      -1.0000    fix difference up-down

 DOS related values:
   EMIN   =  10.00;   EMAX   =-10.00  energy-range for DOS
   EFERMI =   0.00
   ISMEAR =     0;   SIGMA  =   0.01  broadening in eV -4-tet -1-fermi 0-gaus

 Electronic relaxation 2 (details)
   IALGO  =     38    algorithm
   LDIAG  =      T    sub-space diagonalisation (order eigenvalues)
   LSUBROT=      F    optimize rotation matrix (better conditioning)
   TURBO    =      0    0=normal 1=particle mesh
   IRESTART =      0    0=no restart 2=restart with 2 vectors
   NREBOOT  =      0    no. of reboots
   NMIN     =      0    reboot dimension
   EREF     =   0.00    reference energy to select bands
   IMIX   =      4    mixing-type and parameters
     AMIX     =   0.40;   BMIX     =  1.00
     AMIX_MAG =   1.60;   BMIX_MAG =  1.00
     AMIN     =   0.10
     WC   =   100.;   INIMIX=   1;  MIXPRE=   1;  MAXMIX= -45

 Intra band minimization:
   WEIMIN = 0.0010     energy-eigenvalue tresh-hold
   EBREAK =  0.16E-08  absolut break condition
   DEPER  =   0.30     relativ break condition  

   TIME   =   0.40     timestep for ELM

  volume/ion in A,a.u.               =      14.47        97.63
  Fermi-wavevector in a.u.,A,eV,Ry     =   1.315128  2.485232 23.532123  1.729562
  Thomas-Fermi vector in A             =   2.445333
 
 Write flags
   LWAVE        =      T    write WAVECAR
   LDOWNSAMPLE  =      F    k-point downsampling of WAVECAR
   LCHARG       =      T    write CHGCAR
   LVTOT        =      F    write LOCPOT, total local potential
   LVHAR        =      F    write LOCPOT, Hartree potential only
   LELF         =      F    write electronic localiz. function (ELF)
   LORBIT       =     11    0 simple, 1 ext, 2 COOP (PROOUT), +10 PAW based schemes


 Dipole corrections
   LMONO  =      F    monopole corrections only (constant potential shift)
   LDIPOL =      F    correct potential (dipole corrections)
   IDIPOL =      0    1-x, 2-y, 3-z, 4-all directions 
   EPSILON=  1.0000000 bulk dielectric constant

 LDA+U is selected, type is set to LDAUTYPE =  2
   angular momentum for each species LDAUL =     2   -1   -1
   U (eV)           for each species LDAUU =   4.2  0.0  0.0
   J (eV)           for each species LDAUJ =   0.0  0.0  0.0
 Exchange correlation treatment:
   GGA     =    PS    GGA type
   LEXCH   =    14    internal setting for exchange type
   VOSKOWN=      0    Vosko Wilk Nusair interpolation
   LHFCALC =     F    Hartree Fock is set to
   LHFONE  =     F    Hartree Fock one center treatment
   AEXX    =    0.0000 exact exchange contribution

 Linear response parameters
   LEPSILON=     F    determine dielectric tensor
   LRPA    =     F    only Hartree local field effects (RPA)
   LNABLA  =     F    use nabla operator in PAW spheres
   LVEL    =     F    velocity operator in full k-point grid
   LINTERFAST=   F  fast interpolation
   KINTER  =     0    interpolate to denser k-point grid
   CSHIFT  =0.1000    complex shift for real part using Kramers Kronig
   OMEGAMAX=  -1.0    maximum frequency
   DEG_THRESHOLD= 0.2000000E-02 threshold for treating states as degnerate
   RTIME   =   -0.100 relaxation time in fs
  (WPLASMAI=    0.000 imaginary part of plasma frequency in eV, 0.658/RTIME)
   DFIELD  = 0.0000000 0.0000000 0.0000000 field for delta impulse in time
 
 Orbital magnetization related:
   ORBITALMAG=     F  switch on orbital magnetization
   LCHIMAG   =     F  perturbation theory with respect to B field
   DQ        =  0.001000  dq finite difference perturbation B field
   LLRAUG    =     F  two centre corrections for induced B field



--------------------------------------------------------------------------------------------------------


 quasi-Newton-method for relaxation of ions
 charge density and potential will be updated during run
 spin polarized calculation
 Variant of blocked Davidson
 Davidson routine will perform the subspace rotation
 perform sub-space diagonalisation
    after iterative eigenvector-optimisation
 modified Broyden-mixing scheme, WC =      100.0
 initial mixing is a Kerker type mixing with AMIX =  0.4000 and BMIX =      1.0000
 Hartree-type preconditioning will be used
 using additional bands           40
 real space projection scheme for non local part
 use partial core corrections
 calculate Harris-corrections to forces 
   (improved forces if not selfconsistent)
 use gradient corrections 
 use of overlap-Matrix (Vanderbilt PP)
 Gauss-broadening in eV      SIGMA  =   0.01


--------------------------------------------------------------------------------------------------------


  energy-cutoff  :      700.00
  volume of cell :      462.95
      direct lattice vectors                 reciprocal lattice vectors
     7.820994861 -0.000810225  0.001313577     0.127860977  0.000013287 -0.000022669
    -0.000801241  7.717864816  0.004283209     0.000013435  0.129569557 -0.000073102
     0.001359348  0.004326990  7.669594680    -0.000021906 -0.000072362  0.130385031

  length of vectors
     7.820995014  7.717866046  7.669596021     0.127860979  0.129569578  0.130385053


 
 old parameters found on file WAVECAR:
  energy-cutoff  :      700.00
  volume of cell :      462.70
      direct lattice vectors                 reciprocal lattice vectors
     7.819527382 -0.000848644  0.001222899     0.127884972  0.000013916 -0.000021193
    -0.000839075  7.716478228  0.003633668     0.000014074  0.129592828 -0.000062219
     0.001270381  0.003681534  7.668383994    -0.000020401 -0.000061410  0.130405605

  length of vectors

 
 k-points in units of 2pi/SCALE and weight: Title                                   
   0.01598156  0.01618881  0.01628616       0.031
   0.04794681  0.01619213  0.01628049       0.031
  -0.04794893  0.01618217  0.01629749       0.031
  -0.01598368  0.01618549  0.01629182       0.031
   0.01598492  0.04858120  0.01626788       0.031
   0.04795017  0.04858452  0.01626221       0.031
  -0.04794557  0.04857456  0.01627922       0.031
  -0.01598032  0.04857788  0.01627355       0.031
   0.01597485 -0.04859597  0.01632271       0.031
   0.04794009 -0.04859265  0.01631704       0.031
  -0.04795564 -0.04860261  0.01633404       0.031
  -0.01599040 -0.04859929  0.01632838       0.031
   0.01597820 -0.01620358  0.01630443       0.031
   0.04794345 -0.01620026  0.01629877       0.031
  -0.04795228 -0.01621022  0.01631577       0.031
  -0.01598704 -0.01620690  0.01631010       0.031
   0.01597609  0.01617072  0.04888242       0.031
   0.04794133  0.01617404  0.04887675       0.031
  -0.04795440  0.01616408  0.04889375       0.031
  -0.01598916  0.01616740  0.04888808       0.031
   0.01597945  0.04856311  0.04886414       0.031
   0.04794469  0.04856643  0.04885847       0.031
  -0.04795104  0.04855647  0.04887547       0.031
  -0.01598580  0.04855979  0.04886981       0.031
   0.01596937 -0.04861406  0.04891897       0.031
   0.04793461 -0.04861074  0.04891330       0.031
  -0.04796112 -0.04862070  0.04893030       0.031
  -0.01599588 -0.04861738  0.04892463       0.031
   0.01597273 -0.01622167  0.04890069       0.031
   0.04793797 -0.01621835  0.04889502       0.031
  -0.04795776 -0.01622831  0.04891203       0.031
  -0.01599252 -0.01622499  0.04890636       0.031
 
 k-points in reciprocal lattice and weights: Title                                   
   0.12500000  0.12500000  0.12500000       0.031
   0.37500000  0.12500000  0.12500000       0.031
  -0.37500000  0.12500000  0.12500000       0.031
  -0.12500000  0.12500000  0.12500000       0.031
   0.12500000  0.37500000  0.12500000       0.031
   0.37500000  0.37500000  0.12500000       0.031
  -0.37500000  0.37500000  0.12500000       0.031
  -0.12500000  0.37500000  0.12500000       0.031
   0.12500000 -0.37500000  0.12500000       0.031
   0.37500000 -0.37500000  0.12500000       0.031
  -0.37500000 -0.37500000  0.12500000       0.031
  -0.12500000 -0.37500000  0.12500000       0.031
   0.12500000 -0.12500000  0.12500000       0.031
   0.37500000 -0.12500000  0.12500000       0.031
  -0.37500000 -0.12500000  0.12500000       0.031
  -0.12500000 -0.12500000  0.12500000       0.031
   0.12500000  0.12500000  0.37500000       0.031
   0.37500000  0.12500000  0.37500000       0.031
  -0.37500000  0.12500000  0.37500000       0.031
  -0.12500000  0.12500000  0.37500000       0.031
   0.12500000  0.37500000  0.37500000       0.031
   0.37500000  0.37500000  0.37500000       0.031
  -0.37500000  0.37500000  0.37500000       0.031
  -0.12500000  0.37500000  0.37500000       0.031
   0.12500000 -0.37500000  0.37500000       0.031
   0.37500000 -0.37500000  0.37500000       0.031
  -0.37500000 -0.37500000  0.37500000       0.031
  -0.12500000 -0.37500000  0.37500000       0.031
   0.12500000 -0.12500000  0.37500000       0.031
   0.37500000 -0.12500000  0.37500000       0.031
  -0.37500000 -0.12500000  0.37500000       0.031
  -0.12500000 -0.12500000  0.37500000       0.031
 
 position of ions in fractional coordinates (direct lattice) 
   0.00002978  0.98315902  0.99454451
   0.00084416  0.00137371  0.51897702
   0.00085033  0.50846544  0.01528111
   0.98076376  0.50006413  0.49000310
   0.50010657  0.01536853  0.01306403
   0.50011598  0.98389754  0.48753534
   0.50009708  0.48867623  0.98429174
   0.50699984  0.50933334  0.50949391
   0.75254766  0.49921167  0.49971831
   0.99999262  0.75144395  0.99997537
   0.50047915  0.24985994  0.99943707
   0.49910304  0.75189311  0.50021371
   0.99966747  0.00196786  0.74820213
   0.00134609  0.49841497  0.24881524
   0.50041509  0.99985235  0.24959812
   0.49859496  0.50031782  0.75061860
   0.24806996  0.00084624  0.99983502
   0.24652430  0.00324288  0.49894873
   0.24901347  0.50033789  0.99879518
   0.24662256  0.49802820  0.50003777
   0.75210077  0.00078752  0.99988568
   0.75470725  0.00368835  0.49867988
   0.75183657  0.50025091  0.99853736
   0.99995190  0.24807590  0.99922446
   0.00486094  0.24765060  0.49773798
   0.00491220  0.75387856  0.49793826
   0.49786312  0.24690768  0.50081158
   0.50049288  0.75152178  0.99904114
   0.99970924  0.00430622  0.25330646
   0.00422970  0.49617667  0.75033249
   0.50052626  0.99994195  0.74994341
   0.49662533  0.50105902  0.24717529
 
 position of ions in cartesian coordinates  (Angst):
   0.00079709  7.59219177  7.63196441
   0.00730654  0.01284704  3.98035040
   0.00626378  3.92433294  0.11937887
   7.67081372  3.86075299  3.76155534
   3.91133632  0.11826353  0.10091857
   3.91127890  7.59529255  3.74406965
   3.91220317  3.77539094  7.55186870
   3.96552761  3.93275968  3.91045932
   5.88595069  3.85440069  3.83576365
   7.82169438  5.80305950  7.67393792
   3.91540323  1.93230431  7.66700483
   3.90355980  5.80476944  3.84031250
   7.81940964  0.01761522  5.73972865
   0.01046661  3.84777491  1.91044865
   3.91328199  7.71739986  1.91925635
   3.90012807  3.86422928  5.75973835
   1.94151230  0.01065645  7.66865881
   1.92874094  0.02698731  3.82707223
   1.94848991  3.86566023  7.66282435
   1.92911444  3.84567818  3.83754416
   5.88353486  0.00979511  7.66970921
   5.90323648  0.03001246  3.82567971
   5.88106646  3.86458043  7.66150713
   7.82177821  1.91812972  7.66602266
   0.03849556  1.91348362  3.81851568
   0.03849113  5.82048337  3.82222010
   3.89426782  1.90736371  3.84273337
   3.91510811  5.80406086  7.66611698
   7.81906168  0.03352089  1.94408955
   0.03370284  3.83266772  5.75687686
   3.91483156  7.72025623  5.75670243
   3.88403867  3.86777289  1.89853278
 


--------------------------------------------------------------------------------------------------------


 k-point  1 :   0.1250 0.1250 0.1250  plane waves:   19475
 k-point  2 :   0.3750 0.1250 0.1250  plane waves:   19487
 k-point  3 :  -0.3750 0.1250 0.1250  plane waves:   19485
 k-point  4 :  -0.1250 0.1250 0.1250  plane waves:   19474
 k-point  5 :   0.1250 0.3750 0.1250  plane waves:   19456
 k-point  6 :   0.3750 0.3750 0.1250  plane waves:   19480
 k-point  7 :  -0.3750 0.3750 0.1250  plane waves:   19483
 k-point  8 :  -0.1250 0.3750 0.1250  plane waves:   19461
 k-point  9 :   0.1250-0.3750 0.1250  plane waves:   19467
 k-point 10 :   0.3750-0.3750 0.1250  plane waves:   19475
 k-point 11 :  -0.3750-0.3750 0.1250  plane waves:   19478
 k-point 12 :  -0.1250-0.3750 0.1250  plane waves:   19462
 k-point 13 :   0.1250-0.1250 0.1250  plane waves:   19466
 k-point 14 :   0.3750-0.1250 0.1250  plane waves:   19487
 k-point 15 :  -0.3750-0.1250 0.1250  plane waves:   19482
 k-point 16 :  -0.1250-0.1250 0.1250  plane waves:   19469
 k-point 17 :   0.1250 0.1250 0.3750  plane waves:   19453
 k-point 18 :   0.3750 0.1250 0.3750  plane waves:   19462
 k-point 19 :  -0.3750 0.1250 0.3750  plane waves:   19463
 k-point 20 :  -0.1250 0.1250 0.3750  plane waves:   19457
 k-point 21 :   0.1250 0.3750 0.3750  plane waves:   19449
 k-point 22 :   0.3750 0.3750 0.3750  plane waves:   19472
 k-point 23 :  -0.3750 0.3750 0.3750  plane waves:   19478
 k-point 24 :  -0.1250 0.3750 0.3750  plane waves:   19445
 k-point 25 :   0.1250-0.3750 0.3750  plane waves:   19451
 k-point 26 :   0.3750-0.3750 0.3750  plane waves:   19477
 k-point 27 :  -0.3750-0.3750 0.3750  plane waves:   19479
 k-point 28 :  -0.1250-0.3750 0.3750  plane waves:   19449
 k-point 29 :   0.1250-0.1250 0.3750  plane waves:   19465
 k-point 30 :   0.3750-0.1250 0.3750  plane waves:   19455
 k-point 31 :  -0.3750-0.1250 0.3750  plane waves:   19458
 k-point 32 :  -0.1250-0.1250 0.3750  plane waves:   19470

 maximum and minimum number of plane-waves per node :      2466     2404

 maximum number of plane-waves:     19487
 maximum index in each direction: 
   IXMAX=   17   IYMAX=   17   IZMAX=   16
   IXMIN=  -17   IYMIN=  -17   IZMIN=  -16


 real space projection operators:
  total allocation   :      18491.55 KBytes
  max/ min on nodes  :       2458.27       1922.78


 parallel 3D FFT for wavefunctions:
    minimum data exchange during FFTs selected (reduces bandwidth)
 parallel 3D FFT for charge:
    minimum data exchange during FFTs selected (reduces bandwidth)


 total amount of memory used by VASP MPI-rank0   107024. kBytes
=======================================================================

   base      :      30000. kBytes
   nonlr-proj:       8575. kBytes
   fftplans  :       8424. kBytes
   grid      :       8783. kBytes
   one-center:        124. kBytes
   wavefun   :      51118. kBytes
 
     INWAV:  cpu time   29.9694: real time   37.7996
 Broyden mixing: mesh for mixing (old mesh)
   NGX = 33   NGY = 33   NGZ = 33
  (NGX  =140   NGY  =140   NGZ  =140)
  gives a total of  35937 points

 charge density for first step will be calculated from the start-wavefunctions


--------------------------------------------------------------------------------------------------------


 Maximum index for non-local projection operator         1385
 Maximum index for augmentation-charges         7787 (set IRDMAX)


--------------------------------------------------------------------------------------------------------


 initial charge from wavefunction
 First call to EWALD:  gamma=   0.229
 Maximum number of real-space cells 3x 3x 3
 Maximum number of reciprocal cells 3x 3x 3

    FEWALD:  cpu time    0.0030: real time    0.0036


--------------------------------------- Iteration      1(   1)  ---------------------------------------


    POTLOK:  cpu time    0.1690: real time    0.1962
    SETDIJ:  cpu time    0.8329: real time    0.8391
     EDDAV:  cpu time   28.3617: real time   28.4462
       DOS:  cpu time    0.0030: real time    0.0034
    CHARGE:  cpu time    1.1538: real time    1.1607
    MIXING:  cpu time    0.0020: real time    0.0019
    --------------------------------------------
      LOOP:  cpu time   30.5224: real time   30.6473

 eigenvalue-minimisations  : 20736
 total energy-change (2. order) :-0.2132564E+03  (-0.6422875E-03)
 number of electron     240.0000004 magnetization      -0.0000000
 augmentation part       61.9721917 magnetization       0.0000000

 Broyden mixing:
  rms(total) = 0.44330E-03    rms(broyden)= 0.44170E-03
  rms(prec ) = 0.81901E-03
  weight for this iteration     100.00

 Free energy of the ion-electron system (eV)
  ---------------------------------------------------
  alpha Z        PSCENC =       756.38459714
  Ewald energy   TEWEN  =    -12783.40574204
  -Hartree energ DENC   =     -8249.93233455
  -exchange      EXHF   =         0.00000000
  -V(xc)+E(xc)   XCENC  =      1119.86333776
  PAW double counting   =     18031.18371692   -18154.42781670
  entropy T*S    EENTRO =        -0.00000000
  eigenvalues    EBANDS =     -3235.27541253
  atomic energy  EATOM  =     22302.35321627
  Solvation  Ediel_sol  =         0.00000000
  ---------------------------------------------------
  free energy    TOTEN  =      -213.25643773 eV

  energy without entropy =     -213.25643773  energy(sigma->0) =     -213.25643773


--------------------------------------------------------------------------------------------------------




--------------------------------------- Iteration      1(   2)  ---------------------------------------


    POTLOK:  cpu time    0.1480: real time    0.1603
    SETDIJ:  cpu time    0.8279: real time    0.8362
     EDDAV:  cpu time   26.1850: real time   26.3203
       DOS:  cpu time    0.0040: real time    0.0033
    --------------------------------------------
      LOOP:  cpu time   27.1649: real time   27.3202

 eigenvalue-minimisations  : 18512
 total energy-change (2. order) : 0.3261084E-06  (-0.2277735E-06)
 number of electron     240.0000004 magnetization      -0.0000000
 augmentation part       61.9721917 magnetization       0.0000000

 Free energy of the ion-electron system (eV)
  ---------------------------------------------------
  alpha Z        PSCENC =       756.38459714
  Ewald energy   TEWEN  =    -12783.40574204
  -Hartree energ DENC   =     -8249.93018803
  -exchange      EXHF   =         0.00000000
  -V(xc)+E(xc)   XCENC  =      1119.86304403
  PAW double counting   =     18031.18805431   -18154.43169317
  entropy T*S    EENTRO =        -0.00000000
  eigenvalues    EBANDS =     -3235.27772590
  atomic energy  EATOM  =     22302.35321627
  Solvation  Ediel_sol  =         0.00000000
  ---------------------------------------------------
  free energy    TOTEN  =      -213.25643740 eV

  energy without entropy =     -213.25643740  energy(sigma->0) =     -213.25643740


--------------------------------------------------------------------------------------------------------




 average (electrostatic) potential at core
  the test charge radii are     1.0397  0.7215  0.7167
  (the norm of the test charge is              1.0000)
       1 -59.2030       2 -59.5821       3 -58.9778       4 -58.7525       5 -58.7440
       6 -58.6866       7 -58.6449       8 -58.5067       9 -73.9126      10 -74.3317
      11 -73.9410      12 -73.8854      13 -74.6784      14 -74.1632      15 -74.0056
      16 -73.8583      17 -79.4913      18 -79.6388      19 -79.3014      20 -78.1721
      21 -79.4890      22 -79.6447      23 -79.2956      24 -78.7507      25 -79.8157
      26 -79.8185      27 -78.3594      28 -78.4257      29 -79.0952      30 -78.7057
      31 -78.6105      32 -78.4022
 
 
 
 E-fermi :  -0.3538     XC(G=0):  -8.9617     alpha+bet : -7.6328


 spin component 1

 k-point     1 :       0.1250    0.1250    0.1250
  band No.  band energies     occupation 
      1     -35.5957      1.00000
      2     -35.5806      1.00000
      3     -35.3997      1.00000
      4     -35.2176      1.00000
      5     -35.0712      1.00000
      6     -35.0225      1.00000
      7     -34.9797      1.00000
      8     -34.8432      1.00000
      9     -34.8221      1.00000
     10     -34.8133      1.00000
     11     -34.7903      1.00000
     12     -34.7410      1.00000
     13     -34.6729      1.00000
     14     -34.6314      1.00000
     15     -34.6288      1.00000
     16     -34.5914      1.00000
     17     -34.5672      1.00000
     18     -34.5426      1.00000
     19     -34.5146      1.00000
     20     -34.5048      1.00000
     21     -34.4748      1.00000
     22     -34.3672      1.00000
     23     -34.3469      1.00000
     24     -34.3361      1.00000
     25     -23.7439      1.00000
     26     -23.4604      1.00000
     27     -23.3555      1.00000
     28     -23.2046      1.00000
     29     -23.1647      1.00000
     30     -23.0567      1.00000
     31     -22.9089      1.00000
     32     -22.7569      1.00000
     33     -22.7182      1.00000
     34     -22.4391      1.00000
     35     -22.3342      1.00000
     36     -22.3045      1.00000
     37     -22.1340      1.00000
     38     -22.0641      1.00000
     39     -21.9700      1.00000
     40     -21.7969      1.00000
     41     -17.1295      1.00000
     42     -16.8080      1.00000
     43     -16.6242      1.00000
     44     -16.5752      1.00000
     45     -16.4486      1.00000
     46     -16.4134      1.00000
     47     -16.2597      1.00000
     48     -16.2231      1.00000
     49      -7.3436      1.00000
     50      -7.0882      1.00000
     51      -6.9639      1.00000
     52      -6.7777      1.00000
     53      -6.3934      1.00000
     54      -6.0368      1.00000
     55      -5.9249      1.00000
     56      -5.8838      1.00000
     57      -5.8559      1.00000
     58      -5.8205      1.00000
     59      -5.7547      1.00000
     60      -5.7019      1.00000
     61      -5.6274      1.00000
     62      -5.5786      1.00000
     63      -5.5398      1.00000
     64      -5.5246      1.00000
     65      -5.5130      1.00000
     66      -5.3843      1.00000
     67      -5.3137      1.00000
     68      -5.2847      1.00000
     69      -5.0164      1.00000
     70      -4.8526      1.00000
     71      -4.7266      1.00000
     72      -4.6828      1.00000
     73      -4.6325      1.00000
     74      -4.5841      1.00000
     75      -4.5451      1.00000
     76      -4.5301      1.00000
     77      -4.4752      1.00000
     78      -4.4443      1.00000
     79      -4.3762      1.00000
     80      -4.2941      1.00000
     81      -4.2515      1.00000
     82      -4.1767      1.00000
     83      -3.9306      1.00000
     84      -3.8907      1.00000
     85      -3.8397      1.00000
     86      -3.6954      1.00000
     87      -3.6607      1.00000
     88      -3.6424      1.00000
     89      -3.5883      1.00000
     90      -3.5488      1.00000
     91      -3.5076      1.00000
     92      -3.4547      1.00000
     93      -3.3473      1.00000
     94      -3.3028      1.00000
     95      -3.2457      1.00000
     96      -3.2188      1.00000
     97      -3.0950      1.00000
     98      -3.0509      1.00000
     99      -3.0142      1.00000
    100      -2.9996      1.00000
    101      -2.9692      1.00000
    102      -2.7498      1.00000
    103      -2.6764      1.00000
    104      -2.6150      1.00000
    105      -2.5855      1.00000
    106      -2.4866      1.00000
    107      -2.4499      1.00000
    108      -2.3549      1.00000
    109      -2.2081      1.00000
    110      -2.1600      1.00000
    111      -2.0916      1.00000
    112      -2.0307      1.00000
    113      -1.9619      1.00000
    114      -1.9146      1.00000
    115      -1.8001      1.00000
    116      -1.6113      1.00000
    117      -1.3744      1.00000
    118      -1.3113      1.00000
    119      -0.9449      1.00000
    120      -0.4029      1.00000
    121       1.7349      0.00000
    122       1.7432      0.00000
    123       1.8823      0.00000
    124       1.9418      0.00000
    125       2.1445      0.00000
    126       2.1894      0.00000
    127       2.6282      0.00000
    128       2.6857      0.00000
    129       2.7587      0.00000
    130       2.8006      0.00000
    131       2.8885      0.00000
    132       2.9562      0.00000
    133       3.0569      0.00000
    134       3.1271      0.00000
    135       3.1380      0.00000
    136       3.2142      0.00000
    137       3.2905      0.00000
    138       3.3494      0.00000
    139       3.4146      0.00000
    140       3.5726      0.00000
    141       3.6319      0.00000
    142       3.6449      0.00000
    143       3.6854      0.00000
    144       3.7980      0.00000
    145       3.8826      0.00000
    146       3.9024      0.00000
    147       3.9462      0.00000
    148       4.0877      0.00000
    149       4.1135      0.00000
    150       4.1952      0.00000
    151       4.2803      0.00000
    152       4.4794      0.00000
    153       4.8193      0.00000
    154       5.0699      0.00000
    155       5.2720      0.00000
    156       5.9731      0.00000
    157       6.0147      0.00000
    158       6.1918      0.00000
    159       6.4337      0.00000
    160       6.8445      0.00000

 k-point     2 :       0.3750    0.1250    0.1250
  band No.  band energies     occupation 
      1     -35.5957      1.00000
      2     -35.5787      1.00000
      3     -35.3997      1.00000
      4     -35.2134      1.00000
      5     -35.0712      1.00000
      6     -35.0225      1.00000
      7     -34.9736      1.00000
      8     -34.8432      1.00000
      9     -34.8221      1.00000
     10     -34.8133      1.00000
     11     -34.7952      1.00000
     12     -34.7437      1.00000
     13     -34.6797      1.00000
     14     -34.6314      1.00000
     15     -34.6286      1.00000
     16     -34.5914      1.00000
     17     -34.5635      1.00000
     18     -34.5426      1.00000
     19     -34.5146      1.00000
     20     -34.5048      1.00000
     21     -34.4748      1.00000
     22     -34.3694      1.00000
     23     -34.3488      1.00000
     24     -34.3362      1.00000
     25     -23.7311      1.00000
     26     -23.3592      1.00000
     27     -23.2331      1.00000
     28     -23.2061      1.00000
     29     -23.1776      1.00000
     30     -23.0444      1.00000
     31     -23.0396      1.00000
     32     -22.8540      1.00000
     33     -22.7510      1.00000
     34     -22.4339      1.00000
     35     -22.3332      1.00000
     36     -22.3022      1.00000
     37     -22.1317      1.00000
     38     -22.0629      1.00000
     39     -21.9697      1.00000
     40     -21.7932      1.00000
     41     -17.1293      1.00000
     42     -16.8081      1.00000
     43     -16.6288      1.00000
     44     -16.5750      1.00000
     45     -16.4547      1.00000
     46     -16.4140      1.00000
     47     -16.2640      1.00000
     48     -16.2233      1.00000
     49      -7.3337      1.00000
     50      -6.7330      1.00000
     51      -6.5933      1.00000
     52      -6.4046      1.00000
     53      -6.3772      1.00000
     54      -6.1648      1.00000
     55      -6.0434      1.00000
     56      -5.9938      1.00000
     57      -5.9267      1.00000
     58      -5.8714      1.00000
     59      -5.8387      1.00000
     60      -5.7858      1.00000
     61      -5.7146      1.00000
     62      -5.6450      1.00000
     63      -5.6005      1.00000
     64      -5.5342      1.00000
     65      -5.4935      1.00000
     66      -5.3927      1.00000
     67      -5.1610      1.00000
     68      -5.1167      1.00000
     69      -4.9945      1.00000
     70      -4.8586      1.00000
     71      -4.8315      1.00000
     72      -4.8069      1.00000
     73      -4.7600      1.00000
     74      -4.7108      1.00000
     75      -4.6012      1.00000
     76      -4.5865      1.00000
     77      -4.5509      1.00000
     78      -4.5149      1.00000
     79      -4.4869      1.00000
     80      -4.4169      1.00000
     81      -4.2490      1.00000
     82      -4.1506      1.00000
     83      -3.9576      1.00000
     84      -3.8436      1.00000
     85      -3.7453      1.00000
     86      -3.6862      1.00000
     87      -3.6415      1.00000
     88      -3.6211      1.00000
     89      -3.5473      1.00000
     90      -3.5001      1.00000
     91      -3.4719      1.00000
     92      -3.4422      1.00000
     93      -3.3949      1.00000
     94      -3.3271      1.00000
     95      -3.3027      1.00000
     96      -3.2062      1.00000
     97      -3.1373      1.00000
     98      -3.0899      1.00000
     99      -3.0453      1.00000
    100      -3.0254      1.00000
    101      -2.9853      1.00000
    102      -2.7899      1.00000
    103      -2.7245      1.00000
    104      -2.6506      1.00000
    105      -2.4868      1.00000
    106      -2.4647      1.00000
    107      -2.4437      1.00000
    108      -2.3984      1.00000
    109      -2.2016      1.00000
    110      -2.1373      1.00000
    111      -2.1129      1.00000
    112      -1.9983      1.00000
    113      -1.9346      1.00000
    114      -1.9182      1.00000
    115      -1.7965      1.00000
    116      -1.7087      1.00000
    117      -1.3828      1.00000
    118      -1.3065      1.00000
    119      -1.0565      1.00000
    120      -0.4037      1.00000
    121       1.7379      0.00000
    122       1.9081      0.00000
    123       2.0446      0.00000
    124       2.1418      0.00000
    125       2.1893      0.00000
    126       2.3678      0.00000
    127       2.4672      0.00000
    128       2.5617      0.00000
    129       2.6182      0.00000
    130       2.8056      0.00000
    131       2.9281      0.00000
    132       2.9879      0.00000
    133       3.1477      0.00000
    134       3.1627      0.00000
    135       3.2305      0.00000
    136       3.3880      0.00000
    137       3.4060      0.00000
    138       3.4853      0.00000
    139       3.5751      0.00000
    140       3.6079      0.00000
    141       3.6647      0.00000
    142       3.7002      0.00000
    143       3.7216      0.00000
    144       3.7950      0.00000
    145       3.8566      0.00000
    146       3.9159      0.00000
    147       3.9885      0.00000
    148       4.0260      0.00000
    149       4.0905      0.00000
    150       4.1416      0.00000
    151       4.3905      0.00000
    152       4.5494      0.00000
    153       4.6658      0.00000
    154       5.1739      0.00000
    155       5.4312      0.00000
    156       5.6041      0.00000
    157       5.8948      0.00000
    158       6.2139      0.00000
    159       6.4135      0.00000
    160       6.6224      0.00000

 k-point     3 :      -0.3750    0.1250    0.1250
  band No.  band energies     occupation 
      1     -35.5957      1.00000
      2     -35.5787      1.00000
      3     -35.3997      1.00000
      4     -35.2134      1.00000
      5     -35.0712      1.00000
      6     -35.0225      1.00000
      7     -34.9736      1.00000
      8     -34.8432      1.00000
      9     -34.8221      1.00000
     10     -34.8133      1.00000
     11     -34.7952      1.00000
     12     -34.7437      1.00000
     13     -34.6797      1.00000
     14     -34.6314      1.00000
     15     -34.6286      1.00000
     16     -34.5914      1.00000
     17     -34.5635      1.00000
     18     -34.5426      1.00000
     19     -34.5146      1.00000
     20     -34.5048      1.00000
     21     -34.4748      1.00000
     22     -34.3694      1.00000
     23     -34.3488      1.00000
     24     -34.3362      1.00000
     25     -23.7311      1.00000
     26     -23.3591      1.00000
     27     -23.2331      1.00000
     28     -23.2063      1.00000
     29     -23.1774      1.00000
     30     -23.0443      1.00000
     31     -23.0397      1.00000
     32     -22.8540      1.00000
     33     -22.7510      1.00000
     34     -22.4339      1.00000
     35     -22.3332      1.00000
     36     -22.3022      1.00000
     37     -22.1315      1.00000
     38     -22.0629      1.00000
     39     -21.9697      1.00000
     40     -21.7933      1.00000
     41     -17.1293      1.00000
     42     -16.8081      1.00000
     43     -16.6291      1.00000
     44     -16.5749      1.00000
     45     -16.4543      1.00000
     46     -16.4141      1.00000
     47     -16.2641      1.00000
     48     -16.2233      1.00000
     49      -7.3336      1.00000
     50      -6.7336      1.00000
     51      -6.5931      1.00000
     52      -6.4043      1.00000
     53      -6.3772      1.00000
     54      -6.1644      1.00000
     55      -6.0440      1.00000
     56      -5.9941      1.00000
     57      -5.9223      1.00000
     58      -5.8778      1.00000
     59      -5.8324      1.00000
     60      -5.7856      1.00000
     61      -5.7100      1.00000
     62      -5.6461      1.00000
     63      -5.6012      1.00000
     64      -5.5338      1.00000
     65      -5.4994      1.00000
     66      -5.3922      1.00000
     67      -5.1614      1.00000
     68      -5.1243      1.00000
     69      -4.9953      1.00000
     70      -4.8842      1.00000
     71      -4.8320      1.00000
     72      -4.8048      1.00000
     73      -4.7591      1.00000
     74      -4.7093      1.00000
     75      -4.6058      1.00000
     76      -4.5554      1.00000
     77      -4.5424      1.00000
     78      -4.5127      1.00000
     79      -4.4852      1.00000
     80      -4.4166      1.00000
     81      -4.2491      1.00000
     82      -4.1542      1.00000
     83      -3.9665      1.00000
     84      -3.8600      1.00000
     85      -3.7425      1.00000
     86      -3.6733      1.00000
     87      -3.6464      1.00000
     88      -3.6158      1.00000
     89      -3.5314      1.00000
     90      -3.4884      1.00000
     91      -3.4813      1.00000
     92      -3.4124      1.00000
     93      -3.3833      1.00000
     94      -3.3287      1.00000
     95      -3.2994      1.00000
     96      -3.1997      1.00000
     97      -3.1381      1.00000
     98      -3.0862      1.00000
     99      -3.0618      1.00000
    100      -3.0382      1.00000
    101      -3.0071      1.00000
    102      -2.8123      1.00000
    103      -2.7663      1.00000
    104      -2.6528      1.00000
    105      -2.4885      1.00000
    106      -2.4607      1.00000
    107      -2.4427      1.00000
    108      -2.4246      1.00000
    109      -2.1775      1.00000
    110      -2.1299      1.00000
    111      -2.1091      1.00000
    112      -1.9979      1.00000
    113      -1.9391      1.00000
    114      -1.9097      1.00000
    115      -1.7670      1.00000
    116      -1.6391      1.00000
    117      -1.3898      1.00000
    118      -1.3116      1.00000
    119      -1.1168      1.00000
    120      -0.4041      1.00000
    121       1.7381      0.00000
    122       1.9086      0.00000
    123       2.0555      0.00000
    124       2.1429      0.00000
    125       2.1893      0.00000
    126       2.4098      0.00000
    127       2.4663      0.00000
    128       2.5592      0.00000
    129       2.5981      0.00000
    130       2.8060      0.00000
    131       2.8820      0.00000
    132       2.9858      0.00000
    133       3.1540      0.00000
    134       3.1736      0.00000
    135       3.2493      0.00000
    136       3.3567      0.00000
    137       3.4059      0.00000
    138       3.4760      0.00000
    139       3.5764      0.00000
    140       3.6117      0.00000
    141       3.6728      0.00000
    142       3.6997      0.00000
    143       3.7296      0.00000
    144       3.7906      0.00000
    145       3.8422      0.00000
    146       3.9201      0.00000
    147       4.0081      0.00000
    148       4.0333      0.00000
    149       4.1003      0.00000
    150       4.1499      0.00000
    151       4.3858      0.00000
    152       4.4584      0.00000
    153       4.7455      0.00000
    154       5.1780      0.00000
    155       5.4333      0.00000
    156       5.6021      0.00000
    157       5.8953      0.00000
    158       6.2069      0.00000
    159       6.4058      0.00000
    160       6.6160      0.00000

 k-point     4 :      -0.1250    0.1250    0.1250
  band No.  band energies     occupation 
      1     -35.5957      1.00000
      2     -35.5806      1.00000
      3     -35.3997      1.00000
      4     -35.2176      1.00000
      5     -35.0712      1.00000
      6     -35.0225      1.00000
      7     -34.9797      1.00000
      8     -34.8432      1.00000
      9     -34.8221      1.00000
     10     -34.8133      1.00000
     11     -34.7903      1.00000
     12     -34.7410      1.00000
     13     -34.6729      1.00000
     14     -34.6314      1.00000
     15     -34.6288      1.00000
     16     -34.5914      1.00000
     17     -34.5672      1.00000
     18     -34.5426      1.00000
     19     -34.5146      1.00000
     20     -34.5048      1.00000
     21     -34.4748      1.00000
     22     -34.3672      1.00000
     23     -34.3469      1.00000
     24     -34.3361      1.00000
     25     -23.7439      1.00000
     26     -23.4604      1.00000
     27     -23.3555      1.00000
     28     -23.2047      1.00000
     29     -23.1647      1.00000
     30     -23.0567      1.00000
     31     -22.9089      1.00000
     32     -22.7569      1.00000
     33     -22.7182      1.00000
     34     -22.4392      1.00000
     35     -22.3342      1.00000
     36     -22.3045      1.00000
     37     -22.1338      1.00000
     38     -22.0641      1.00000
     39     -21.9700      1.00000
     40     -21.7969      1.00000
     41     -17.1295      1.00000
     42     -16.8080      1.00000
     43     -16.6244      1.00000
     44     -16.5750      1.00000
     45     -16.4482      1.00000
     46     -16.4135      1.00000
     47     -16.2598      1.00000
     48     -16.2232      1.00000
     49      -7.3434      1.00000
     50      -7.0885      1.00000
     51      -6.9639      1.00000
     52      -6.7776      1.00000
     53      -6.3934      1.00000
     54      -6.0366      1.00000
     55      -5.9237      1.00000
     56      -5.8801      1.00000
     57      -5.8609      1.00000
     58      -5.8186      1.00000
     59      -5.7428      1.00000
     60      -5.7082      1.00000
     61      -5.6283      1.00000
     62      -5.5804      1.00000
     63      -5.5403      1.00000
     64      -5.5222      1.00000
     65      -5.5187      1.00000
     66      -5.3810      1.00000
     67      -5.3191      1.00000
     68      -5.2897      1.00000
     69      -5.0214      1.00000
     70      -4.8523      1.00000
     71      -4.7275      1.00000
     72      -4.6837      1.00000
     73      -4.6397      1.00000
     74      -4.5845      1.00000
     75      -4.5311      1.00000
     76      -4.5284      1.00000
     77      -4.4695      1.00000
     78      -4.4438      1.00000
     79      -4.3754      1.00000
     80      -4.2852      1.00000
     81      -4.2528      1.00000
     82      -4.1748      1.00000
     83      -3.9510      1.00000
     84      -3.8947      1.00000
     85      -3.8711      1.00000
     86      -3.6859      1.00000
     87      -3.6584      1.00000
     88      -3.6195      1.00000
     89      -3.5667      1.00000
     90      -3.5217      1.00000
     91      -3.4786      1.00000
     92      -3.4520      1.00000
     93      -3.3548      1.00000
     94      -3.2982      1.00000
     95      -3.2484      1.00000
     96      -3.2356      1.00000
     97      -3.0929      1.00000
     98      -3.0553      1.00000
     99      -3.0408      1.00000
    100      -3.0022      1.00000
    101      -2.9789      1.00000
    102      -2.7717      1.00000
    103      -2.6894      1.00000
    104      -2.6222      1.00000
    105      -2.5936      1.00000
    106      -2.4881      1.00000
    107      -2.4462      1.00000
    108      -2.3927      1.00000
    109      -2.2349      1.00000
    110      -2.1449      1.00000
    111      -2.0857      1.00000
    112      -2.0037      1.00000
    113      -1.9283      1.00000
    114      -1.8466      1.00000
    115      -1.7987      1.00000
    116      -1.6090      1.00000
    117      -1.3820      1.00000
    118      -1.3169      1.00000
    119      -0.9865      1.00000
    120      -0.4032      1.00000
    121       1.7367      0.00000
    122       1.7420      0.00000
    123       1.8887      0.00000
    124       1.9427      0.00000
    125       2.1673      0.00000
    126       2.1896      0.00000
    127       2.6266      0.00000
    128       2.6690      0.00000
    129       2.7580      0.00000
    130       2.8006      0.00000
    131       2.9018      0.00000
    132       2.9597      0.00000
    133       3.0528      0.00000
    134       3.1095      0.00000
    135       3.1337      0.00000
    136       3.2150      0.00000
    137       3.2701      0.00000
    138       3.3569      0.00000
    139       3.3987      0.00000
    140       3.5751      0.00000
    141       3.6255      0.00000
    142       3.6594      0.00000
    143       3.6903      0.00000
    144       3.7984      0.00000
    145       3.8826      0.00000
    146       3.9076      0.00000
    147       3.9554      0.00000
    148       4.0953      0.00000
    149       4.1246      0.00000
    150       4.1926      0.00000
    151       4.2634      0.00000
    152       4.4756      0.00000
    153       4.8311      0.00000
    154       5.0679      0.00000
    155       5.2772      0.00000
    156       5.9684      0.00000
    157       6.0146      0.00000
    158       6.1911      0.00000
    159       6.4328      0.00000
    160       6.8380      0.00000

 k-point     5 :       0.1250    0.3750    0.1250
  band No.  band energies     occupation 
      1     -35.5927      1.00000
      2     -35.5806      1.00000
      3     -35.3997      1.00000
      4     -35.2176      1.00000
      5     -35.0709      1.00000
      6     -35.0164      1.00000
      7     -34.9797      1.00000
      8     -34.8489      1.00000
      9     -34.8261      1.00000
     10     -34.8144      1.00000
     11     -34.7903      1.00000
     12     -34.7410      1.00000
     13     -34.6729      1.00000
     14     -34.6307      1.00000
     15     -34.6288      1.00000
     16     -34.5803      1.00000
     17     -34.5671      1.00000
     18     -34.5395      1.00000
     19     -34.5117      1.00000
     20     -34.5088      1.00000
     21     -34.4819      1.00000
     22     -34.3706      1.00000
     23     -34.3499      1.00000
     24     -34.3372      1.00000
     25     -23.6358      1.00000
     26     -23.4465      1.00000
     27     -23.3544      1.00000
     28     -23.3355      1.00000
     29     -23.1651      1.00000
     30     -23.0565      1.00000
     31     -22.9087      1.00000
     32     -22.7553      1.00000
     33     -22.7182      1.00000
     34     -22.4336      1.00000
     35     -22.3329      1.00000
     36     -22.3015      1.00000
     37     -22.1384      1.00000
     38     -22.0485      1.00000
     39     -21.9720      1.00000
     40     -21.7967      1.00000
     41     -17.1327      1.00000
     42     -16.8252      1.00000
     43     -16.6254      1.00000
     44     -16.5842      1.00000
     45     -16.4904      1.00000
     46     -16.3928      1.00000
     47     -16.2628      1.00000
     48     -16.2305      1.00000
     49      -7.1145      1.00000
     50      -6.9608      1.00000
     51      -6.9234      1.00000
     52      -6.7714      1.00000
     53      -6.3943      1.00000
     54      -6.3193      1.00000
     55      -5.9443      1.00000
     56      -5.8541      1.00000
     57      -5.8180      1.00000
     58      -5.7039      1.00000
     59      -5.6691      1.00000
     60      -5.6357      1.00000
     61      -5.5609      1.00000
     62      -5.5050      1.00000
     63      -5.4053      1.00000
     64      -5.3844      1.00000
     65      -5.3442      1.00000
     66      -5.3068      1.00000
     67      -5.2197      1.00000
     68      -5.1424      1.00000
     69      -5.0538      1.00000
     70      -5.0165      1.00000
     71      -4.9000      1.00000
     72      -4.8077      1.00000
     73      -4.7061      1.00000
     74      -4.6312      1.00000
     75      -4.5601      1.00000
     76      -4.5121      1.00000
     77      -4.4573      1.00000
     78      -4.4383      1.00000
     79      -4.2994      1.00000
     80      -4.2673      1.00000
     81      -4.1919      1.00000
     82      -4.1249      1.00000
     83      -4.0167      1.00000
     84      -3.9561      1.00000
     85      -3.8842      1.00000
     86      -3.8639      1.00000
     87      -3.8118      1.00000
     88      -3.7103      1.00000
     89      -3.6379      1.00000
     90      -3.5930      1.00000
     91      -3.5648      1.00000
     92      -3.4982      1.00000
     93      -3.4085      1.00000
     94      -3.3443      1.00000
     95      -3.2868      1.00000
     96      -3.2515      1.00000
     97      -3.2127      1.00000
     98      -3.1608      1.00000
     99      -3.1182      1.00000
    100      -3.0535      1.00000
    101      -2.9745      1.00000
    102      -2.8593      1.00000
    103      -2.7663      1.00000
    104      -2.6466      1.00000
    105      -2.6032      1.00000
    106      -2.5703      1.00000
    107      -2.4277      1.00000
    108      -2.2996      1.00000
    109      -2.2391      1.00000
    110      -2.1590      1.00000
    111      -2.1120      1.00000
    112      -2.0708      1.00000
    113      -1.9905      1.00000
    114      -1.8364      1.00000
    115      -1.7304      1.00000
    116      -1.4400      1.00000
    117      -1.3937      1.00000
    118      -1.3369      1.00000
    119      -0.9484      1.00000
    120      -0.6404      1.00000
    121       1.7412      0.00000
    122       1.9548      0.00000
    123       2.0482      0.00000
    124       2.1448      0.00000
    125       2.2624      0.00000
    126       2.5269      0.00000
    127       2.6079      0.00000
    128       2.6235      0.00000
    129       2.6463      0.00000
    130       2.7013      0.00000
    131       2.9068      0.00000
    132       3.1152      0.00000
    133       3.1266      0.00000
    134       3.1589      0.00000
    135       3.2179      0.00000
    136       3.2337      0.00000
    137       3.3025      0.00000
    138       3.3183      0.00000
    139       3.4287      0.00000
    140       3.5598      0.00000
    141       3.6097      0.00000
    142       3.6659      0.00000
    143       3.7724      0.00000
    144       3.8227      0.00000
    145       3.8837      0.00000
    146       3.9465      0.00000
    147       3.9792      0.00000
    148       4.0645      0.00000
    149       4.1707      0.00000
    150       4.2524      0.00000
    151       4.2871      0.00000
    152       4.5498      0.00000
    153       4.8754      0.00000
    154       5.1652      0.00000
    155       5.5536      0.00000
    156       5.7644      0.00000
    157       5.9114      0.00000
    158       6.2056      0.00000
    159       6.4823      0.00000
    160       6.6822      0.00000

 k-point     6 :       0.3750    0.3750    0.1250
  band No.  band energies     occupation 
      1     -35.5927      1.00000
      2     -35.5787      1.00000
      3     -35.3997      1.00000
      4     -35.2134      1.00000
      5     -35.0709      1.00000
      6     -35.0164      1.00000
      7     -34.9736      1.00000
      8     -34.8489      1.00000
      9     -34.8261      1.00000
     10     -34.8144      1.00000
     11     -34.7952      1.00000
     12     -34.7437      1.00000
     13     -34.6797      1.00000
     14     -34.6307      1.00000
     15     -34.6285      1.00000
     16     -34.5803      1.00000
     17     -34.5634      1.00000
     18     -34.5395      1.00000
     19     -34.5117      1.00000
     20     -34.5087      1.00000
     21     -34.4819      1.00000
     22     -34.3722      1.00000
     23     -34.3522      1.00000
     24     -34.3374      1.00000
     25     -23.6071      1.00000
     26     -23.3859      1.00000
     27     -23.3126      1.00000
     28     -23.2321      1.00000
     29     -23.1768      1.00000
     30     -23.0464      1.00000
     31     -23.0372      1.00000
     32     -22.8540      1.00000
     33     -22.7497      1.00000
     34     -22.4288      1.00000
     35     -22.3319      1.00000
     36     -22.2993      1.00000
     37     -22.1358      1.00000
     38     -22.0476      1.00000
     39     -21.9716      1.00000
     40     -21.7930      1.00000
     41     -17.1325      1.00000
     42     -16.8252      1.00000
     43     -16.6306      1.00000
     44     -16.5838      1.00000
     45     -16.4935      1.00000
     46     -16.3962      1.00000
     47     -16.2665      1.00000
     48     -16.2310      1.00000
     49      -6.9465      1.00000
     50      -6.7279      1.00000
     51      -6.5901      1.00000
     52      -6.3948      1.00000
     53      -6.3815      1.00000
     54      -6.3189      1.00000
     55      -6.1649      1.00000
     56      -5.9923      1.00000
     57      -5.9490      1.00000
     58      -5.8215      1.00000
     59      -5.7976      1.00000
     60      -5.6705      1.00000
     61      -5.6649      1.00000
     62      -5.5935      1.00000
     63      -5.3983      1.00000
     64      -5.3812      1.00000
     65      -5.3592      1.00000
     66      -5.1931      1.00000
     67      -5.0890      1.00000
     68      -5.0480      1.00000
     69      -4.9616      1.00000
     70      -4.9114      1.00000
     71      -4.8637      1.00000
     72      -4.8294      1.00000
     73      -4.7467      1.00000
     74      -4.6958      1.00000
     75      -4.6717      1.00000
     76      -4.6291      1.00000
     77      -4.6110      1.00000
     78      -4.5621      1.00000
     79      -4.5034      1.00000
     80      -4.3999      1.00000
     81      -4.2325      1.00000
     82      -4.0724      1.00000
     83      -4.0368      1.00000
     84      -3.9830      1.00000
     85      -3.8851      1.00000
     86      -3.8360      1.00000
     87      -3.7576      1.00000
     88      -3.6911      1.00000
     89      -3.6654      1.00000
     90      -3.6346      1.00000
     91      -3.5782      1.00000
     92      -3.5034      1.00000
     93      -3.4491      1.00000
     94      -3.3526      1.00000
     95      -3.2911      1.00000
     96      -3.2678      1.00000
     97      -3.2466      1.00000
     98      -3.1681      1.00000
     99      -3.0914      1.00000
    100      -3.0654      1.00000
    101      -2.9838      1.00000
    102      -2.8657      1.00000
    103      -2.7722      1.00000
    104      -2.7097      1.00000
    105      -2.6189      1.00000
    106      -2.4590      1.00000
    107      -2.4230      1.00000
    108      -2.3951      1.00000
    109      -2.2471      1.00000
    110      -2.1918      1.00000
    111      -2.0935      1.00000
    112      -2.0441      1.00000
    113      -1.9474      1.00000
    114      -1.8259      1.00000
    115      -1.7318      1.00000
    116      -1.4436      1.00000
    117      -1.3886      1.00000
    118      -1.2940      1.00000
    119      -1.0598      1.00000
    120      -0.6408      1.00000
    121       1.9077      0.00000
    122       1.9559      0.00000
    123       2.1254      0.00000
    124       2.3571      0.00000
    125       2.3747      0.00000
    126       2.4660      0.00000
    127       2.5274      0.00000
    128       2.6129      0.00000
    129       2.6843      0.00000
    130       2.7040      0.00000
    131       2.9389      0.00000
    132       3.0710      0.00000
    133       3.1404      0.00000
    134       3.1828      0.00000
    135       3.2230      0.00000
    136       3.2647      0.00000
    137       3.3193      0.00000
    138       3.5256      0.00000
    139       3.6275      0.00000
    140       3.6641      0.00000
    141       3.7069      0.00000
    142       3.7672      0.00000
    143       3.8222      0.00000
    144       3.8552      0.00000
    145       3.8943      0.00000
    146       3.9645      0.00000
    147       4.0298      0.00000
    148       4.1015      0.00000
    149       4.1735      0.00000
    150       4.2736      0.00000
    151       4.4288      0.00000
    152       4.5782      0.00000
    153       4.7570      0.00000
    154       4.9985      0.00000
    155       5.3547      0.00000
    156       5.5849      0.00000
    157       5.7422      0.00000
    158       6.1490      0.00000
    159       6.4153      0.00000
    160       6.8247      0.00000

 k-point     7 :      -0.3750    0.3750    0.1250
  band No.  band energies     occupation 
      1     -35.5927      1.00000
      2     -35.5787      1.00000
      3     -35.3997      1.00000
      4     -35.2134      1.00000
      5     -35.0709      1.00000
      6     -35.0164      1.00000
      7     -34.9736      1.00000
      8     -34.8489      1.00000
      9     -34.8261      1.00000
     10     -34.8144      1.00000
     11     -34.7952      1.00000
     12     -34.7437      1.00000
     13     -34.6797      1.00000
     14     -34.6307      1.00000
     15     -34.6285      1.00000
     16     -34.5803      1.00000
     17     -34.5635      1.00000
     18     -34.5395      1.00000
     19     -34.5117      1.00000
     20     -34.5087      1.00000
     21     -34.4819      1.00000
     22     -34.3722      1.00000
     23     -34.3522      1.00000
     24     -34.3374      1.00000
     25     -23.6072      1.00000
     26     -23.3858      1.00000
     27     -23.3127      1.00000
     28     -23.2321      1.00000
     29     -23.1768      1.00000
     30     -23.0463      1.00000
     31     -23.0373      1.00000
     32     -22.8540      1.00000
     33     -22.7497      1.00000
     34     -22.4289      1.00000
     35     -22.3319      1.00000
     36     -22.2992      1.00000
     37     -22.1357      1.00000
     38     -22.0477      1.00000
     39     -21.9716      1.00000
     40     -21.7930      1.00000
     41     -17.1325      1.00000
     42     -16.8253      1.00000
     43     -16.6310      1.00000
     44     -16.5834      1.00000
     45     -16.4934      1.00000
     46     -16.3961      1.00000
     47     -16.2666      1.00000
     48     -16.2311      1.00000
     49      -6.9455      1.00000
     50      -6.7301      1.00000
     51      -6.5899      1.00000
     52      -6.3947      1.00000
     53      -6.3806      1.00000
     54      -6.3190      1.00000
     55      -6.1638      1.00000
     56      -5.9924      1.00000
     57      -5.9496      1.00000
     58      -5.8151      1.00000
     59      -5.7998      1.00000
     60      -5.6766      1.00000
     61      -5.6586      1.00000
     62      -5.5897      1.00000
     63      -5.3984      1.00000
     64      -5.3805      1.00000
     65      -5.3590      1.00000
     66      -5.2045      1.00000
     67      -5.0935      1.00000
     68      -5.0646      1.00000
     69      -4.9607      1.00000
     70      -4.9119      1.00000
     71      -4.8846      1.00000
     72      -4.8253      1.00000
     73      -4.7224      1.00000
     74      -4.6946      1.00000
     75      -4.6694      1.00000
     76      -4.6261      1.00000
     77      -4.6076      1.00000
     78      -4.5448      1.00000
     79      -4.5060      1.00000
     80      -4.3963      1.00000
     81      -4.2377      1.00000
     82      -4.0750      1.00000
     83      -4.0355      1.00000
     84      -3.9887      1.00000
     85      -3.8874      1.00000
     86      -3.8421      1.00000
     87      -3.7366      1.00000
     88      -3.7161      1.00000
     89      -3.6693      1.00000
     90      -3.6366      1.00000
     91      -3.5699      1.00000
     92      -3.4991      1.00000
     93      -3.3787      1.00000
     94      -3.3539      1.00000
     95      -3.2899      1.00000
     96      -3.2610      1.00000
     97      -3.2437      1.00000
     98      -3.1839      1.00000
     99      -3.0997      1.00000
    100      -3.0586      1.00000
    101      -3.0207      1.00000
    102      -2.8795      1.00000
    103      -2.7911      1.00000
    104      -2.7446      1.00000
    105      -2.6205      1.00000
    106      -2.4553      1.00000
    107      -2.4334      1.00000
    108      -2.4129      1.00000
    109      -2.2294      1.00000
    110      -2.1830      1.00000
    111      -2.0921      1.00000
    112      -2.0451      1.00000
    113      -1.9421      1.00000
    114      -1.7907      1.00000
    115      -1.6616      1.00000
    116      -1.4423      1.00000
    117      -1.3896      1.00000
    118      -1.3070      1.00000
    119      -1.1168      1.00000
    120      -0.6418      1.00000
    121       1.9083      0.00000
    122       1.9563      0.00000
    123       2.1397      0.00000
    124       2.3640      0.00000
    125       2.4111      0.00000
    126       2.4644      0.00000
    127       2.5276      0.00000
[...]
  0.000  -0.000   0.000   0.000  -0.000   0.000   0.000   0.000   0.000  -0.000   0.000  -0.000   0.000   0.000   0.000  -0.000
  0.000   0.000  -0.000   0.000  -0.000   0.000   0.000   0.000  -0.000   0.000  -0.000   0.000  -0.000   0.000  -0.000   0.000
 -0.000   0.000  -0.000   0.000   0.000   0.000   0.000  -0.000  -0.000  -0.000   0.000  -0.000  -0.000   0.000   0.000  -0.000
  0.000   0.000  -0.000   0.000  -0.000  -0.000   0.000  -0.000  -0.000   0.000  -0.000  -0.000   0.000   0.000  -0.000   0.000
  0.000   0.000  -0.000  -0.000   0.000  -0.000  -0.000  -0.000  -0.000   0.000   0.000   0.000   0.000   0.000  -0.000   0.000
 -0.000   0.000  -0.000  -0.000  -0.000   0.000  -0.000  -0.000  -0.000   0.000  -0.000   0.000  -0.000  -0.000   0.000   0.000
 -0.000  -0.000   0.000  -0.000   0.000  -0.000  -0.000  -0.000   0.000  -0.000   0.000  -0.000   0.000   0.000   0.000  -0.000
 -0.000  -0.000   0.000   0.000   0.000  -0.000  -0.000   0.000   0.000  -0.000   0.000  -0.000   0.000  -0.000  -0.000  -0.000
 -0.000  -0.000   0.000   0.000   0.000  -0.000  -0.000   0.000   0.000  -0.000  -0.000   0.000  -0.000  -0.000   0.000  -0.000


------------------------ aborting loop because EDIFF is reached ----------------------------------------


 


 total charge     
 
# of ion       s       p       d       tot
------------------------------------------
    1        0.318   6.464   1.759   8.541
    2        0.320   6.480   1.789   8.589
    3        0.318   6.462   1.761   8.541
    4        0.316   6.457   1.791   8.564
    5        0.317   6.460   1.780   8.558
    6        0.316   6.459   1.790   8.565
    7        0.317   6.462   1.776   8.556
    8        0.318   6.451   1.722   8.490
    9        1.568   3.454   0.000   5.022
   10        1.570   3.467   0.000   5.037
   11        1.569   3.472   0.000   5.041
   12        1.570   3.467   0.000   5.036
   13        1.572   3.470   0.000   5.042
   14        1.571   3.473   0.000   5.044
   15        1.570   3.477   0.000   5.047
   16        1.571   3.472   0.000   5.043
   17        1.729   4.387   0.000   6.116
   18        1.730   4.387   0.000   6.117
   19        1.730   4.388   0.000   6.117
   20        1.728   4.365   0.000   6.092
   21        1.730   4.387   0.000   6.117
   22        1.729   4.386   0.000   6.115
   23        1.729   4.386   0.000   6.116
   24        1.728   4.373   0.000   6.101
   25        1.731   4.395   0.000   6.126
   26        1.730   4.392   0.000   6.123
   27        1.728   4.372   0.000   6.101
   28        1.728   4.372   0.000   6.100
   29        1.729   4.378   0.000   6.107
   30        1.729   4.376   0.000   6.105
   31        1.729   4.377   0.000   6.106
   32        1.729   4.376   0.000   6.105
--------------------------------------------------
tot         42.770 149.543  14.168 206.481
 


 magnetization (x)
 
# of ion       s       p       d       tot
------------------------------------------
    1        0.000  -0.000  -0.000  -0.000
    2       -0.000  -0.000   0.000   0.000
    3        0.000  -0.000  -0.000  -0.000
    4       -0.000  -0.000   0.000  -0.000
    5        0.000  -0.000  -0.000  -0.000
    6        0.000   0.000  -0.000  -0.000
    7        0.000  -0.000  -0.000  -0.000
    8       -0.000  -0.000  -0.000  -0.000
    9        0.000   0.000   0.000   0.000
   10        0.000   0.000   0.000   0.000
   11        0.000  -0.000   0.000  -0.000
   12        0.000   0.000   0.000   0.000
   13       -0.000   0.000   0.000   0.000
   14        0.000   0.000   0.000   0.000
   15       -0.000   0.000   0.000   0.000
   16       -0.000   0.000   0.000   0.000
   17       -0.000   0.000   0.000   0.000
   18       -0.000   0.000   0.000   0.000
   19       -0.000   0.000   0.000   0.000
   20        0.000   0.000   0.000   0.000
   21       -0.000   0.000   0.000   0.000
   22       -0.000   0.000   0.000   0.000
   23       -0.000   0.000   0.000   0.000
   24       -0.000   0.000   0.000   0.000
   25       -0.000  -0.000   0.000  -0.000
   26       -0.000   0.000   0.000  -0.000
   27        0.000   0.000   0.000   0.000
   28       -0.000   0.000   0.000   0.000
   29       -0.000  -0.000   0.000  -0.000
   30       -0.000   0.000   0.000   0.000
   31       -0.000  -0.000   0.000  -0.000
   32       -0.000  -0.000   0.000  -0.000
--------------------------------------------------
tot         -0.000   0.000  -0.000   0.000
 
    CHARGE:  cpu time    1.1818: real time    1.1888
    FORLOC:  cpu time    0.0090: real time    0.0100
    FORNL :  cpu time    6.7840: real time    6.8497
    STRESS:  cpu time   20.2579: real time   20.4503
    FORCOR:  cpu time    0.1460: real time    0.1457
    FORHAR:  cpu time    0.0210: real time    0.0213
    MIXING:  cpu time    0.0020: real time    0.0015
    OFIELD:  cpu time    0.0000: real time    0.0000

  FORCE on cell =-STRESS in cart. coord.  units (eV):
  Direction    XX          YY          ZZ          XY          YZ          ZX
  --------------------------------------------------------------------------------------
  Alpha Z   756.38460   756.38460   756.38460
  Ewald   -4288.33698 -4252.15594 -4242.96793    -3.65016   -26.35963    -7.89523
  Hartree  2737.51267  2754.87611  2757.53233    -1.23235    -7.58512    -2.16632
  E(xc)   -1232.22761 -1232.49097 -1232.63934     0.00340     0.06168     0.01697
  Local   -2101.33130 -2184.32815 -2210.61682     5.03479    35.69323    10.63416
  n-local  -972.60536  -966.79269  -964.29715    -0.19052    -1.40488    -0.43775
  augment   748.68464   758.42544   763.37269    -0.10560    -1.30860    -0.40076
  Kinetic  4351.91713  4366.07803  4373.22090     0.14000     0.90722     0.24860
  Fock        0.00000     0.00000     0.00000     0.00000     0.00000     0.00000
  -------------------------------------------------------------------------------------
  Total      -0.00221    -0.00357    -0.01072    -0.00043     0.00389    -0.00033
  in kB      -0.00765    -0.01237    -0.03710    -0.00148     0.01347    -0.00115
  external pressure =       -0.02 kB  Pullay stress =        0.00 kB


 VOLUME and BASIS-vectors are now :
 -----------------------------------------------------------------------------
  energy-cutoff  :      700.00
  volume of cell :      462.95
      direct lattice vectors                 reciprocal lattice vectors
     7.820994861 -0.000810225  0.001313577     0.127860977  0.000013287 -0.000022669
    -0.000801241  7.717864816  0.004283209     0.000013435  0.129569557 -0.000073102
     0.001359348  0.004326990  7.669594680    -0.000021906 -0.000072362  0.130385031

  length of vectors
     7.820995014  7.717866046  7.669596021     0.127860979  0.129569578  0.130385053


 FORCES acting on ions
    electron-ion (+dipol)            ewald-force                    non-local-force                 convergence-correction
 -----------------------------------------------------------------------------------------------
   0.373E+00 0.193E+01 0.701E+01   -.386E+00 -.265E+01 -.803E+01   0.153E-01 0.710E+00 0.103E+01   -.935E-04 0.470E-02 -.324E-02
   0.798E+01 0.119E+02 -.204E+01   -.790E+01 -.118E+02 0.238E+01   -.790E-01 -.111E+00 -.333E+00   0.497E-03 0.255E-02 -.374E-03
   0.506E+01 -.107E+02 0.719E+01   -.502E+01 0.117E+02 -.631E+01   -.445E-01 -.107E+01 -.875E+00   0.263E-02 -.280E-02 -.385E-03
   0.681E+01 -.130E+02 0.650E-01   -.760E+01 0.129E+02 -.128E+01   0.780E+00 0.164E+00 0.122E+01   0.501E-02 -.240E-02 -.613E-03
   0.597E-01 0.515E+01 0.311E+01   -.353E-01 -.407E+01 -.196E+01   -.214E-01 -.108E+01 -.114E+01   -.841E-03 -.153E-02 -.367E-03
   -.693E+01 0.176E+01 -.214E+01   0.685E+01 -.266E+01 0.925E+00   0.868E-01 0.903E+00 0.122E+01   -.191E-02 -.736E-03 0.152E-02
   -.692E+01 -.295E+01 -.617E+01   0.685E+01 0.173E+01 0.525E+01   0.754E-01 0.122E+01 0.905E+00   -.124E-02 0.157E-02 0.286E-02
   -.134E+02 -.237E+01 0.532E+01   0.144E+02 0.351E+01 -.419E+01   -.980E+00 -.114E+01 -.113E+01   -.321E-02 -.135E-03 0.238E-03
   0.470E+02 0.265E+01 -.180E+01   -.512E+02 -.334E+01 0.201E+01   0.422E+01 0.689E+00 -.215E+00   0.431E-02 -.113E-02 -.615E-03
   0.169E+01 0.275E+02 0.578E+01   -.174E+01 -.304E+02 -.641E+01   0.473E-01 0.285E+01 0.632E+00   0.707E-03 0.430E-02 -.283E-03
   -.200E+01 -.110E+02 -.743E+00   0.205E+01 0.121E+02 0.803E+00   -.416E-01 -.110E+01 -.620E-01   -.128E-03 0.189E-02 -.408E-03
   0.200E+01 0.318E+02 -.328E+01   -.266E+01 -.344E+02 0.370E+01   0.658E+00 0.265E+01 -.421E+00   -.198E-02 0.231E-02 -.361E-03
   0.296E+01 -.611E+01 -.471E+02   -.308E+01 0.753E+01 0.516E+02   0.122E+00 -.143E+01 -.458E+01   0.613E-03 0.223E-02 0.552E-02
   -.923E+01 0.373E+01 -.184E+02   0.109E+02 -.471E+01 0.205E+02   -.171E+01 0.979E+00 -.211E+01   0.176E-02 -.281E-02 0.584E-02
   -.177E+01 0.161E+01 -.346E+01   0.180E+01 -.158E+01 0.383E+01   -.291E-01 -.236E-01 -.369E+00   0.135E-03 -.603E-05 0.855E-03
   0.244E+01 -.429E+01 0.245E+02   -.320E+01 0.461E+01 -.265E+02   0.757E+00 -.312E+00 0.193E+01   -.301E-02 0.136E-03 0.213E-02
   -.144E+02 0.327E+00 0.448E+01   0.162E+02 0.148E+00 -.513E+01   -.173E+01 -.476E+00 0.657E+00   -.206E-02 0.337E-03 0.200E-03
   -.360E+02 -.527E+01 0.414E+01   0.395E+02 0.717E+01 -.530E+01   -.355E+01 -.190E+01 0.116E+01   0.372E-02 0.104E-02 0.989E-03
   -.994E+01 -.428E+01 0.937E+00   0.112E+02 0.454E+01 -.122E+01   -.127E+01 -.257E+00 0.285E+00   0.332E-02 -.621E-03 -.273E-03
   -.957E+01 0.506E+00 0.120E+01   0.830E+01 -.137E+01 -.127E+01   0.127E+01 0.860E+00 0.677E-01   -.431E-02 -.122E-02 -.101E-02
   0.143E+02 0.219E+00 0.454E+01   -.161E+02 0.248E+00 -.519E+01   0.176E+01 -.469E+00 0.649E+00   0.321E-02 0.166E-03 0.326E-03
   0.364E+02 -.709E+01 0.416E+01   -.401E+02 0.904E+01 -.537E+01   0.369E+01 -.195E+01 0.121E+01   -.207E-02 0.112E-02 0.565E-03
   0.106E+02 -.400E+01 0.212E+01   -.117E+02 0.423E+01 -.243E+01   0.116E+01 -.236E+00 0.307E+00   -.447E-02 -.559E-03 -.102E-02
   0.200E+01 0.495E+00 0.615E+01   -.206E+01 -.171E+01 -.705E+01   0.537E-01 0.122E+01 0.903E+00   0.868E-03 -.456E-02 -.474E-03
   -.103E+02 -.307E+02 0.674E+01   0.132E+02 0.338E+02 -.845E+01   -.289E+01 -.313E+01 0.172E+01   0.162E-02 0.545E-02 0.878E-03
   -.112E+02 0.316E+02 0.616E+01   0.141E+02 -.347E+02 -.778E+01   -.283E+01 0.311E+01 0.162E+01   0.127E-02 -.534E-02 0.101E-03
   -.148E-01 -.147E+02 -.870E+00   -.785E+00 0.147E+02 0.116E+01   0.798E+00 -.173E-01 -.297E+00   -.247E-02 -.164E-02 -.521E-03
   -.194E+01 0.204E+01 -.146E+00   0.196E+01 -.180E+01 0.257E+00   -.261E-01 -.244E+00 -.115E+00   -.217E-03 -.176E-02 -.497E-03
   0.249E+01 -.672E+01 0.748E+01   -.257E+01 0.869E+01 -.570E+01   0.854E-01 -.196E+01 -.177E+01   0.591E-03 0.258E-02 -.285E-02
   -.793E+01 0.159E+01 -.354E+01   0.101E+02 -.269E+01 0.476E+01   -.215E+01 0.111E+01 -.122E+01   0.199E-02 -.236E-02 -.518E-02
   -.221E+01 0.213E+01 -.241E+00   0.224E+01 -.204E+01 0.473E+00   -.289E-01 -.862E-01 -.231E+00   0.255E-03 0.289E-04 -.137E-02
   0.246E+01 -.300E+01 -.119E+02   -.347E+01 0.327E+01 0.119E+02   0.101E+01 -.268E+00 0.888E-02   -.288E-02 0.592E-03 -.418E-02
 -----------------------------------------------------------------------------------------------
   0.780E+00 0.795E+00 -.644E+00   0.844E-14 -.950E-13 0.533E-14   -.781E+00 -.799E+00 0.646E+00   0.161E-02 0.138E-02 -.200E-02
 
 
 POSITION                                       TOTAL-FORCE (eV/Angst)
 -----------------------------------------------------------------------------------
      0.00080      7.59219      7.63196         0.001971     -0.001412      0.005908
      0.00731      0.01285      3.98035         0.002618      0.001377      0.004860
      0.00626      3.92433      0.11938        -0.000811     -0.003357      0.000966
      7.67081      3.86075      3.76156        -0.000724     -0.001719      0.001709
      3.91134      0.11826      0.10092         0.002164      0.000447     -0.001189
      3.91128      7.59529      3.74407         0.001659      0.001575     -0.000987
      3.91220      3.77539      7.55187        -0.002270     -0.000019     -0.004828
      3.96553      3.93276      3.91046        -0.004400      0.001296     -0.003771
      5.88595      3.85440      3.83576        -0.002623     -0.000771     -0.001725
      7.82169      5.80306      7.67394         0.000088     -0.001081      0.001321
      3.91540      1.93230      7.66700         0.002411      0.000077     -0.002544
      3.90356      5.80477      3.84031        -0.002351      0.001243     -0.002393
      7.81941      0.01762      5.73973         0.000767      0.001782      0.005925
      0.01047      3.84777      1.91045         0.000456     -0.004811      0.001825
      3.91328      7.71740      1.91926         0.003066      0.000693     -0.000794
      3.90013      3.86423      5.75974        -0.006781      0.001040     -0.003864
      1.94151      0.01066      7.66866         0.001402     -0.001054      0.002716
      1.92874      0.02699      3.82707         0.002008      0.000389      0.004793
      1.94849      3.86566      7.66282        -0.000810      0.000123     -0.001336
      1.92911      3.84568      3.83754        -0.001867     -0.000630     -0.004520
      5.88353      0.00980      7.66971         0.002088     -0.001507      0.003024
      5.90324      0.03001      3.82568         0.000951      0.000983      0.003104
      5.88107      3.86458      7.66151        -0.001495      0.000696     -0.004777
      7.82178      1.91813      7.66602         0.000145     -0.001056     -0.000145
      0.03850      1.91348      3.81852         0.001831      0.000531      0.005581
      0.03849      5.82048      3.82222         0.000148     -0.001296      0.001934
      3.89427      1.90736      3.84273        -0.004474      0.000859     -0.003703
      3.91511      5.80406      7.66612         0.002725      0.000301     -0.003802
      7.81906      0.03352      1.94409         0.001167      0.003826      0.002750
      0.03370      3.83267      5.75688         0.001769     -0.002480     -0.000801
      3.91483      7.72026      5.75670         0.004722      0.000812     -0.000825
      3.88404      3.86777      1.89853        -0.005548      0.003140     -0.004411
 -----------------------------------------------------------------------------------
    total drift:                                0.000380     -0.003157     -0.000116


--------------------------------------------------------------------------------------------------------



  FREE ENERGIE OF THE ION-ELECTRON SYSTEM (eV)
  ---------------------------------------------------
  free  energy   TOTEN  =      -213.25643740 eV

  energy  without entropy=     -213.25643740  energy(sigma->0) =     -213.25643740
 


--------------------------------------------------------------------------------------------------------


    POTLOK:  cpu time    0.9649: real time    0.9714


--------------------------------------------------------------------------------------------------------


 stress matrix after NEB project (eV)
     -0.00221     -0.00043     -0.00033
     -0.00043     -0.00357      0.00389
     -0.00034      0.00389     -0.01072
  FORCES: max atom, RMS     0.007874    0.004601
  FORCE total and by dimension    0.026026    0.006781
  Stress total and by dimension    0.012785    0.010719
 Quasi-Newton relaxation of ions (Broydens 2nd method)
  g(Force)  = 0.327E-04   g(Stress)= 0.246E-06

 Reset! Starting new Quasi-Newton update for ions 


--------------------------------------------------------------------------------------------------------


  
 reached required accuracy - stopping structural energy minimisation
 writing wavefunctions
     LOOP+:  cpu time  118.9789: real time  120.7684
    4ORBIT:  cpu time    0.0000: real time    0.0000
 


 total charge     
 
# of ion       s       p       d       tot
------------------------------------------
    1        0.318   6.464   1.759   8.541
    2        0.320   6.480   1.789   8.589
    3        0.318   6.462   1.761   8.541
    4        0.316   6.457   1.791   8.564
    5        0.317   6.460   1.780   8.558
    6        0.316   6.459   1.790   8.565
    7        0.317   6.462   1.776   8.556
    8        0.318   6.451   1.722   8.490
    9        1.568   3.454   0.000   5.022
   10        1.570   3.467   0.000   5.037
   11        1.569   3.472   0.000   5.041
   12        1.570   3.467   0.000   5.036
   13        1.572   3.470   0.000   5.042
   14        1.571   3.473   0.000   5.044
   15        1.570   3.477   0.000   5.047
   16        1.571   3.472   0.000   5.043
   17        1.729   4.387   0.000   6.116
   18        1.730   4.387   0.000   6.117
   19        1.730   4.388   0.000   6.117
   20        1.728   4.365   0.000   6.092
   21        1.730   4.387   0.000   6.117
   22        1.729   4.386   0.000   6.115
   23        1.729   4.386   0.000   6.116
   24        1.728   4.373   0.000   6.101
   25        1.731   4.395   0.000   6.126
   26        1.730   4.392   0.000   6.123
   27        1.728   4.372   0.000   6.101
   28        1.728   4.372   0.000   6.100
   29        1.729   4.378   0.000   6.107
   30        1.729   4.376   0.000   6.105
   31        1.729   4.377   0.000   6.106
   32        1.729   4.376   0.000   6.105
--------------------------------------------------
tot         42.770 149.543  14.168 206.481
 


 magnetization (x)
 
# of ion       s       p       d       tot
------------------------------------------
    1        0.000  -0.000  -0.000  -0.000
    2       -0.000  -0.000   0.000   0.000
    3        0.000  -0.000  -0.000  -0.000
    4       -0.000  -0.000   0.000  -0.000
    5        0.000  -0.000  -0.000  -0.000
    6        0.000   0.000  -0.000  -0.000
    7        0.000  -0.000  -0.000  -0.000
    8       -0.000  -0.000  -0.000  -0.000
    9        0.000   0.000   0.000   0.000
   10        0.000   0.000   0.000   0.000
   11        0.000  -0.000   0.000  -0.000
   12        0.000   0.000   0.000   0.000
   13       -0.000   0.000   0.000   0.000
   14        0.000   0.000   0.000   0.000
   15       -0.000   0.000   0.000   0.000
   16       -0.000   0.000   0.000   0.000
   17       -0.000   0.000   0.000   0.000
   18       -0.000   0.000   0.000   0.000
   19       -0.000   0.000   0.000   0.000
   20        0.000   0.000   0.000   0.000
   21       -0.000   0.000   0.000   0.000
   22       -0.000   0.000   0.000   0.000
   23       -0.000   0.000   0.000   0.000
   24       -0.000   0.000   0.000   0.000
   25       -0.000  -0.000   0.000  -0.000
   26       -0.000   0.000   0.000  -0.000
   27        0.000   0.000   0.000   0.000
   28       -0.000   0.000   0.000   0.000
   29       -0.000  -0.000   0.000  -0.000
   30       -0.000   0.000   0.000   0.000
   31       -0.000  -0.000   0.000  -0.000
   32       -0.000  -0.000   0.000  -0.000
--------------------------------------------------
tot         -0.000   0.000  -0.000   0.000
 

 total amount of memory used by VASP MPI-rank0   107024. kBytes
=======================================================================

   base      :      30000. kBytes
   nonlr-proj:       8575. kBytes
   fftplans  :       8424. kBytes
   grid      :       8783. kBytes
   one-center:        124. kBytes
   wavefun   :      51118. kBytes
 
  
  
 General timing and accounting informations for this job:
 ========================================================
  
                  Total CPU time used (sec):      168.992
                            User time (sec):      155.055
                          System time (sec):       13.937
                         Elapsed time (sec):      180.639
  
                   Maximum memory used (kb):      222748.
                   Average memory used (kb):           0.
  
                          Minor page faults:        86158
                          Major page faults:            2
                 Voluntary context switches:        65113
