 vasp.5.4.4.18Apr17-6-g9f103f2a35 (build Jul 16 2019 12:12:28) complex          
  
 executed on             LinuxIFC date 2020.01.06  13:17:25
 running on   96 total cores
 distrk:  each k-point on   96 cores,    1 groups
 distr:  one band on NCORES_PER_BAND=   8 cores,   12 groups


--------------------------------------------------------------------------------------------------------


 INCAR:
 POTCAR:    PAW_PBE Li_sv 10Sep2004               
 POTCAR:    PAW_PBE Ti_pv 07Sep2000               
 POTCAR:    PAW_PBE O 08Apr2002                   
 POTCAR:    PAW_PBE F 08Apr2002                   
 POTCAR:    PAW_PBE Li_sv 10Sep2004               
   VRHFIN =Li: 1s2s2p                                                           
   LEXCH  = PE                                                                  
   EATOM  =   202.7858 eV,   14.9043 Ry                                         
                                                                                
   TITEL  = PAW_PBE Li_sv 10Sep2004                                             
   LULTRA =        F    use ultrasoft PP ?                                      
   IUNSCR =        0    unscreen: 0-lin 1-nonlin 2-no                           
   RPACOR =    0.000    partial core radius                                     
   POMASS =    7.010; ZVAL   =    3.000    mass and valenz                      
   RCORE  =    1.700    outmost cutoff radius                                   
   RWIGS  =    2.050; RWIGS  =    1.085    wigner-seitz radius (au A)           
   ENMAX  =  499.034; ENMIN  =  374.276 eV                                      
   ICORE  =        2    local potential                                         
   LCOR   =        T    correct aug charges                                     
   LPAW   =        T    paw PP                                                  
   EAUG   =  628.945                                                            
   RMAX   =    1.732    core radius for proj-oper                               
   RAUG   =    1.300    factor for augmentation sphere                          
   RDEP   =    1.728    radius for radial grids                                 
   RDEPT  =    1.329    core radius for aug-charge                              
                                                                                
   Atomic configuration                                                         
    4 entries                                                                   
     n  l   j            E        occ.                                          
     1  0  0.50       -51.8549   2.0000                                         
     2  0  0.50        -2.8742   1.0000                                         
     2  1  0.50        -1.3606   0.0000                                         
     3  2  1.50        -1.3606   0.0000                                         
   Description                                                                  
     l       E           TYP  RCUT    TYP  RCUT                                 
     0    -51.8548813     23  1.400                                             
     0     -2.8742052     23  1.700                                             
     1     -1.3605826     23  1.400                                             
     2     -1.3605826     23  1.400                                             
  local pseudopotential read in
  atomic valenz-charges read in
  non local Contribution for L=           0  read in
    real space projection operators read in
  non local Contribution for L=           0  read in
    real space projection operators read in
  non local Contribution for L=           1  read in
    real space projection operators read in
    PAW grid and wavefunctions read in
 
   number of l-projection  operators is LMAX  =           3
   number of lm-projection operators is LMMAX =           5
 
 POTCAR:    PAW_PBE Ti_pv 07Sep2000               
   VRHFIN =Ti: d3 s1                                                            
   LEXCH  = PE                                                                  
   EATOM  =  1042.5995 eV,   76.6289 Ry                                         
                                                                                
   TITEL  = PAW_PBE Ti_pv 07Sep2000                                             
   LULTRA =        F    use ultrasoft PP ?                                      
   IUNSCR =        1    unscreen: 0-lin 1-nonlin 2-no                           
   RPACOR =    2.200    partial core radius                                     
   POMASS =   47.880; ZVAL   =   10.000    mass and valenz                      
   RCORE  =    2.500    outmost cutoff radius                                   
   RWIGS  =    2.500; RWIGS  =    1.323    wigner-seitz radius (au A)           
   ENMAX  =  222.335; ENMIN  =  166.751 eV                                      
   RCLOC  =    1.701    cutoff for local pot                                    
   LCOR   =        T    correct aug charges                                     
   LPAW   =        T    paw PP                                                  
   EAUG   =  482.848                                                            
   DEXC   =    0.000                                                            
   RMAX   =    2.564    core radius for proj-oper                               
   RAUG   =    1.300    factor for augmentation sphere                          
   RDEP   =    2.538    radius for radial grids                                 
   RDEPT  =    1.952    core radius for aug-charge                              
                                                                                
   Atomic configuration                                                         
    8 entries                                                                   
     n  l   j            E        occ.                                          
     1  0  0.50     -4865.3608   2.0000                                         
     2  0  0.50      -533.1368   2.0000                                         
     2  1  1.50      -440.5031   6.0000                                         
     3  0  0.50       -59.3186   2.0000                                         
     3  1  1.50       -35.7012   6.0000                                         
     3  2  2.50        -1.9157   3.0000                                         
     4  0  0.50        -3.7291   1.0000                                         
     4  3  2.50        -1.3606   0.0000                                         
   Description                                                                  
     l       E           TYP  RCUT    TYP  RCUT                                 
     1    -35.7012140     23  2.300                                             
     1     -1.3605826     23  2.300                                             
     2     -1.9156996     23  2.500                                             
     2     -0.4063033     23  2.500                                             
     0     -3.7290856     23  2.500                                             
     0     20.4087390     23  2.500                                             
  local pseudopotential read in
  partial core-charges read in
  partial kinetic energy density read in
  atomic valenz-charges read in
  non local Contribution for L=           1  read in
    real space projection operators read in
  non local Contribution for L=           1  read in
    real space projection operators read in
  non local Contribution for L=           2  read in
    real space projection operators read in
  non local Contribution for L=           2  read in
    real space projection operators read in
  non local Contribution for L=           0  read in
    real space projection operators read in
  non local Contribution for L=           0  read in
    real space projection operators read in
    PAW grid and wavefunctions read in
 
   number of l-projection  operators is LMAX  =           6
   number of lm-projection operators is LMMAX =          18
 
 POTCAR:    PAW_PBE O 08Apr2002                   
   VRHFIN =O: s2p4                                                              
   LEXCH  = PE                                                                  
   EATOM  =   432.3788 eV,   31.7789 Ry                                         
                                                                                
   TITEL  = PAW_PBE O 08Apr2002                                                 
   LULTRA =        F    use ultrasoft PP ?                                      
   IUNSCR =        1    unscreen: 0-lin 1-nonlin 2-no                           
   RPACOR =    1.200    partial core radius                                     
   POMASS =   16.000; ZVAL   =    6.000    mass and valenz                      
   RCORE  =    1.520    outmost cutoff radius                                   
   RWIGS  =    1.550; RWIGS  =    0.820    wigner-seitz radius (au A)           
   ENMAX  =  400.000; ENMIN  =  300.000 eV                                      
   ICORE  =        2    local potential                                         
   LCOR   =        T    correct aug charges                                     
   LPAW   =        T    paw PP                                                  
   EAUG   =  605.392                                                            
   DEXC   =    0.000                                                            
   RMAX   =    1.553    core radius for proj-oper                               
   RAUG   =    1.300    factor for augmentation sphere                          
   RDEP   =    1.550    radius for radial grids                                 
   RDEPT  =    1.329    core radius for aug-charge                              
                                                                                
   Atomic configuration                                                         
    4 entries                                                                   
     n  l   j            E        occ.                                          
     1  0  0.50      -514.6923   2.0000                                         
     2  0  0.50       -23.9615   2.0000                                         
     2  1  0.50        -9.0305   4.0000                                         
     3  2  1.50        -9.5241   0.0000                                         
   Description                                                                  
     l       E           TYP  RCUT    TYP  RCUT                                 
     0    -23.9615318     23  1.200                                             
     0     -9.5240782     23  1.200                                             
     1     -9.0304911     23  1.520                                             
     1      8.1634956     23  1.520                                             
     2     -9.5240782      7  1.500                                             
  local pseudopotential read in
  partial core-charges read in
  partial kinetic energy density read in
  kinetic energy density of atom read in
  atomic valenz-charges read in
  non local Contribution for L=           0  read in
    real space projection operators read in
  non local Contribution for L=           0  read in
    real space projection operators read in
  non local Contribution for L=           1  read in
    real space projection operators read in
  non local Contribution for L=           1  read in
    real space projection operators read in
    PAW grid and wavefunctions read in
 
   number of l-projection  operators is LMAX  =           4
   number of lm-projection operators is LMMAX =           8
 
 POTCAR:    PAW_PBE F 08Apr2002                   
   VRHFIN =F: s2p5                                                              
   LEXCH  = PE                                                                  
   EATOM  =   659.6475 eV,   48.4827 Ry                                         
                                                                                
   TITEL  = PAW_PBE F 08Apr2002                                                 
   LULTRA =        F    use ultrasoft PP ?                                      
   IUNSCR =        1    unscreen: 0-lin 1-nonlin 2-no                           
   RPACOR =    1.200    partial core radius                                     
   POMASS =   18.998; ZVAL   =    7.000    mass and valenz                      
   RCORE  =    1.520    outmost cutoff radius                                   
   RWIGS  =    1.500; RWIGS  =    0.794    wigner-seitz radius (au A)           
   ENMAX  =  400.000; ENMIN  =  300.000 eV                                      
   ICORE  =        2    local potential                                         
   LCOR   =        T    correct aug charges                                     
   LPAW   =        T    paw PP                                                  
   EAUG   =  613.614                                                            
   RMAX   =    1.555    core radius for proj-oper                               
   RAUG   =    1.300    factor for augmentation sphere                          
   RDEP   =    1.539    radius for radial grids                                 
   RDEPT  =    1.299    core radius for aug-charge                              
                                                                                
   Atomic configuration                                                         
    4 entries                                                                   
     n  l   j            E        occ.                                          
     1  0  0.50      -663.3661   2.0000                                         
     2  0  0.50       -29.8995   2.0000                                         
     2  1  0.50       -11.1114   5.0000                                         
     3  2  1.50       -10.8847   0.0000                                         
   Description                                                                  
     l       E           TYP  RCUT    TYP  RCUT                                 
     0    -29.8995018     23  1.200                                             
     0     -9.5240782     23  1.200                                             
     1    -11.1113914     23  1.520                                             
     1      1.3605826     23  1.520                                             
     2    -10.8846608      7  1.500                                             
  local pseudopotential read in
  partial core-charges read in
  partial kinetic energy density read in
  atomic valenz-charges read in
  non local Contribution for L=           0  read in
    real space projection operators read in
  non local Contribution for L=           0  read in
    real space projection operators read in
  non local Contribution for L=           1  read in
    real space projection operators read in
  non local Contribution for L=           1  read in
    real space projection operators read in
    PAW grid and wavefunctions read in
 
   number of l-projection  operators is LMAX  =           4
   number of lm-projection operators is LMMAX =           8
 
 Optimization of the real space projectors (new method)

 maximal supplied QI-value         = 22.11
 optimisation between [QCUT,QGAM] = [ 11.28, 22.77] = [ 35.61,145.23] Ry 
 Optimized for a Real-space Cutoff    1.31 Angstroem

   l    n(q)    QCUT    max X(q) W(low)/X(q) W(high)/X(q)  e(spline) 
   0      9    11.276    10.506    0.19E-04    0.17E-04    0.32E-07
   0      9    11.276     8.367    0.38E-04    0.40E-04    0.65E-07
   1      8    11.276     8.983    0.55E-04    0.98E-04    0.20E-06
 Optimization of the real space projectors (new method)

 maximal supplied QI-value         = 15.12
 optimisation between [QCUT,QGAM] = [ 11.34, 22.83] = [ 36.00,145.93] Ry 
 Optimized for a Real-space Cutoff    1.56 Angstroem

   l    n(q)    QCUT    max X(q) W(low)/X(q) W(high)/X(q)  e(spline) 
   1     10    11.338     4.216    0.27E-04    0.12E-04    0.66E-07
   1     10    11.338     5.422    0.81E-04    0.24E-04    0.19E-06
   2     10    11.338    72.084    0.64E-04    0.21E-03    0.51E-06
   2     10    11.338    65.965    0.63E-04    0.21E-03    0.50E-06
   0     11    11.338    41.531    0.33E-04    0.54E-04    0.13E-06
   0     11    11.338    16.290    0.26E-04    0.41E-04    0.11E-06
 Optimization of the real space projectors (new method)

 maximal supplied QI-value         = 24.76
 optimisation between [QCUT,QGAM] = [ 11.39, 22.77] = [ 36.31,145.25] Ry 
 Optimized for a Real-space Cutoff    1.20 Angstroem

   l    n(q)    QCUT    max X(q) W(low)/X(q) W(high)/X(q)  e(spline) 
   0      8    11.387    20.381    0.89E-04    0.31E-03    0.27E-06
   0      8    11.387    15.268    0.93E-04    0.32E-03    0.29E-06
   1      8    11.387     5.964    0.53E-04    0.28E-03    0.29E-06
   1      8    11.387     5.382    0.37E-04    0.22E-03    0.26E-06
 Optimization of the real space projectors (new method)

 maximal supplied QI-value         = 24.76
 optimisation between [QCUT,QGAM] = [ 11.39, 22.77] = [ 36.31,145.25] Ry 
 Optimized for a Real-space Cutoff    1.20 Angstroem

   l    n(q)    QCUT    max X(q) W(low)/X(q) W(high)/X(q)  e(spline) 
   0      8    11.387    14.049    0.69E-04    0.23E-03    0.18E-06
   0      8    11.387     8.945    0.88E-04    0.30E-03    0.26E-06
   1      8    11.387     7.086    0.62E-04    0.27E-03    0.27E-06
   1      8    11.387     6.747    0.46E-04    0.23E-03    0.25E-06

 ----------------------------------------------------------------------------- 
|                                                                             |
|  ADVICE TO THIS USER RUNNING 'VASP/VAMP'   (HEAR YOUR MASTER'S VOICE ...):  |
|                                                                             |
|      You enforced a specific xc-type in the INCAR file,                     |
|      a different type was found on the POTCAR file                          |
|          I HOPE YOU KNOW, WHAT YOU ARE  DOING                               |
|                                                                             |
 ----------------------------------------------------------------------------- 

  PAW_PBE Li_sv 10Sep2004               :
 energy of atom  1       EATOM= -202.7858
 kinetic energy error for atom=    0.0143 (will be added to EATOM!!)
  PAW_PBE Ti_pv 07Sep2000               :
 energy of atom  2       EATOM=-1042.5995
 kinetic energy error for atom=    0.0024 (will be added to EATOM!!)
  PAW_PBE O 08Apr2002                   :
 energy of atom  3       EATOM= -432.3788
 kinetic energy error for atom=    0.0224 (will be added to EATOM!!)
  PAW_PBE F 08Apr2002                   :
 energy of atom  4       EATOM= -659.6475
 kinetic energy error for atom=    0.0354 (will be added to EATOM!!)
 
 
 POSCAR: config 01                               
  positions in direct lattice
  velocities in cartesian coordinates
 exchange correlation table for  LEXCH =       14
   RHO(1)=    0.500       N(1)  =     2000
   RHO(2)=  100.500       N(2)  =     4000

 VTST: version 3.2, (02/03/18)

 CHAIN: initializing optimizer
 
 OPT: Using VASP QUASI-newton optimizer
 CHAIN: Read ICHAIN            0
 
 POSCAR: config 01                               
  positions in direct lattice
  velocities in cartesian coordinates
 


--------------------------------------------------------------------------------------------------------


 ion  position               nearest neighbor table
   1  0.123  0.051  0.122- 171 1.92 130 1.95  91 1.98  75 2.00  42 2.86  10 2.86  34 2.88
   2  0.991  0.995  0.990- 118 1.85  68 1.85 103 1.86 212 2.05 171 2.07 130 2.07
   3  1.000  0.993  0.494-  67 1.81 119 1.81 172 1.95 193 1.96 131 2.00 213 2.08
   4  0.006  0.496  0.998-  89 1.83 117 1.87 138 1.93 132 1.98 214 2.02 194 2.02
   5  0.994  0.503  0.507-  66 1.83 104 1.84 215 1.93 223 2.00 173 2.01 137 2.03
   6  0.496  0.994  1.000- 101 1.83 121 1.84 140 1.95 133 1.96 174 2.01 216 2.02
   7  0.501  0.008  0.500- 112 1.77 191 1.91 139 1.92 134 1.92 175 1.94 225 2.02
   8  0.504  0.496  0.996- 120 1.88  70 1.88  90 1.89 192 2.03 135 2.03 217 2.05
   9  0.492  0.499  0.495- 102 1.81  69 1.86 224 1.97 218 1.99 136 2.01 176 2.06
  10  0.006  0.005  0.258-  91 1.78  67 1.86 219 1.97 227 1.98 197 2.06 130 2.08   1 2.86
  11  0.001  0.009  0.754-  68 1.80 113 1.83 177 1.94 198 1.99 131 2.02 228 2.05
  12  0.994  0.494  0.251- 107 1.83 122 1.86 137 1.93 132 1.97 220 2.01 178 2.02
  13  0.993  0.500  0.742- 108 1.82  66 1.83 226 1.93 221 1.96 138 2.02 179 2.04
  14  0.508  0.009  0.250- 114 1.82  92 1.84 133 1.93 195 1.96 139 1.97 231 2.06
  15  0.492  0.005  0.752- 105 1.81 115 1.84 140 1.94 134 2.00 232 2.01 180 2.03
  16  0.493  0.496  0.257-  69 1.83 106 1.84 229 1.96 222 2.00 135 2.02 181 2.05
  17  0.501  0.504  0.758-  70 1.80 116 1.87 182 1.95 196 1.97 230 2.04 136 2.06
  18  0.995  0.258  0.001- 117 1.81 110 1.88 146 1.97 141 1.97 183 2.01 212 2.03
  19  0.998  0.249  0.492-  74 1.77 213 1.91 184 1.93 202 1.93 223 1.94 142 2.02
  20  0.998  0.758  0.007- 118 1.82  71 1.84 203 1.95 185 1.97 148 2.05 214 2.05
  21  0.998  0.757  0.506- 119 1.83  72 1.83 204 1.94 186 1.96 215 2.02 147 2.02
  22  0.495  0.258  0.001- 120 1.80 109 1.85 150 1.96 143 1.97 187 2.03 216 2.06
  23  0.508  0.246  0.498-  93 1.80 112 1.90 144 1.92 149 1.94 224 1.97 199 2.00
  24  0.508  0.756  0.999-  94 1.82 121 1.84 152 1.94 145 1.98 217 2.01 200 2.02
  25  0.507  0.753  0.509-  73 1.79  95 1.83 225 1.96 218 1.96 201 2.01 151 2.07
  26  0.999  0.259  0.255- 122 1.79  74 1.89 209 1.95 188 1.96 141 2.00 219 2.02
  27  0.006  0.243  0.747- 113 1.81  96 1.83 142 1.96 146 1.97 226 2.04 210 2.05
  28  0.007  0.749  0.244-  97 1.82  71 1.83 220 1.95 227 1.98 147 2.04 211 2.06
  29  0.993  0.751  0.744- 111 1.83  72 1.84 228 1.93 221 1.98 189 2.02 148 2.02
  30  0.508  0.242  0.251- 114 1.82  98 1.83 143 1.93 149 1.96 229 2.01 205 2.03
  31  0.506  0.243  0.750-  99 1.84 115 1.85 150 1.93 144 1.97 206 2.01 230 2.02
  32  0.507  0.751  0.252- 100 1.79 151 1.92 231 1.93 145 1.94 222 1.94 207 2.00
  33  0.502  0.742  0.744- 116 1.81  73 1.84 190 1.93 208 1.97 152 2.02 232 2.06
  34  0.259  0.999  0.005-  75 1.82 101 1.84 246 1.94 233 1.98 157 2.04 171 2.09   1 2.88
  35  0.250  0.994  0.508- 128 1.82  76 1.84 172 1.95 191 1.99 156 2.02 234 2.02
  36  0.244  0.508  0.997- 123 1.82  89 1.85 159 1.94 153 1.97 192 2.01 245 2.04
  37  0.254  0.495  0.507-  77 1.86 102 1.88 127 1.88 173 2.03 235 2.04 158 2.05
  38  0.755  0.001  0.993- 103 1.80  81 1.86 236 1.95 249 1.96 174 2.02 154 2.05
  39  0.751  0.007  0.494-  80 1.83 124 1.84 193 1.93 175 1.99 155 2.00 250 2.02
  40  0.742  0.501  0.005-  90 1.80  78 1.87 237 1.95 247 1.96 161 2.03 194 2.05
  41  0.755  0.498  0.505-  79 1.84 104 1.85 248 1.95 238 1.98 176 2.01 160 2.02
  42  0.251  0.004  0.248-  75 1.96 156 2.01 239 2.01  91 2.03 252 2.03 195 2.05   1 2.86
  43  0.257  0.998  0.745-  76 1.84 105 1.84 253 1.93 240 1.97 157 2.02 177 2.02
  44  0.255  0.491  0.252- 129 1.83 106 1.84 158 1.93 153 1.97 241 2.04 178 2.04
  45  0.247  0.507  0.742-  77 1.79 125 1.84 179 1.95 196 1.98 251 2.03 159 2.06
  46  0.746  0.001  0.255-  92 1.84  80 1.87 256 1.95 242 1.96 197 1.98 154 2.00
  47  0.748  0.006  0.755-  81 1.83 126 1.83 180 1.94 198 1.97 257 2.03 155 2.05
  48  0.756  0.498  0.243-  78 1.81 107 1.86 243 1.95 254 1.96 181 2.02 160 2.05
  49  0.757  0.498  0.743- 108 1.83  79 1.84 255 1.94 244 1.98 182 2.03 161 2.03
  50  0.257  0.251  0.006- 109 1.83  82 1.86 245 1.93 233 1.98 168 2.02 183 2.06
  51  0.253  0.257  0.506- 127 1.81  83 1.86 199 1.96 184 2.01 167 2.02 234 2.04
  52  0.252  0.743  0.994- 123 1.82  86 1.83 200 1.94 185 1.96 162 2.03 246 2.05
  53  0.252  0.756  0.493-  85 1.82 128 1.87 201 1.95 186 1.97 235 2.00 163 2.05
  54  0.757  0.251  0.008- 110 1.81  84 1.85 236 1.94 247 1.94 187 2.03 170 2.04
  55  0.743  0.243  0.497- 124 1.82  93 1.84 169 1.93 164 1.96 248 2.01 202 2.03
  56  0.742  0.750  0.994-  94 1.82  88 1.83 237 1.94 249 1.95 203 2.01 165 2.04
  57  0.742  0.752  0.494-  95 1.82  87 1.86 250 1.94 238 1.96 166 2.01 204 2.03
  58  0.251  0.257  0.243- 129 1.83  82 1.84 239 1.96 205 1.98 188 2.02 167 2.04
  59  0.244  0.251  0.744-  83 1.83  96 1.85 251 1.93 240 1.98 168 2.03 206 2.04
  60  0.244  0.748  0.256-  97 1.84  85 1.85 252 1.92 241 1.94 162 2.03 207 2.07
  61  0.248  0.743  0.757- 125 1.81  86 1.84 189 1.93 208 1.98 163 2.03 253 2.04
  62  0.742  0.251  0.243-  84 1.80  98 1.83 254 1.94 242 1.95 209 2.04 169 2.06
  63  0.744  0.242  0.751- 126 1.82  99 1.84 170 1.94 164 2.00 210 2.01 255 2.04
  64  0.746  0.750  0.257-  87 1.82 100 1.89 243 1.94 256 1.95 211 1.98 165 2.02
  65  0.757  0.751  0.757- 111 1.82  88 1.84 257 1.93 244 1.97 190 2.02 166 2.05
  66  0.009  0.502  0.625-  13 1.83   5 1.83
  67  0.995  0.008  0.378-   3 1.81  10 1.86
  68  0.998  0.003  0.871-  11 1.80   2 1.85
  69  0.499  0.493  0.376-  16 1.83   9 1.86
  70  0.493  0.498  0.875-  17 1.80   8 1.88
  71  0.998  0.746  0.126-  28 1.83  20 1.84
  72  0.001  0.746  0.624-  21 1.83  29 1.84
  73  0.501  0.756  0.625-  25 1.79  33 1.84
  74  0.993  0.247  0.377-  19 1.77  26 1.89
  75  0.248  0.015  0.121-  34 1.82  42 1.96   1 2.00
  76  0.256  0.008  0.627-  43 1.84  35 1.84
  77  0.238  0.500  0.627-  45 1.79  37 1.86
  78  0.751  0.491  0.126-  48 1.81  40 1.87
  79  0.746  0.493  0.624-  49 1.84  41 1.84
  80  0.753  0.999  0.376-  39 1.83  46 1.87
  81  0.745  0.997  0.873-  47 1.83  38 1.86
  82  0.242  0.243  0.125-  58 1.84  50 1.86
  83  0.251  0.246  0.626-  59 1.83  51 1.86
  84  0.739  0.258  0.126-  62 1.80  54 1.85
  85  0.255  0.750  0.375-  53 1.82  60 1.85
  86  0.251  0.758  0.876-  52 1.83  61 1.84
  87  0.752  0.753  0.374-  64 1.82  57 1.86
  88  0.747  0.754  0.875-  56 1.83  65 1.84
  89  0.124  0.504  0.994-   4 1.83  36 1.85
  90  0.626  0.507  0.998-  40 1.80   8 1.89
  91  0.120  0.017  0.245-  10 1.78   1 1.98  42 2.03
  92  0.627  0.006  0.250-  14 1.84  46 1.84
  93  0.624  0.257  0.492-  23 1.80  55 1.84
  94  0.625  0.741  0.005-  56 1.82  24 1.82
  95  0.625  0.763  0.497-  57 1.82  25 1.83
  96  0.124  0.250  0.751-  27 1.83  59 1.85
  97  0.125  0.746  0.252-  28 1.82  60 1.84
  98  0.626  0.241  0.265-  30 1.83  62 1.83
  99  0.625  0.252  0.749-  31 1.84  63 1.84
 100  0.624  0.750  0.250-  32 1.79  64 1.89
 101  0.378  1.000  0.991-   6 1.83  34 1.84
 102  0.375  0.505  0.505-   9 1.81  37 1.88
 103  0.871  0.003  1.000-  38 1.80   2 1.86
 104  0.875  0.501  0.500-   5 1.84  41 1.85
 105  0.376  0.996  0.760-  15 1.81  43 1.84
 106  0.374  0.491  0.249-  16 1.84  44 1.84
 107  0.876  0.494  0.253-  12 1.83  48 1.86
 108  0.875  0.509  0.746-  13 1.82  49 1.83
 109  0.376  0.247  0.007-  50 1.83  22 1.85
 110  0.874  0.247  0.009-  54 1.81  18 1.88
 111  0.875  0.744  0.750-  65 1.82  29 1.83
 112  0.510  0.122  0.497-   7 1.77  23 1.90
 113  0.994  0.127  0.741-  27 1.81  11 1.83
 114  0.491  0.126  0.262-  30 1.82  14 1.82
 115  0.500  0.123  0.746-  15 1.84  31 1.85
 116  0.501  0.625  0.749-  33 1.81  17 1.87
 117  1.000  0.375  0.005-  18 1.81   4 1.87
 118  0.002  0.876  0.001-  20 1.82   2 1.85
 119  0.998  0.875  0.498-   3 1.81  21 1.83
 120  0.502  0.374  0.008-  22 1.80   8 1.88
 121  0.506  0.875  0.003-   6 1.84  24 1.84
 122  0.011  0.374  0.247-  26 1.79  12 1.86
 123  0.256  0.626  0.996-  52 1.82  36 1.82
 124  0.742  0.125  0.504-  55 1.82  39 1.84
 125  0.248  0.625  0.755-  61 1.81  45 1.84
 126  0.752  0.125  0.744-  63 1.82  47 1.83
 127  0.251  0.373  0.499-  51 1.81  37 1.88
 128  0.252  0.876  0.505-  35 1.82  53 1.87
 129  0.238  0.374  0.252-  44 1.83  58 1.83
 130  0.004  0.009  0.124-   1 1.95   2 2.07  10 2.08
 131  0.005  0.996  0.624-   3 2.00  11 2.02
 132  0.000  0.510  0.125-  12 1.97   4 1.98
 133  0.495  0.008  0.126-  14 1.93   6 1.96
 134  0.495  0.993  0.623-   7 1.92  15 2.00
 135  0.502  0.509  0.127-  16 2.02   8 2.03
 136  0.509  0.499  0.625-   9 2.01  17 2.06
 137  0.004  0.495  0.376-  12 1.93   5 2.03
 138  0.994  0.497  0.873-   4 1.93  13 2.02
 139  0.507  0.991  0.377-   7 1.92  14 1.97
 140  0.518  0.002  0.875-  15 1.94   6 1.95
 141  0.012  0.244  0.127-  18 1.97  26 2.00
 142  0.001  0.261  0.622-  27 1.96  19 2.02
 143  0.513  0.238  0.126-  30 1.93  22 1.97
 144  0.497  0.248  0.623-  23 1.92  31 1.97
 145  0.495  0.746  0.127-  32 1.94  24 1.98
 146  0.992  0.250  0.874-  18 1.97  27 1.97
 147  0.994  0.752  0.375-  21 2.02  28 2.04
 148  0.002  0.752  0.874-  29 2.02  20 2.05
 149  0.489  0.263  0.375-  23 1.94  30 1.96
 150  0.498  0.251  0.875-  31 1.93  22 1.96
 151  0.494  0.754  0.376-  32 1.92  25 2.07
 152  0.500  0.750  0.874-  24 1.94  33 2.02
 153  0.244  0.499  0.125-  36 1.97  44 1.97
 154  0.749  0.005  0.126-  46 2.00  38 2.05
 155  0.745  0.996  0.623-  39 2.00  47 2.05
 156  0.250  0.998  0.378-  42 2.01  35 2.02
 157  0.240  0.989  0.875-  43 2.02  34 2.04
 158  0.248  0.508  0.376-  44 1.93  37 2.05
 159  0.261  0.493  0.874-  36 1.94  45 2.06
 160  0.747  0.508  0.375-  41 2.02  48 2.05
 161  0.753  0.506  0.874-  40 2.03  49 2.03
 162  0.253  0.749  0.125-  52 2.03  60 2.03
 163  0.249  0.748  0.626-  61 2.03  53 2.05
 164  0.749  0.261  0.623-  55 1.96  63 2.00
 165  0.754  0.748  0.126-  64 2.02  56 2.04
 166  0.748  0.748  0.624-  57 2.01  65 2.05
 167  0.253  0.250  0.375-  51 2.02  58 2.04
 168  0.254  0.257  0.875-  50 2.02  59 2.03
 169  0.766  0.243  0.374-  55 1.93  62 2.06
 170  0.755  0.245  0.876-  63 1.94  54 2.04
 171  0.124  0.006  0.005-   1 1.92   2 2.07  34 2.09
 172  0.125  0.007  0.500-  35 1.95   3 1.95
 173  0.124  0.502  0.492-   5 2.01  37 2.03
 174  0.625  0.002  0.009-   6 2.01  38 2.02
 175  0.624  0.983  0.503-   7 1.94  39 1.99
 176  0.625  0.492  0.498-  41 2.01   9 2.06
 177  0.127  0.003  0.747-  11 1.94  43 2.02
 178  0.124  0.511  0.250-  12 2.02  44 2.04
 179  0.123  0.493  0.764-  45 1.95  13 2.04
 180  0.623  0.995  0.740-  47 1.94  15 2.03
 181  0.625  0.503  0.250-  48 2.02  16 2.05
 182  0.626  0.492  0.756-  17 1.95  49 2.03
 183  0.124  0.250  0.992-  18 2.01  50 2.06
 184  0.123  0.244  0.498-  19 1.93  51 2.01
 185  0.125  0.745  0.002-  52 1.96  20 1.97
 186  0.124  0.749  0.496-  21 1.96  53 1.97
 187  0.626  0.251  0.991-  54 2.03  22 2.03
 188  0.124  0.232  0.258-  26 1.96  58 2.02
 189  0.123  0.754  0.751-  61 1.93  29 2.02
 190  0.626  0.754  0.749-  33 1.93  65 2.02
 191  0.378  0.008  0.494-   7 1.91  35 1.99
 192  0.373  0.495  0.009-  36 2.01   8 2.03
 193  0.875  0.006  0.512-  39 1.93   3 1.96
 194  0.875  0.498  1.000-   4 2.02  40 2.05
 195  0.383  0.989  0.257-  14 1.96  42 2.05
 196  0.374  0.499  0.739-  17 1.97  45 1.98
 197  0.874  0.994  0.243-  46 1.98  10 2.06
 198  0.874  0.993  0.741-  47 1.97  11 1.99
 199  0.379  0.242  0.499-  51 1.96  23 2.00
 200  0.377  0.759  0.001-  52 1.94  24 2.02
 201  0.377  0.742  0.503-  53 1.95  25 2.01
 202  0.874  0.251  0.507-  19 1.93  55 2.03
 203  0.872  0.756  0.998-  20 1.95  56 2.01
 204  0.872  0.743  0.504-  21 1.94  57 2.03
 205  0.379  0.265  0.241-  58 1.98  30 2.03
 206  0.376  0.250  0.751-  31 2.01  59 2.04
 207  0.378  0.751  0.248-  32 2.00  60 2.07
 208  0.375  0.756  0.750-  33 1.97  61 1.98
 209  0.874  0.264  0.241-  26 1.95  62 2.04
 210  0.874  0.255  0.745-  63 2.01  27 2.05
 211  0.874  0.751  0.249-  64 1.98  28 2.06
 212  0.005  0.127  0.001-  18 2.03   2 2.05
 213  0.996  0.126  0.512-  19 1.91   3 2.08
 214  0.993  0.626  0.993-   4 2.02  20 2.05
 215  0.001  0.627  0.492-   5 1.93  21 2.02
 216  0.505  0.125  0.997-   6 2.02  22 2.06
 217  0.488  0.627  0.999-  24 2.01   8 2.05
 218  0.510  0.627  0.498-  25 1.96   9 1.99
 219  0.980  0.130  0.246-  10 1.97  26 2.02
 220  0.995  0.624  0.258-  28 1.95  12 2.01
 221  0.011  0.625  0.756-  13 1.96  29 1.98
 222  0.499  0.626  0.257-  32 1.94  16 2.00
 223  0.004  0.374  0.498-  19 1.94   5 2.00
 224  0.492  0.372  0.508-  23 1.97   9 1.97
 225  0.486  0.878  0.497-  25 1.96   7 2.02
 226  0.995  0.375  0.752-  13 1.93  27 2.04
 227  0.001  0.877  0.250-  28 1.98  10 1.98
 228  0.000  0.876  0.748-  29 1.93  11 2.05
 229  0.511  0.372  0.239-  16 1.96  30 2.01
 230  0.496  0.373  0.745-  31 2.02  17 2.04
 231  0.504  0.876  0.246-  32 1.93  14 2.06
 232  0.503  0.875  0.756-  15 2.01  33 2.06
 233  0.246  0.125  0.984-  50 1.98  34 1.98
 234  0.250  0.125  0.494-  35 2.02  51 2.04
 235  0.246  0.627  0.503-  53 2.00  37 2.04
 236  0.742  0.126  0.001-  54 1.94  38 1.95
 237  0.762  0.626  0.003-  56 1.94  40 1.95
 238  0.742  0.626  0.502-  57 1.96  41 1.98
 239  0.270  0.132  0.260-  58 1.96  42 2.01
 240  0.253  0.125  0.764-  43 1.97  59 1.98
 241  0.256  0.623  0.245-  60 1.94  44 2.04
 242  0.765  0.127  0.248-  62 1.95  46 1.96
 243  0.751  0.625  0.247-  64 1.94  48 1.95
 244  0.738  0.625  0.748-  65 1.97  49 1.98
 245  0.248  0.376  0.003-  50 1.93  36 2.04
 246  0.244  0.875  0.009-  34 1.94  52 2.05
 247  0.749  0.375  0.988-  54 1.94  40 1.96
 248  0.755  0.372  0.488-  41 1.95  55 2.01
 249  0.744  0.875  0.009-  56 1.95  38 1.96
 250  0.763  0.876  0.504-  57 1.94  39 2.02
 251  0.253  0.376  0.751-  59 1.93  45 2.03
 252  0.248  0.872  0.246-  60 1.92  42 2.03
 253  0.245  0.874  0.741-  43 1.93  61 2.04
 254  0.742  0.374  0.266-  62 1.94  48 1.96
 255  0.755  0.374  0.759-  49 1.94  63 2.04
 256  0.750  0.876  0.242-  64 1.95  46 1.95
 257  0.751  0.875  0.743-  65 1.93  47 2.03
 

IMPORTANT INFORMATION: All symmetrisations will be switched off!
NOSYMM: (Re-)initialisation of all symmetry stuff for point group C_1.

 
 
 KPOINTS: Title                                   

Automatic generation of k-mesh.
Space group operators:
 irot       det(A)        alpha          n_x          n_y          n_z        tau_x        tau_y        tau_z
    1     1.000000     0.000001     1.000000     0.000000     0.000000     0.000000     0.000000     0.000000
 
 Subroutine IBZKPT returns following result:
 ===========================================
 
 Found      4 irreducible k-points:
 
 Following reciprocal coordinates:
            Coordinates               Weight
  0.250000  0.250000  0.250000      2.000000
 -0.250000  0.250000  0.250000      2.000000
  0.250000 -0.250000  0.250000      2.000000
 -0.250000 -0.250000  0.250000      2.000000
 
 Following cartesian coordinates:
            Coordinates               Weight
  0.016206  0.016206  0.016206      2.000000
 -0.016206  0.016206  0.016206      2.000000
  0.016206 -0.016206  0.016206      2.000000
 -0.016206 -0.016206  0.016206      2.000000
 


--------------------------------------------------------------------------------------------------------




 Dimension of arrays:
   k-points           NKPTS =      4   k-points in BZ     NKDIM =      4   number of bands    NBANDS=   1164
   number of dos      NEDOS =   3001   number of ions     NIONS =    257
   non local maximal  LDIM  =      6   non local SUM 2l+1 LMDIM =     18
   total plane-waves  NPLWV = ******
   max r-space proj   IRMAX =   7595   max aug-charges    IRDMAX= 146383
   dimension x,y,z NGX =   120 NGY =  120 NGZ =  120
   dimension x,y,z NGXF=   240 NGYF=  240 NGZF=  240
   support grid    NGXF=   480 NGYF=  480 NGZF=  480
   ions per type =               1  64  64 128
   NGX,Y,Z   is equivalent  to a cutoff of  12.93, 12.93, 12.93 a.u.
   NGXF,Y,Z  is equivalent  to a cutoff of  25.86, 25.86, 25.86 a.u.

 SYSTEM =  LTO                                     
 POSCAR =  config 01                               

 Startparameter for this run:
   NWRITE =      2    write-flag & timer
   PREC   = accura    normal or accurate (medium, high low for compatibility)
   ISTART =      1    job   : 0-new  1-cont  2-samecut
   ICHARG =      0    charge: 1-file 2-atom 10-const
   ISPIN  =      2    spin polarized calculation?
   LNONCOLLINEAR =      F non collinear calculations
   LSORBIT =      F    spin-orbit coupling
   INIWAV =      1    electr: 0-lowe 1-rand  2-diag
   LASPH  =      T    aspherical Exc in radial PAW
   METAGGA=      F    non-selfconsistent MetaGGA calc.

 Electronic Relaxation 1
   ENCUT  =  500.0 eV  36.75 Ry    6.06 a.u.  28.13 28.13 28.13*2*pi/ulx,y,z
   ENINI  =  500.0     initial cutoff
   ENAUG  =  628.9 eV  augmentation charge cutoff
   NELM   =     60;   NELMIN=  2; NELMDL=  0     # of ELM steps 
   EDIFF  = 0.1E-05   stopping-criterion for ELM
   LREAL  =      T    real-space projection
   NLSPLINE    = F    spline interpolate recip. space projectors
   LCOMPAT=      F    compatible to vasp.4.4
   GGA_COMPAT  = T    GGA compatible to vasp.4.4-vasp.4.6
   LMAXPAW     = -100 max onsite density
   LMAXMIX     =    4 max onsite mixed and CHGCAR
   VOSKOWN=      0    Vosko Wilk Nusair interpolation
   ROPT   =   -0.00010  -0.00010  -0.00010  -0.00010
 Ionic relaxation
   EDIFFG = -.5E-01   stopping-criterion for IOM
   NSW    =    100    number of steps for IOM
   NBLOCK =      1;   KBLOCK =    100    inner block; outer block 
   IBRION =      1    ionic relax: 0-MD 1-quasi-New 2-CG
   NFREE  =      0    steps in history (QN), initial steepest desc. (CG)
   ISIF   =      2    stress and relaxation
   IWAVPR =     11    prediction:  0-non 1-charg 2-wave 3-comb
   ISYM   =      0    0-nonsym 1-usesym 2-fastsym
   LCORR  =      T    Harris-Foulkes like correction to forces

   POTIM  = 0.5000    time-step for ionic-motion
   TEIN   =    0.0    initial temperature
   TEBEG  =    0.0;   TEEND  =   0.0 temperature during run
   SMASS  =  -3.00    Nose mass-parameter (am)
   estimated Nose-frequenzy (Omega)   =  0.10E-29 period in steps =****** mass=  -0.544E-26a.u.
   SCALEE = 1.0000    scale energy and forces
   NPACO  =    256;   APACO  = 16.0  distance and # of slots for P.C.
   PSTRESS=    0.0 pullay stress

  Mass of Ions in am
   POMASS =   7.01 47.88 16.00 19.00
  Ionic Valenz
   ZVAL   =   3.00 10.00  6.00  7.00
  Atomic Wigner-Seitz radii
   RWIGS  =  -1.00 -1.00 -1.00 -1.00
  virtual crystal weights 
   VCA    =   1.00  1.00  1.00  1.00
   NELECT =    1923.0000    total number of electrons
   NUPDOWN=       1.0000    fix difference up-down

 DOS related values:
   EMIN   =  10.00;   EMAX   =-10.00  energy-range for DOS
   EFERMI =   0.00
   ISMEAR =     0;   SIGMA  =   0.01  broadening in eV -4-tet -1-fermi 0-gaus

 Electronic relaxation 2 (details)
   IALGO  =     38    algorithm
   LDIAG  =      T    sub-space diagonalisation (order eigenvalues)
   LSUBROT=      F    optimize rotation matrix (better conditioning)
   TURBO    =      0    0=normal 1=particle mesh
   IRESTART =      0    0=no restart 2=restart with 2 vectors
   NREBOOT  =      0    no. of reboots
   NMIN     =      0    reboot dimension
   EREF     =   0.00    reference energy to select bands
   IMIX   =      4    mixing-type and parameters
     AMIX     =   0.40;   BMIX     =  1.00
     AMIX_MAG =   1.60;   BMIX_MAG =  1.00
     AMIN     =   0.10
     WC   =   100.;   INIMIX=   1;  MIXPRE=   1;  MAXMIX= -45

 Intra band minimization:
   WEIMIN = 0.0010     energy-eigenvalue tresh-hold
   EBREAK =  0.21E-09  absolut break condition
   DEPER  =   0.30     relativ break condition  

   TIME   =   0.40     timestep for ELM

  volume/ion in A,a.u.               =      14.28        96.39
  Fermi-wavevector in a.u.,A,eV,Ry     =   1.319690  2.493853 23.695660  1.741582
  Thomas-Fermi vector in A             =   2.449570
 
 Write flags
   LWAVE        =      T    write WAVECAR
   LDOWNSAMPLE  =      F    k-point downsampling of WAVECAR
   LCHARG       =      T    write CHGCAR
   LVTOT        =      F    write LOCPOT, total local potential
   LVHAR        =      F    write LOCPOT, Hartree potential only
   LELF         =      F    write electronic localiz. function (ELF)
   LORBIT       =     11    0 simple, 1 ext, 2 COOP (PROOUT), +10 PAW based schemes


 Dipole corrections
   LMONO  =      F    monopole corrections only (constant potential shift)
   LDIPOL =      F    correct potential (dipole corrections)
   IDIPOL =      0    1-x, 2-y, 3-z, 4-all directions 
   EPSILON=  1.0000000 bulk dielectric constant

 LDA+U is selected, type is set to LDAUTYPE =  2
   angular momentum for each species LDAUL =    -1    2   -1   -1
   U (eV)           for each species LDAUU =   0.0  4.2  0.0  0.0
   J (eV)           for each species LDAUJ =   0.0  0.0  0.0  0.0
 Exchange correlation treatment:
   GGA     =    PS    GGA type
   LEXCH   =    14    internal setting for exchange type
   VOSKOWN=      0    Vosko Wilk Nusair interpolation
   LHFCALC =     F    Hartree Fock is set to
   LHFONE  =     F    Hartree Fock one center treatment
   AEXX    =    0.0000 exact exchange contribution

 Linear response parameters
   LEPSILON=     F    determine dielectric tensor
   LRPA    =     F    only Hartree local field effects (RPA)
   LNABLA  =     F    use nabla operator in PAW spheres
   LVEL    =     F    velocity operator in full k-point grid
   LINTERFAST=   F  fast interpolation
   KINTER  =     0    interpolate to denser k-point grid
   CSHIFT  =0.1000    complex shift for real part using Kramers Kronig
   OMEGAMAX=  -1.0    maximum frequency
   DEG_THRESHOLD= 0.2000000E-02 threshold for treating states as degnerate
   RTIME   =   -0.100 relaxation time in fs
  (WPLASMAI=    0.000 imaginary part of plasma frequency in eV, 0.658/RTIME)
   DFIELD  = 0.0000000 0.0000000 0.0000000 field for delta impulse in time
 
 Orbital magnetization related:
   ORBITALMAG=     F  switch on orbital magnetization
   LCHIMAG   =     F  perturbation theory with respect to B field
   DQ        =  0.001000  dq finite difference perturbation B field
   LLRAUG    =     F  two centre corrections for induced B field



--------------------------------------------------------------------------------------------------------


 quasi-Newton-method for relaxation of ions
 charge density and potential will be updated during run
 spin polarized calculation
 Variant of blocked Davidson
 Davidson routine will perform the subspace rotation
 perform sub-space diagonalisation
    after iterative eigenvector-optimisation
 modified Broyden-mixing scheme, WC =      100.0
 initial mixing is a Kerker type mixing with AMIX =  0.4000 and BMIX =      1.0000
 Hartree-type preconditioning will be used
 using additional bands          202
 real space projection scheme for non local part
 use partial core corrections
 calculate Harris-corrections to forces 
   (improved forces if not selfconsistent)
 use gradient corrections 
 use of overlap-Matrix (Vanderbilt PP)
 Gauss-broadening in eV      SIGMA  =   0.01


--------------------------------------------------------------------------------------------------------


  energy-cutoff  :      500.00
  volume of cell :     3671.03
      direct lattice vectors                 reciprocal lattice vectors
    15.426331000  0.000000000  0.000000000     0.064824228  0.000000000  0.000000000
     0.000000000 15.426331000  0.000000000     0.000000000  0.064824228  0.000000000
     0.000000000  0.000000000 15.426331000     0.000000000  0.000000000  0.064824228

  length of vectors
    15.426331000 15.426331000 15.426331000     0.064824228  0.064824228  0.064824228


 
 old parameters found on file WAVECAR:
  energy-cutoff  :      500.00
  volume of cell :     3671.03
      direct lattice vectors                 reciprocal lattice vectors
    15.426331000  0.000000000  0.000000000     0.064824228  0.000000000  0.000000000
     0.000000000 15.426331000  0.000000000     0.000000000  0.064824228  0.000000000
     0.000000000  0.000000000 15.426331000     0.000000000  0.000000000  0.064824228

  length of vectors

 
 k-points in units of 2pi/SCALE and weight: Title                                   
   0.01620606  0.01620606  0.01620606       0.250
  -0.01620606  0.01620606  0.01620606       0.250
   0.01620606 -0.01620606  0.01620606       0.250
  -0.01620606 -0.01620606  0.01620606       0.250
 
 k-points in reciprocal lattice and weights: Title                                   
   0.25000000  0.25000000  0.25000000       0.250
  -0.25000000  0.25000000  0.25000000       0.250
   0.25000000 -0.25000000  0.25000000       0.250
  -0.25000000 -0.25000000  0.25000000       0.250
 
 position of ions in fractional coordinates (direct lattice) 
   0.12329880  0.05100682  0.12181598
   0.99126670  0.99510731  0.99037382
   0.99963250  0.99251125  0.49420731
   0.00579686  0.49609418  0.99774314
   0.99427666  0.50300967  0.50720577
   0.49572283  0.99414462  0.99954357
   0.50119962  0.00771273  0.50002870
   0.50401989  0.49550188  0.99616133
   0.49194782  0.49906141  0.49544135
   0.00579322  0.00519983  0.25809914
   0.00078529  0.00864606  0.75413655
   0.99406716  0.49383885  0.25149866
   0.99266474  0.49973923  0.74210685
   0.50768371  0.00917090  0.25043109
   0.49233492  0.00485358  0.75236666
   0.49299835  0.49613215  0.25723796
   0.50062893  0.50421450  0.75822656
   0.99483834  0.25806953  0.00136071
   0.99834225  0.24861875  0.49151100
   0.99812564  0.75817915  0.00666697
   0.99773753  0.75703529  0.50616933
   0.49501420  0.25789518  0.00143555
   0.50825982  0.24550702  0.49842836
   0.50751183  0.75598372  0.99946669
   0.50693976  0.75320019  0.50916429
   0.99941214  0.25885375  0.25512240
   0.00616544  0.24321721  0.74715736
   0.00726698  0.74888610  0.24371693
   0.99287452  0.75104914  0.74362337
   0.50821213  0.24200008  0.25133455
   0.50642661  0.24279932  0.75014052
   0.50736738  0.75095967  0.25209323
   0.50168718  0.74225306  0.74362596
   0.25908999  0.99943942  0.00478851
   0.25013891  0.99431311  0.50848137
   0.24395770  0.50810823  0.99734256
   0.25417895  0.49499219  0.50748575
   0.75499056  0.00057446  0.99327470
   0.75072729  0.00665573  0.49394003
   0.74205058  0.50062515  0.00502466
   0.75541739  0.49779772  0.50525660
   0.25059129  0.00354860  0.24783547
   0.25747770  0.99837149  0.74543739
   0.25498315  0.49126200  0.25157206
   0.24674651  0.50682861  0.74202695
   0.74598266  0.00119572  0.25491718
   0.74768060  0.00636141  0.75502164
   0.75585642  0.49849200  0.24286439
   0.75703979  0.49825644  0.74260610
   0.25719020  0.25111746  0.00573604
   0.25276709  0.25658618  0.50590253
   0.25210336  0.74341214  0.99353417
   0.25186595  0.75557037  0.49347953
   0.75666749  0.25100521  0.00764001
   0.74285994  0.24275617  0.49721747
   0.74187119  0.74955602  0.99414289
   0.74173928  0.75249210  0.49403764
   0.25127785  0.25650739  0.24288661
   0.24396485  0.25120258  0.74405360
   0.24430123  0.74790890  0.25604163
   0.24793192  0.74261162  0.75745571
   0.74190125  0.25084519  0.24274039
   0.74416557  0.24226108  0.75082847
   0.74614751  0.75009334  0.25653796
   0.75722391  0.75068444  0.75670066
   0.00853829  0.50224119  0.62480015
   0.99472192  0.00805705  0.37807742
   0.99835845  0.00346471  0.87069606
   0.49930518  0.49267505  0.37558040
   0.49336251  0.49754368  0.87469051
   0.99835701  0.74625401  0.12558656
   0.00131286  0.74633707  0.62447830
   0.50108505  0.75574332  0.62503777
   0.99282674  0.24731954  0.37660273
   0.24776916  0.01526464  0.12102929
   0.25621072  0.00813145  0.62675134
   0.23763489  0.49979130  0.62652854
   0.75061533  0.49132974  0.12555049
   0.74576650  0.49324304  0.62416308
   0.75284273  0.99923290  0.37569881
   0.74489753  0.99747132  0.87305115
   0.24155588  0.24290120  0.12481526
   0.25133577  0.24575070  0.62569296
   0.73886003  0.25828307  0.12627324
   0.25501620  0.74957539  0.37549079
   0.25065591  0.75824939  0.87559037
   0.75218015  0.75254786  0.37418304
   0.74691757  0.75351643  0.87547540
   0.12435782  0.50414649  0.99410097
   0.62573386  0.50742019  0.99808662
   0.11984685  0.01664826  0.24514184
   0.62674942  0.00636527  0.24979172
   0.62430792  0.25668025  0.49173695
   0.62465687  0.74063176  0.00473186
   0.62459311  0.76340469  0.49653375
   0.12424176  0.24995969  0.75127604
   0.12519345  0.74613761  0.25221931
   0.62587852  0.24056906  0.26486071
   0.62528108  0.25181845  0.74911476
   0.62362114  0.74986350  0.25036729
   0.37754325  0.99966011  0.99149911
   0.37532088  0.50535899  0.50530000
   0.87117927  0.00283442  0.99955641
   0.87541652  0.50115142  0.49998752
   0.37575907  0.99568853  0.76038287
   0.37432007  0.49135096  0.24862742
   0.87573526  0.49353710  0.25255249
   0.87507654  0.50873187  0.74560411
   0.37586306  0.24740576  0.00677006
   0.87397420  0.24707513  0.00859342
   0.87476082  0.74369851  0.75030028
   0.51038698  0.12229667  0.49665360
   0.99435011  0.12656980  0.74108599
   0.49122111  0.12564970  0.26228433
   0.50024377  0.12340281  0.74637794
   0.50144784  0.62533803  0.74851087
   0.99953688  0.37549300  0.00487897
   0.00185160  0.87590349  0.00122360
   0.99781979  0.87523422  0.49817700
   0.50233750  0.37411718  0.00773119
   0.50587376  0.87533616  0.00308459
   0.01121834  0.37426666  0.24667085
   0.25637544  0.62556149  0.99626997
   0.74244271  0.12509350  0.50358672
   0.24822164  0.62510073  0.75542981
   0.75169944  0.12457822  0.74448618
   0.25127429  0.37336830  0.49853122
   0.25185901  0.87610690  0.50471675
   0.23771629  0.37421583  0.25193029
   0.00402172  0.00893067  0.12354767
   0.00517698  0.99614710  0.62396502
   0.00019928  0.51014579  0.12517808
   0.49501332  0.00766087  0.12611844
   0.49486509  0.99253371  0.62330009
   0.50236726  0.50867275  0.12732893
   0.50857638  0.49930229  0.62476625
   0.00357426  0.49534913  0.37615812
   0.99397043  0.49743202  0.87317547
   0.50665634  0.99054425  0.37703554
   0.51786299  0.00194707  0.87518629
   0.01190267  0.24412418  0.12698057
   0.00105125  0.26100408  0.62154615
   0.51349779  0.23769120  0.12647884
   0.49737982  0.24784899  0.62260984
   0.49531637  0.74557565  0.12699910
   0.99232133  0.24950374  0.87417017
   0.99361809  0.75180658  0.37513669
   0.00227450  0.75191536  0.87414948
   0.48894630  0.26325163  0.37537996
   0.49783247  0.25122404  0.87468037
   0.49364947  0.75372370  0.37587722
   0.50006945  0.75044048  0.87436589
   0.24427916  0.49907676  0.12462476
   0.74886805  0.00542681  0.12562542
   0.74523518  0.99620416  0.62284341
   0.24982080  0.99753807  0.37789105
   0.23986055  0.98900477  0.87464039
   0.24836557  0.50764963  0.37563998
   0.26056783  0.49276519  0.87394779
   0.74658409  0.50761571  0.37488212
   0.75297378  0.50574611  0.87408575
   0.25286070  0.74889814  0.12477041
   0.24897437  0.74751933  0.62585619
   0.74875231  0.26123092  0.62268799
   0.75394643  0.74752280  0.12561369
   0.74773915  0.74789007  0.62440235
   0.25296179  0.24964139  0.37505795
   0.25377517  0.25734783  0.87529983
   0.76554616  0.24266418  0.37401874
   0.75485908  0.24469650  0.87584473
   0.12394339  0.00648596  0.00543087
   0.12485476  0.00680543  0.50034140
   0.12351091  0.50162831  0.49206044
   0.62527754  0.00194573  0.00909889
   0.62416483  0.98279394  0.50264168
   0.62534823  0.49237060  0.49759517
   0.12653516  0.00331107  0.74675348
   0.12400142  0.51105454  0.24956217
   0.12308018  0.49349203  0.76430807
   0.62321802  0.99547260  0.73978485
   0.62542485  0.50275412  0.25002700
   0.62629124  0.49246160  0.75625604
   0.12444591  0.25001271  0.99199069
   0.12333236  0.24433509  0.49779773
   0.12514186  0.74504347  0.00168516
   0.12413373  0.74915589  0.49570248
   0.62621028  0.25064794  0.99098678
   0.12377787  0.23166379  0.25779606
   0.12329624  0.75402851  0.75092905
   0.62623685  0.75444116  0.74931345
   0.37752511  0.00778433  0.49394594
   0.37331579  0.49516120  0.00861844
   0.87466005  0.00647036  0.51158350
   0.87477371  0.49834156  0.99977151
   0.38266096  0.98924396  0.25664044
   0.37449857  0.49858518  0.73935690
   0.87350611  0.99384536  0.24328904
   0.87371635  0.99316295  0.74102521
   0.37869088  0.24159002  0.49878543
   0.37670653  0.75918688  0.00101307
   0.37724779  0.74236548  0.50312034
   0.87404329  0.25134244  0.50748153
   0.87228679  0.75599656  0.99751223
   0.87245199  0.74331337  0.50362410
   0.37905927  0.26469042  0.24136811
   0.37604585  0.24964229  0.75128352
   0.37789864  0.75116027  0.24820030
   0.37512398  0.75567755  0.75000055
   0.87375865  0.26379429  0.24090357
   0.87378290  0.25470011  0.74461721
   0.87397332  0.75142246  0.24927987
   0.00519641  0.12690192  0.00144541
   0.99617870  0.12643515  0.51176464
   0.99318710  0.62607897  0.99349953
   0.00108399  0.62677396  0.49180919
   0.50533027  0.12455164  0.99685180
   0.48831939  0.62737933  0.99925272
   0.50973913  0.62662977  0.49830965
   0.98034825  0.12982735  0.24611038
   0.99451121  0.62370174  0.25828807
   0.01109161  0.62489723  0.75613859
   0.49852117  0.62552290  0.25651164
   0.00368546  0.37424629  0.49778025
   0.49237511  0.37162361  0.50766839
   0.48624553  0.87793553  0.49676197
   0.99547039  0.37487835  0.75172131
   0.00136805  0.87699148  0.25027114
   0.00010265  0.87611687  0.74776389
   0.51057744  0.37184717  0.23897938
   0.49630042  0.37295309  0.74503413
   0.50354054  0.87582955  0.24554550
   0.50300685  0.87529086  0.75605022
   0.24579830  0.12544167  0.98362546
   0.25030864  0.12460682  0.49406284
   0.24581948  0.62669276  0.50307827
   0.74168402  0.12625729  0.00103884
   0.76195356  0.62560256  0.00253301
   0.74231617  0.62557909  0.50174811
   0.26959496  0.13203993  0.25964065
   0.25256559  0.12467132  0.76354202
   0.25583597  0.62302412  0.24493457
   0.76484992  0.12669594  0.24779259
   0.75114252  0.62496713  0.24683928
   0.73832107  0.62484391  0.74770582
   0.24846059  0.37605094  0.00322896
   0.24446908  0.87490401  0.00930642
   0.74928545  0.37501378  0.98752621
   0.75461781  0.37246892  0.48774554
   0.74417455  0.87518779  0.00926915
   0.76264885  0.87643113  0.50389076
   0.25310503  0.37592878  0.75134879
   0.24814862  0.87216374  0.24552265
   0.24537655  0.87410592  0.74122556
   0.74229344  0.37427966  0.26584826
   0.75469748  0.37385677  0.75852998
   0.74983410  0.87554877  0.24202953
   0.75084826  0.87504189  0.74303054
 
 position of ions in cartesian coordinates  (Angst):
   1.90204804  0.78684813  1.87917362
  15.29160828 15.35085475 15.27783429
  15.42066176 15.31080709  7.62380547
   0.08942433  7.65291310 15.39151596
  15.33804087  7.75959364  7.82432408
   7.64718442 15.33600390 15.41928993
   7.73167125  0.11897919  7.71360823
   7.77517764  7.64377600 15.36711437
   7.58894984  7.69868646  7.64284219
   0.08936816  0.08021436  3.98152276
   0.01211417  0.13337705 11.63356011
  15.33480910  7.61812155  3.87970155
  15.31317478  7.70914274 11.44798595
   7.83169692  0.14147332  3.86323292
   7.59492150  0.07487295 11.60625720
   7.60515575  7.65349877  3.96823787
   7.72286752  7.77817981 11.69665384
  15.34670548  3.98106605  0.02099078
  15.40075805  3.83527516  7.58221139
  15.39741652 11.69592247  0.10284683
  15.39142940 11.67827694  7.80833556
   7.63625287  3.97837642  0.02214531
   7.84058414  3.78727250  7.68892087
   7.82904541 11.66205509 15.41810401
   7.82022059 11.61911539  7.85453688
  15.41726249  3.99316366  3.93560266
   0.09511008  3.75194912 11.52589672
   0.11210277 11.55256485  3.75965796
  15.31641097 11.58593264 11.47138027
   7.83984857  3.73317336  3.87717000
   7.81230448  3.74550269 11.57191591
   7.82681709 11.58455251  3.88887366
   7.73919246 11.45024132 11.47142024
   3.99680795 15.41768326  0.07386911
   3.85872567 15.33860322  7.84400187
   3.76337228  7.83824579 15.38533639
   3.92104855  7.63591344  7.82864308
  11.64673433  0.00886181 15.32258431
  11.58096766  0.10267349  7.61968237
  11.44711779  7.72280925  0.07751200
  11.65331871  7.67919242  7.79425555
   3.86570420  0.05474183  3.82319203
   3.97193618 15.40120914 11.49936396
   3.93345451  7.57837022  3.88083386
   3.80639336  7.81850596 11.44675335
  11.50777537  0.01844560  3.93243681
  11.53396845  0.09813326 11.64721372
  11.66009139  7.68990260  3.74650641
  11.67834636  7.68626879 11.45568746
   3.96750108  3.87382113  0.08848606
   3.89926873  3.95818334  7.80421995
   3.88902990 11.46812179 15.32658696
   3.88536755 11.65567856  7.61257864
  11.67260313  3.87208951  0.11785729
  11.45960335  3.74483703  7.67024129
  11.44435046 11.56289934 15.33597733
  11.44231569 11.60819228  7.62118810
   3.87629534  3.95696788  3.74684929
   3.76348256  3.87513408 11.47801712
   3.76867171 11.53749033  3.94978290
   3.82467983 11.45577263 11.68476256
  11.44481432  3.86962086  3.74459357
  11.47974437  3.73719953 11.58252856
  11.51031849 11.57118814  3.95743942
  11.68118660 11.58030669 11.67311483
   0.13171444  7.74773886  9.63837386
  15.34490956  0.12429075  5.83234748
  15.40100784  0.05344772 13.43164561
   7.70244695  7.60016834  5.79382750
   7.61077338  7.67527352 13.49326527
  15.40098575 11.51196140  1.93733979
   0.02025262 11.51324273  9.63340890
   7.72990376 11.65834667  9.64203946
  15.31567392  3.81523303  5.80959843
   3.82216903  0.23547745  1.86703788
   3.95239137  0.12543841  9.66847359
   3.66583440  7.70994608  9.66503660
  11.57924049  7.57941515  1.93678334
  11.50444088  7.60893041  9.62854623
  11.61360114 15.41449748  5.79565417
  11.49103580 15.38732272 13.46797601
   3.72632101  3.74707431  1.92544147
   3.87718879  3.79103157  9.65214678
  11.39789946  3.98436014  1.94793281
   3.93396430 11.56319812  5.79244520
   3.86670110 11.69700605 13.50714683
  11.60337996 11.60905244  5.77227142
  11.52219768 11.62399387 13.50537331
   1.91838489  7.77713057 15.33533057
   9.65277757  7.82763186 15.39681459
   1.84879710  0.25682149  3.78163914
   9.66844402  0.09819276  3.85336970
   9.63078067  3.95963451  7.58569691
   9.63616361 11.42523072  0.07299530
   9.63517998 11.77653350  7.65969400
   1.91659455  3.85596091 11.58943286
   1.93127565 11.51016573  3.89081863
   9.65500924  3.71109797  4.08582894
   9.64579298  3.88463471 11.55609231
   9.62018606 11.56764262  3.86224868
   5.82410715 15.42108778 15.29519351
   5.78982415  7.79583502  7.79492508
  13.43909985  0.04372471 15.41948807
  13.50446506  7.73092771  7.71297305
   5.79658382 15.35982076 11.72991778
   5.77438536  7.57974257  3.83540882
  13.50938203  7.61346664  3.89595825
  13.49922029  7.84786626 11.50193581
   5.79818803  3.81656312  0.10443721
  13.48221529  3.81146267  0.13256495
  13.49435001 11.47253938 11.57438043
   7.87339847  1.88658889  7.66154290
  15.33917396  1.95250770 11.43223783
   7.57773948  1.93831393  4.04608491
   7.71692590  1.90365265 11.51387321
   7.73550035  9.64667148 11.54677651
  15.41918672  5.79247938  0.07526464
   0.02856334 13.51197716  0.01887570
  15.39269840 13.50165283  7.68504324
   7.74922448  5.77125538  0.11926393
   7.80377604 13.50322535  0.04758394
   0.17305778  5.77356136  3.80522624
   3.95493234  9.65011867 15.36879034
  11.45316698  1.92973381  7.76849544
   3.82914911  9.64301085 11.65351031
  11.59596437  1.92178481 11.48469031
   3.87624038  5.75970296  7.69050755
   3.88526049 13.51511510  7.78592771
   3.66709020  5.77277724  3.88636011
   0.06204041  0.13776744  1.90588727
   0.07986181 15.36689491  9.62549090
   0.00307418  7.86967783  1.93103853
   7.63623929  0.11817911  1.94554473
   7.63395262 15.31115354  9.61523354
   7.74968369  7.84695422  1.96421826
   7.84546752  7.70240242  9.63785091
   0.05513768  7.64141963  5.80273963
  15.33331683  7.67355098 13.46989379
   7.81584836 15.28046344  5.81627511
   7.98872595  0.03003622 13.50091345
   0.18361452  3.76594046  1.95884426
   0.01621700  4.02633531  9.58817669
   7.92138687  3.66670307  1.95110448
   7.67274578  3.82340062  9.60458545
   7.64091426 11.50149676  1.95913016
  15.30787728  3.84892732 13.48523832
  15.32788153 11.59761708  5.78698269
   0.03508714 11.59929519 13.48491922
   7.54264739  4.06100670  5.79073547
   7.67972853  3.87546517 13.49310895
   7.61520008 11.62719129  5.79840643
   7.71423680 11.57654330 13.48825766
   3.76833123  7.69892327  1.92250283
  11.55228646  0.08371581  1.93793937
  11.49624449 15.36777515  9.60818862
   3.85381833 15.38835248  5.82947248
   3.70016823 15.25671498 13.49249217
   3.83136946  7.83117121  5.79474673
   4.01960553  7.60155886 13.48180785
  11.51705329  7.83064799  5.78305574
  11.61562277  7.80180696 13.48393608
   3.90071285 11.55275060  1.92474964
   3.84076104 11.53148057  9.65466470
  11.55050101  4.02983461  9.60579100
  11.63062722 11.53153409  1.93775830
  11.53487169 11.53719981  9.63223726
   3.90227235  3.85105066  5.78576812
   3.91481970  3.96993278 13.50266493
  11.80956843  3.74341791  5.76973694
  11.64470605  3.77476924 13.51107073
   1.91199178  0.10005461  0.08377844
   1.92605092  0.10498275  7.71843204
   1.90532023  7.73828434  7.59068725
   9.64573822  0.03001549  0.14036253
   9.62857331 15.16090469  7.75391687
   9.64682874  7.59547183  7.67606777
   1.95197326  0.05107770 11.51966641
   1.91288691  7.88369654  3.84982871
   1.89867566  7.61277147 11.79046920
   9.61396748 15.35648988 11.41216590
   9.64801070  7.75565142  3.85699928
   9.66137592  7.59687557 11.66625602
   1.91974378  3.85677885 15.30277676
   1.90256587  3.76919399  7.67919249
   1.93047974 11.49328722  0.02599580
   1.91492798 11.55672675  7.64687050
   9.66012703  3.86657814 15.28729012
   1.90943842  3.57372230  3.97684728
   1.90200859 11.63189335 11.58408001
   9.66053689 11.63825908 11.55915734
   5.82382737  0.12008359  7.61977355
   5.75889299  7.63852052  0.13295098
  13.49279547  0.09981390  7.89185637
  13.49454875  7.68758183 15.42280617
   5.90305462 15.26040470  3.95902039
   5.77713892  7.69134007 11.40556423
  13.47499434 15.33138749  3.75305727
  13.47823762 15.32086037 11.43130017
   5.84181082  3.72684767  7.69442918
   5.81119960 11.71146817  0.01562792
   5.81954929 11.45197567  7.76130086
  13.48328106  3.87729168  7.82857810
  13.45618481 11.66225315 15.38795388
  13.45873325 11.46659811  7.76907213
   5.84749375  4.08320207  3.72342435
   5.80100779  3.85106460 11.58954820
   5.82958958 11.58764703  3.82881991
   5.78678668 11.65733198 11.56975680
  13.47889020  4.06937800  3.71625820
  13.47926421  3.92908813 11.48671158
  13.48220177 11.59169159  3.84547383
   0.08016159  1.95763107  0.02229743
  15.36738240  1.95043048  7.89465079
  15.32123295  9.65810139 15.32605260
   0.01672207  9.66882260  7.58681135
   7.79539203  1.92137482 15.37776576
   7.53297658  9.67816123 15.41480317
   7.86340458  9.66659831  7.68708963
  15.12317666  2.00275966  3.79658019
  15.34165914  9.62142950  3.98443727
   0.17110286  9.63987152 11.66444413
   7.69035265  9.64952337  3.95703352
   0.05685305  5.77324718  7.67892297
   7.59554140  5.73278882  7.83146066
   7.50098442 13.54332406  7.66321464
  15.35645573  5.78299746 11.59630182
   0.02110394 13.52876080  3.86076547
   0.00158355 13.51526883 11.53525322
   7.87633661  5.73623745  3.68657502
   7.65609456  5.75329775 11.49314309
   7.76778305 13.51083650  3.78786622
   7.75955023 13.50252655 11.66308099
   3.79176594  1.93510465 15.17373200
   3.86134390  1.92222607  7.62157695
   3.79209265  9.66756991  7.76065198
  11.44146325  1.94768669  0.01602547
  11.75414775  9.65075209  0.03907503
  11.45121501  9.65039005  7.74013235
   4.15886109  2.03689165  4.00530256
   3.89616044  1.92322098 11.77865193
   3.94661030  9.61097625  3.77844174
  11.79882803  1.95445350  3.82253055
  11.58737309  9.64094977  3.80782439
  11.38958514  9.63904898 11.53435743
   3.83283523  5.80108631  0.04981098
   3.77126093 13.49655892  0.14356386
  11.55872537  5.78508674 15.23390622
  11.64098405  5.74582887  7.52412409
  11.47988287 13.50093648  0.14298895
  11.76487363 13.52011673  7.77318566
   3.90448199  5.79920175 11.59055516
   3.82802280 13.45428660  3.78751371
   3.78525983 13.48424731 11.43439088
  11.45086433  5.77376187  4.10106325
  11.64221317  5.76723825 11.70133459
  11.56718902 13.50650510  3.73362771
  11.58283378 13.49868587 11.46223498
 


--------------------------------------------------------------------------------------------------------


 k-point  1 :   0.2500 0.2500 0.2500  plane waves:   93161
 k-point  2 :  -0.2500 0.2500 0.2500  plane waves:   93161
 k-point  3 :   0.2500-0.2500 0.2500  plane waves:   93161
 k-point  4 :  -0.2500-0.2500 0.2500  plane waves:   93161

 maximum and minimum number of plane-waves per node :     11686    11606

 maximum number of plane-waves:     93161
 maximum index in each direction: 
   IXMAX=   28   IYMAX=   28   IZMAX=   27
   IXMIN=  -28   IYMIN=  -28   IZMIN=  -28


 real space projection operators:
  total allocation   :     105554.34 KBytes
  max/ min on nodes  :      13242.11      13151.74


 parallel 3D FFT for wavefunctions:
    minimum data exchange during FFTs selected (reduces bandwidth)
 parallel 3D FFT for charge:
    minimum data exchange during FFTs selected (reduces bandwidth)


 total amount of memory used by VASP MPI-rank0   291479. kBytes
=======================================================================

   base      :      30000. kBytes
   nonlr-proj:      49444. kBytes
   fftplans  :      27976. kBytes
   grid      :      34041. kBytes
   one-center:       1026. kBytes
   wavefun   :     148992. kBytes
 
     INWAV:  cpu time   58.0690: real time   58.5670
 Broyden mixing: mesh for mixing (old mesh)
   NGX = 57   NGY = 57   NGZ = 57
  (NGX  =240   NGY  =240   NGZ  =240)
  gives a total of 185193 points

 charge density for first step will be calculated from the start-wavefunctions


--------------------------------------------------------------------------------------------------------


 Maximum index for non-local projection operator          966
 Maximum index for augmentation-charges         3291 (set IRDMAX)


--------------------------------------------------------------------------------------------------------


 initial charge from wavefunction
 First call to EWALD:  gamma=   0.115
 Maximum number of real-space cells 3x 3x 3
 Maximum number of reciprocal cells 3x 3x 3

    FEWALD:  cpu time    0.0160: real time    0.0160


--------------------------------------- Iteration      1(   1)  ---------------------------------------


    POTLOK:  cpu time    0.2657: real time    0.2747
    SETDIJ:  cpu time    1.3761: real time    1.3993
     EDDAV:  cpu time  111.2764: real time  112.0292
       DOS:  cpu time    0.0022: real time    0.0022
    CHARGE:  cpu time    5.2123: real time    5.2506
    MIXING:  cpu time    0.0085: real time    0.0086
    --------------------------------------------
      LOOP:  cpu time  118.1413: real time  118.9646

 eigenvalue-minimisations  : 18360
 total energy-change (2. order) :-0.1757933E+04  (-0.3582400E-06)
 number of electron    1923.0000027 magnetization       1.0000000
 augmentation part      496.9452429 magnetization       0.5860365

 Broyden mixing:
  rms(total) = 0.49886E-03    rms(broyden)= 0.47484E-03
  rms(prec ) = 0.57028E-03
  weight for this iteration     100.00

 Free energy of the ion-electron system (eV)
  ---------------------------------------------------
  alpha Z        PSCENC =      6118.73324990
  Ewald energy   TEWEN  =   -103273.60192549
  -Hartree energ DENC   =    -65349.12174168
  -exchange      EXHF   =         0.00000000
  -V(xc)+E(xc)   XCENC  =      8970.74966353
  PAW double counting   =    198007.07443667  -199013.30493114
  entropy T*S    EENTRO =        -0.00000000
  eigenvalues    EBANDS =    -25795.71428347
  atomic energy  EATOM  =    178577.25249613
  Solvation  Ediel_sol  =         0.00000000
  ---------------------------------------------------
  free energy    TOTEN  =     -1757.93303554 eV

  energy without entropy =    -1757.93303554  energy(sigma->0) =    -1757.93303554


--------------------------------------------------------------------------------------------------------




--------------------------------------- Iteration      1(   2)  ---------------------------------------


    POTLOK:  cpu time    0.2615: real time    0.2634
    SETDIJ:  cpu time    1.3885: real time    1.3899
     EDDAV:  cpu time  114.9615: real time  115.3605
       DOS:  cpu time    0.0021: real time    0.0021
    --------------------------------------------
      LOOP:  cpu time  116.6135: real time  117.0159

 eigenvalue-minimisations  : 19368
 total energy-change (2. order) : 0.1206645E-06  (-0.5107780E-06)
 number of electron    1923.0000027 magnetization       1.0000000
 augmentation part      496.9452429 magnetization       0.5860365

 Free energy of the ion-electron system (eV)
  ---------------------------------------------------
  alpha Z        PSCENC =      6118.73324990
  Ewald energy   TEWEN  =   -103273.60192549
  -Hartree energ DENC   =    -65349.12158817
  -exchange      EXHF   =         0.00000000
  -V(xc)+E(xc)   XCENC  =      8970.74976131
  PAW double counting   =    198007.08672717  -199013.31744649
  entropy T*S    EENTRO =        -0.00000000
  eigenvalues    EBANDS =    -25795.71430979
  atomic energy  EATOM  =    178577.25249613
  Solvation  Ediel_sol  =         0.00000000
  ---------------------------------------------------
  free energy    TOTEN  =     -1757.93303542 eV

  energy without entropy =    -1757.93303542  energy(sigma->0) =    -1757.93303542


--------------------------------------------------------------------------------------------------------




 average (electrostatic) potential at core
  the test charge radii are     0.7079  1.0397  0.7215  0.7167
  (the norm of the test charge is              1.0000)
       1 -62.3638       2 -58.3332       3 -58.7707       4 -58.7882       5 -58.8438
       6 -58.8465       7 -59.7927       8 -58.4606       9 -58.6699      10 -58.3913
      11 -58.6681      12 -58.9060      13 -58.8263      14 -59.0513      15 -58.9090
      16 -58.7114      17 -58.6789      18 -58.8338      19 -59.5170      20 -58.6111
      21 -58.8500      22 -58.6334      23 -59.4475      24 -58.8515      25 -58.8802
      26 -59.0893      27 -58.7274      28 -58.6420      29 -58.8587      30 -59.0991
      31 -58.9780      32 -59.4315      33 -58.7743      34 -58.6211      35 -58.8217
      36 -58.6852      37 -58.3992      38 -58.7621      39 -59.1444      40 -58.6829
      41 -58.9035      42 -56.7309      43 -58.8687      44 -58.6725      45 -58.5787
      46 -59.1310      47 -58.8638      48 -58.8159      49 -58.8485      50 -58.7256
      51 -58.6632      52 -58.6633      53 -58.7815      54 -58.9168      55 -59.2412
      56 -58.8550      57 -59.0187      58 -58.7274      59 -58.7451      60 -58.6806
      61 -58.6847      62 -58.9978      63 -58.9294      64 -59.1103      65 -58.8775
      66 -74.1296      67 -73.9958      68 -73.9118      69 -73.8372      70 -73.7911
      71 -73.8343      72 -73.9890      73 -74.2293      74 -74.5661      75 -73.6508
      76 -74.0247      77 -73.8765      78 -73.9506      79 -73.9879      80 -74.2720
      81 -74.0586      82 -73.8961      83 -73.8731      84 -74.3325      85 -73.8815
      86 -73.8542      87 -74.1904      88 -74.0695      89 -73.8633      90 -73.8021
      91 -73.6158      92 -74.2219      93 -74.6293      94 -74.1508      95 -74.2596
      96 -73.9602      97 -73.9041      98 -74.3519      99 -74.0836     100 -74.3175
     101 -74.0396     102 -73.7933     103 -73.9559     104 -73.9657     105 -74.2193
     106 -73.8744     107 -73.9964     108 -74.1099     109 -73.8987     110 -74.0374
     111 -74.1698     112 -74.8462     113 -74.0752     114 -74.4084     115 -74.0932
     116 -73.9647     117 -73.9443     118 -73.7792     119 -74.2078     120 -73.8232
     121 -73.9919     122 -74.2707     123 -73.9894     124 -74.4847     125 -73.9858
     126 -74.2010     127 -73.8025     128 -73.9455     129 -73.9587     130 -78.6287
     131 -78.5494     132 -79.1198     133 -79.6024     134 -79.8651     135 -78.2787
     136 -78.2634     137 -78.9555     138 -78.9178     139 -79.8740     140 -79.5268
     141 -79.1413     142 -79.0825     143 -79.5132     144 -79.6735     145 -79.3815
     146 -79.1851     147 -78.3652     148 -78.3508     149 -79.7310     150 -79.4300
     151 -79.2307     152 -79.0932     153 -78.9631     154 -78.5560     155 -78.5997
     156 -78.4946     157 -78.4502     158 -78.7507     159 -78.7591     160 -78.3783
     161 -78.3891     162 -78.3265     163 -78.2863     164 -79.3721     165 -78.5237
     166 -78.5585     167 -78.3119     168 -78.3348     169 -79.2264     170 -79.0838
     171 -78.6389     172 -79.5076     173 -78.3427     174 -78.5208     175 -79.8575
     176 -78.3039     177 -78.9557     178 -78.3443     179 -78.8538     180 -79.0159
     181 -78.3621     182 -78.8495     183 -78.3823     184 -79.4413     185 -79.0210
     186 -79.1454     187 -78.3844     188 -79.1738     189 -78.9564     190 -78.9908
     191 -79.7826     192 -78.2818     193 -79.6021     194 -78.2127     195 -78.5535
     196 -78.9963     197 -78.5334     198 -79.1343     199 -79.1441     200 -78.9127
     201 -79.0316     202 -79.4314     203 -78.8772     204 -79.0238     205 -78.9530
     206 -78.4548     207 -78.4960     208 -79.1576     209 -79.1231     210 -78.4943
     211 -78.5958     212 -78.3493     213 -79.2832     214 -78.3187     215 -79.0931
     216 -78.3331     217 -78.3690     218 -79.2602     219 -78.8908     220 -78.9113
     221 -79.1795     222 -79.3236     223 -79.4293     224 -79.2152     225 -79.2618
     226 -79.0053     227 -79.0056     228 -78.9468     229 -79.0760     230 -78.4963
     231 -79.2412     232 -78.4810     233 -79.0023     234 -78.3169     235 -78.3407
     236 -79.3881     237 -79.3493     238 -79.2779     239 -78.5053     240 -79.0773
     241 -78.7585     242 -79.5678     243 -79.5056     244 -79.2114     245 -78.8041
     246 -78.8404     247 -79.3767     248 -79.1353     249 -79.3753     250 -79.1950
     251 -78.8559     252 -78.7191     253 -78.8901     254 -79.5266     255 -79.0074
     256 -79.5488     257 -79.0416
 
 
 
 E-fermi :  -0.6562     XC(G=0):  -9.0424     alpha+bet : -7.7421


 spin component 1

 k-point     1 :       0.2500    0.2500    0.2500
  band No.  band energies     occupation 
      1     -43.0533      1.00000
      2     -35.8149      1.00000
      3     -35.7903      1.00000
      4     -35.6150      1.00000
      5     -35.5063      1.00000
      6     -35.4881      1.00000
      7     -35.4805      1.00000
      8     -35.4117      1.00000
      9     -35.4000      1.00000
     10     -35.3425      1.00000
     11     -35.3287      1.00000
     12     -35.3096      1.00000
     13     -35.2327      1.00000
     14     -35.2018      1.00000
     15     -35.1820      1.00000
     16     -35.1806      1.00000
     17     -35.1502      1.00000
     18     -35.1456      1.00000
     19     -35.1263      1.00000
     20     -35.1207      1.00000
     21     -35.1194      1.00000
     22     -35.0782      1.00000
     23     -35.0560      1.00000
     24     -35.0498      1.00000
     25     -35.0306      1.00000
     26     -35.0192      1.00000
     27     -35.0168      1.00000
     28     -35.0039      1.00000
     29     -34.9968      1.00000
     30     -34.9833      1.00000
     31     -34.9800      1.00000
     32     -34.9732      1.00000
     33     -34.9656      1.00000
     34     -34.9546      1.00000
     35     -34.9463      1.00000
     36     -34.9445      1.00000
     37     -34.9424      1.00000
     38     -34.9414      1.00000
     39     -34.9369      1.00000
     40     -34.9184      1.00000
     41     -34.9158      1.00000
     42     -34.9143      1.00000
     43     -34.9091      1.00000
     44     -34.9089      1.00000
     45     -34.9063      1.00000
     46     -34.9048      1.00000
     47     -34.9031      1.00000
     48     -34.8891      1.00000
     49     -34.8859      1.00000
     50     -34.8847      1.00000
     51     -34.8799      1.00000
     52     -34.8761      1.00000
     53     -34.8714      1.00000
     54     -34.8702      1.00000
     55     -34.8681      1.00000
     56     -34.8624      1.00000
     57     -34.8619      1.00000
     58     -34.8593      1.00000
     59     -34.8486      1.00000
     60     -34.8472      1.00000
     61     -34.8341      1.00000
     62     -34.8337      1.00000
     63     -34.8294      1.00000
     64     -34.8189      1.00000
     65     -34.8182      1.00000
     66     -34.8163      1.00000
     67     -34.8146      1.00000
     68     -34.8119      1.00000
     69     -34.8093      1.00000
     70     -34.8016      1.00000
     71     -34.7985      1.00000
     72     -34.7976      1.00000
     73     -34.7882      1.00000
     74     -34.7831      1.00000
     75     -34.7751      1.00000
     76     -34.7715      1.00000
     77     -34.7649      1.00000
     78     -34.7608      1.00000
     79     -34.7596      1.00000
     80     -34.7554      1.00000
     81     -34.7501      1.00000
     82     -34.7479      1.00000
     83     -34.7475      1.00000
     84     -34.7465      1.00000
     85     -34.7449      1.00000
     86     -34.7444      1.00000
     87     -34.7354      1.00000
     88     -34.7346      1.00000
     89     -34.7333      1.00000
     90     -34.7324      1.00000
     91     -34.7324      1.00000
     92     -34.7315      1.00000
     93     -34.7269      1.00000
     94     -34.7261      1.00000
     95     -34.7241      1.00000
     96     -34.7235      1.00000
     97     -34.7231      1.00000
     98     -34.7163      1.00000
     99     -34.7151      1.00000
    100     -34.7114      1.00000
    101     -34.7031      1.00000
    102     -34.7030      1.00000
    103     -34.7028      1.00000
    104     -34.6989      1.00000
    105     -34.6986      1.00000
    106     -34.6942      1.00000
    107     -34.6916      1.00000
    108     -34.6913      1.00000
    109     -34.6864      1.00000
    110     -34.6854      1.00000
    111     -34.6852      1.00000
    112     -34.6837      1.00000
    113     -34.6810      1.00000
    114     -34.6801      1.00000
    115     -34.6784      1.00000
    116     -34.6767      1.00000
    117     -34.6760      1.00000
    118     -34.6695      1.00000
    119     -34.6630      1.00000
    120     -34.6608      1.00000
    121     -34.6572      1.00000
    122     -34.6565      1.00000
    123     -34.6522      1.00000
    124     -34.6522      1.00000
    125     -34.6521      1.00000
    126     -34.6512      1.00000
    127     -34.6492      1.00000
    128     -34.6370      1.00000
    129     -34.6364      1.00000
    130     -34.6352      1.00000
    131     -34.6349      1.00000
    132     -34.6284      1.00000
    133     -34.6273      1.00000
    134     -34.6246      1.00000
    135     -34.6233      1.00000
    136     -34.6221      1.00000
    137     -34.6113      1.00000
    138     -34.6088      1.00000
    139     -34.6070      1.00000
    140     -34.6007      1.00000
    141     -34.6002      1.00000
    142     -34.5947      1.00000
    143     -34.5895      1.00000
    144     -34.5879      1.00000
    145     -34.5865      1.00000
    146     -34.5771      1.00000
    147     -34.5756      1.00000
    148     -34.5743      1.00000
    149     -34.5656      1.00000
    150     -34.5610      1.00000
    151     -34.5600      1.00000
    152     -34.5532      1.00000
    153     -34.5482      1.00000
    154     -34.5441      1.00000
    155     -34.5428      1.00000
    156     -34.5371      1.00000
    157     -34.5346      1.00000
    158     -34.5335      1.00000
    159     -34.5233      1.00000
    160     -34.5225      1.00000
    161     -34.5196      1.00000
    162     -34.5190      1.00000
    163     -34.5147      1.00000
    164     -34.5106      1.00000
    165     -34.5060      1.00000
    166     -34.5004      1.00000
[...]
   81        1.573   3.461   0.000   5.034
   82        1.574   3.459   0.000   5.032
   83        1.574   3.460   0.000   5.034
   84        1.576   3.470   0.000   5.045
   85        1.575   3.462   0.000   5.037
   86        1.575   3.465   0.000   5.040
   87        1.575   3.463   0.000   5.038
   88        1.575   3.465   0.000   5.039
   89        1.575   3.461   0.000   5.035
   90        1.575   3.457   0.000   5.032
   91        1.569   3.471   0.000   5.040
   92        1.575   3.464   0.000   5.039
   93        1.577   3.470   0.000   5.047
   94        1.577   3.472   0.000   5.048
   95        1.576   3.473   0.000   5.050
   96        1.574   3.463   0.000   5.037
   97        1.575   3.466   0.000   5.041
   98        1.576   3.470   0.000   5.046
   99        1.575   3.463   0.000   5.038
  100        1.576   3.459   0.000   5.035
  101        1.575   3.466   0.000   5.041
  102        1.575   3.459   0.000   5.034
  103        1.576   3.468   0.000   5.044
  104        1.574   3.460   0.000   5.034
  105        1.577   3.471   0.000   5.047
  106        1.574   3.461   0.000   5.035
  107        1.575   3.460   0.000   5.035
  108        1.576   3.472   0.000   5.048
  109        1.574   3.462   0.000   5.036
  110        1.575   3.459   0.000   5.034
  111        1.576   3.471   0.000   5.048
  112        1.577   3.462   0.000   5.039
  113        1.576   3.473   0.000   5.049
  114        1.577   3.472   0.000   5.049
  115        1.574   3.465   0.000   5.039
  116        1.575   3.462   0.000   5.036
  117        1.575   3.461   0.000   5.036
  118        1.575   3.464   0.000   5.039
  119        1.576   3.476   0.000   5.052
  120        1.575   3.459   0.000   5.035
  121        1.574   3.463   0.000   5.037
  122        1.577   3.465   0.000   5.042
  123        1.576   3.472   0.000   5.048
  124        1.576   3.470   0.000   5.045
  125        1.575   3.473   0.000   5.049
  126        1.576   3.470   0.000   5.045
  127        1.575   3.459   0.000   5.033
  128        1.574   3.459   0.000   5.033
  129        1.576   3.468   0.000   5.044
  130        1.735   4.383   0.000   6.118
  131        1.737   4.377   0.000   6.114
  132        1.737   4.378   0.000   6.116
  133        1.738   4.387   0.000   6.125
  134        1.738   4.382   0.000   6.121
  135        1.737   4.368   0.000   6.105
  136        1.737   4.367   0.000   6.104
  137        1.739   4.380   0.000   6.118
  138        1.738   4.381   0.000   6.119
  139        1.739   4.387   0.000   6.127
  140        1.739   4.386   0.000   6.125
  141        1.738   4.379   0.000   6.117
  142        1.738   4.380   0.000   6.117
  143        1.738   4.385   0.000   6.123
  144        1.739   4.386   0.000   6.125
  145        1.738   4.382   0.000   6.120
  146        1.737   4.380   0.000   6.117
  147        1.737   4.369   0.000   6.106
  148        1.736   4.368   0.000   6.104
  149        1.739   4.383   0.000   6.123
  150        1.738   4.387   0.000   6.125
  151        1.738   4.376   0.000   6.114
  152        1.738   4.380   0.000   6.118
  153        1.737   4.382   0.000   6.119
  154        1.737   4.372   0.000   6.109
  155        1.738   4.373   0.000   6.111
  156        1.737   4.379   0.000   6.116
  157        1.737   4.369   0.000   6.106
  158        1.738   4.376   0.000   6.113
  159        1.738   4.375   0.000   6.113
  160        1.737   4.368   0.000   6.105
  161        1.736   4.369   0.000   6.106
  162        1.737   4.370   0.000   6.107
  163        1.736   4.367   0.000   6.103
  164        1.737   4.377   0.000   6.115
  165        1.737   4.369   0.000   6.106
  166        1.736   4.369   0.000   6.106
  167        1.737   4.369   0.000   6.106
  168        1.737   4.370   0.000   6.107
  169        1.738   4.375   0.000   6.113
  170        1.738   4.378   0.000   6.116
  171        1.736   4.384   0.000   6.120
  172        1.738   4.387   0.000   6.125
  173        1.737   4.371   0.000   6.108
  174        1.738   4.376   0.000   6.113
  175        1.738   4.381   0.000   6.119
  176        1.737   4.367   0.000   6.104
  177        1.738   4.379   0.000   6.117
  178        1.737   4.367   0.000   6.104
  179        1.738   4.375   0.000   6.113
  180        1.738   4.379   0.000   6.117
  181        1.736   4.369   0.000   6.105
  182        1.738   4.377   0.000   6.114
  183        1.737   4.368   0.000   6.104
  184        1.737   4.379   0.000   6.117
  185        1.737   4.382   0.000   6.119
  186        1.737   4.381   0.000   6.119
  187        1.737   4.370   0.000   6.107
  188        1.737   4.373   0.000   6.110
  189        1.738   4.382   0.000   6.120
  190        1.738   4.381   0.000   6.119
  191        1.739   4.385   0.000   6.124
  192        1.737   4.370   0.000   6.107
  193        1.739   4.387   0.000   6.126
  194        1.737   4.368   0.000   6.105
  195        1.737   4.377   0.000   6.114
  196        1.737   4.380   0.000   6.117
  197        1.738   4.372   0.000   6.110
  198        1.737   4.380   0.000   6.117
  199        1.738   4.380   0.000   6.118
  200        1.738   4.380   0.000   6.118
  201        1.738   4.380   0.000   6.117
  202        1.738   4.378   0.000   6.117
  203        1.738   4.380   0.000   6.118
  204        1.738   4.378   0.000   6.116
  205        1.737   4.373   0.000   6.110
  206        1.737   4.369   0.000   6.106
  207        1.737   4.368   0.000   6.105
  208        1.737   4.381   0.000   6.118
  209        1.737   4.375   0.000   6.112
  210        1.737   4.370   0.000   6.107
  211        1.737   4.371   0.000   6.108
  212        1.737   4.370   0.000   6.107
  213        1.739   4.374   0.000   6.113
  214        1.736   4.367   0.000   6.104
  215        1.738   4.380   0.000   6.118
  216        1.736   4.368   0.000   6.105
  217        1.737   4.367   0.000   6.104
  218        1.737   4.379   0.000   6.116
  219        1.738   4.378   0.000   6.116
  220        1.738   4.379   0.000   6.117
  221        1.738   4.380   0.000   6.118
  222        1.738   4.380   0.000   6.117
  223        1.738   4.381   0.000   6.119
  224        1.738   4.381   0.000   6.119
  225        1.738   4.380   0.000   6.118
  226        1.738   4.379   0.000   6.117
  227        1.736   4.378   0.000   6.114
  228        1.738   4.377   0.000   6.115
  229        1.738   4.378   0.000   6.116
  230        1.737   4.369   0.000   6.106
  231        1.738   4.376   0.000   6.114
  232        1.737   4.370   0.000   6.106
  233        1.738   4.378   0.000   6.116
  234        1.737   4.370   0.000   6.107
  235        1.737   4.371   0.000   6.108
  236        1.739   4.387   0.000   6.126
  237        1.739   4.386   0.000   6.125
  238        1.737   4.379   0.000   6.117
  239        1.738   4.380   0.000   6.118
  240        1.737   4.379   0.000   6.116
  241        1.738   4.377   0.000   6.115
  242        1.738   4.384   0.000   6.123
  243        1.738   4.387   0.000   6.125
  244        1.738   4.380   0.000   6.117
  245        1.738   4.378   0.000   6.115
  246        1.738   4.377   0.000   6.114
  247        1.738   4.385   0.000   6.124
  248        1.738   4.378   0.000   6.116
  249        1.738   4.385   0.000   6.123
  250        1.738   4.378   0.000   6.116
  251        1.738   4.380   0.000   6.118
  252        1.737   4.381   0.000   6.118
  253        1.738   4.378   0.000   6.116
  254        1.739   4.385   0.000   6.124
  255        1.738   4.377   0.000   6.115
  256        1.738   4.385   0.000   6.124
  257        1.738   4.379   0.000   6.117
--------------------------------------------------
tot        345.5271195.414 112.4561653.397
 


 magnetization (x)
 
# of ion       s       p       d       tot
------------------------------------------
    1       -0.000  -0.000   0.000  -0.000
    2       -0.000  -0.000   0.000   0.000
    3       -0.000  -0.000   0.000   0.000
    4       -0.000  -0.000   0.000   0.000
    5       -0.000  -0.000   0.000   0.000
    6        0.000  -0.000  -0.000  -0.000
    7       -0.000  -0.000   0.000   0.000
    8       -0.000  -0.000   0.000   0.000
    9       -0.000  -0.000  -0.000  -0.000
   10        0.000   0.001   0.061   0.063
   11       -0.000  -0.000  -0.000  -0.000
   12        0.000   0.000   0.000   0.000
   13       -0.000   0.000   0.000   0.000
   14       -0.000   0.000   0.005   0.005
   15        0.000   0.000   0.000   0.000
   16        0.000   0.000   0.000   0.000
   17        0.000   0.000   0.000   0.000
   18       -0.000  -0.000   0.000   0.000
   19       -0.000  -0.000   0.000   0.000
   20       -0.000  -0.000  -0.000  -0.000
   21        0.000  -0.000  -0.000  -0.000
   22       -0.000  -0.000  -0.000  -0.000
   23       -0.000  -0.000   0.000   0.000
   24       -0.000  -0.000   0.000   0.000
   25       -0.000  -0.000   0.000   0.000
   26        0.000   0.000   0.002   0.002
   27       -0.000  -0.000   0.000   0.000
   28        0.000   0.000   0.004   0.004
   29       -0.000  -0.000  -0.000  -0.000
   30        0.000   0.000   0.002   0.002
   31       -0.000  -0.000   0.000   0.000
   32        0.000   0.000   0.001   0.001
   33        0.000  -0.000  -0.000  -0.000
   34       -0.000  -0.000  -0.002  -0.003
   35       -0.000  -0.000  -0.000  -0.000
   36       -0.000  -0.000  -0.000  -0.000
   37        0.000  -0.000   0.000   0.000
   38       -0.000  -0.000   0.000   0.000
   39       -0.000  -0.000   0.000   0.000
   40       -0.000  -0.000  -0.000  -0.000
   41       -0.000  -0.000   0.000   0.000
   42        0.005   0.007   0.889   0.901
   43       -0.000  -0.000  -0.000  -0.000
   44       -0.000   0.000   0.001   0.001
   45       -0.000   0.000   0.000   0.000
   46        0.000  -0.000   0.001   0.001
   47       -0.000  -0.000   0.000   0.000
   48        0.000   0.000   0.000   0.000
   49        0.000  -0.000   0.000   0.000
   50       -0.000  -0.000  -0.000  -0.000
   51       -0.000  -0.000   0.000   0.000
   52        0.000   0.000   0.000   0.000
   53       -0.000  -0.000  -0.000  -0.000
   54       -0.000  -0.000   0.000  -0.000
   55       -0.000  -0.000   0.000   0.000
   56       -0.000  -0.000   0.000   0.000
   57       -0.000  -0.000  -0.000  -0.000
   58        0.000   0.000   0.008   0.009
   59       -0.000  -0.000   0.000   0.000
   60       -0.000   0.000   0.008   0.008
   61       -0.000  -0.000   0.000  -0.000
   62        0.000   0.000   0.001   0.001
   63       -0.000  -0.000   0.000   0.000
   64        0.000   0.000   0.000   0.000
   65       -0.000   0.000   0.000   0.000
   66       -0.000  -0.000   0.000  -0.000
   67       -0.000  -0.002   0.000  -0.002
   68       -0.000  -0.000   0.000  -0.000
   69       -0.000  -0.000   0.000  -0.000
   70       -0.000  -0.000   0.000  -0.000
   71       -0.000  -0.000   0.000  -0.000
   72       -0.000  -0.000   0.000  -0.000
   73       -0.000  -0.000   0.000  -0.000
   74       -0.000  -0.000   0.000  -0.000
   75       -0.001  -0.013   0.000  -0.014
   76       -0.000  -0.000   0.000  -0.000
   77       -0.000  -0.000   0.000  -0.000
   78       -0.000  -0.000   0.000  -0.000
   79       -0.000  -0.000   0.000  -0.000
   80       -0.000  -0.000   0.000  -0.000
   81       -0.000  -0.000   0.000  -0.000
   82       -0.000  -0.000   0.000  -0.000
   83       -0.000  -0.000   0.000  -0.000
   84       -0.000  -0.000   0.000  -0.000
   85       -0.000  -0.000   0.000  -0.000
   86       -0.000  -0.000   0.000  -0.000
   87       -0.000  -0.000   0.000  -0.000
   88        0.000  -0.000   0.000  -0.000
   89       -0.000  -0.000   0.000  -0.000
   90        0.000   0.000   0.000   0.000
   91       -0.001  -0.027   0.000  -0.029
   92       -0.000  -0.000   0.000  -0.000
   93       -0.000  -0.000   0.000  -0.000
   94        0.000   0.000   0.000   0.000
   95        0.000  -0.000   0.000  -0.000
   96       -0.000  -0.000   0.000  -0.000
   97       -0.000  -0.001   0.000  -0.001
   98       -0.000  -0.000   0.000  -0.000
   99       -0.000  -0.000   0.000  -0.000
  100       -0.000  -0.000   0.000  -0.000
  101        0.000  -0.000   0.000  -0.000
  102       -0.000  -0.000   0.000  -0.000
  103       -0.000  -0.000   0.000  -0.000
  104       -0.000  -0.000   0.000  -0.000
  105        0.000  -0.000   0.000  -0.000
  106       -0.000  -0.000   0.000  -0.000
  107       -0.000  -0.000   0.000  -0.000
  108       -0.000  -0.000   0.000  -0.000
  109       -0.000  -0.000   0.000  -0.000
  110       -0.000  -0.000   0.000  -0.000
  111       -0.000  -0.000   0.000  -0.000
  112       -0.000  -0.000   0.000  -0.000
  113       -0.000  -0.000   0.000  -0.000
  114       -0.000  -0.001   0.000  -0.001
  115       -0.000   0.000   0.000   0.000
  116       -0.000   0.000   0.000   0.000
  117       -0.000  -0.000   0.000  -0.000
  118       -0.000  -0.000   0.000  -0.000
  119       -0.000  -0.000   0.000  -0.000
  120        0.000  -0.000   0.000  -0.000
  121       -0.000   0.000   0.000   0.000
  122       -0.000  -0.000   0.000  -0.000
  123       -0.000  -0.000   0.000  -0.000
  124       -0.000  -0.000   0.000  -0.000
  125       -0.000  -0.000   0.000  -0.000
  126        0.000  -0.000   0.000  -0.000
  127       -0.000  -0.000   0.000  -0.000
  128       -0.000  -0.000   0.000  -0.000
  129       -0.000  -0.001   0.000  -0.001
  130       -0.000  -0.000   0.000  -0.000
  131       -0.000  -0.000   0.000  -0.000
  132       -0.000  -0.000   0.000  -0.000
  133       -0.000  -0.000   0.000  -0.000
  134        0.000  -0.000   0.000  -0.000
  135       -0.000  -0.000   0.000  -0.000
  136       -0.000  -0.000   0.000  -0.000
  137       -0.000  -0.000   0.000  -0.000
  138       -0.000  -0.000   0.000  -0.000
  139       -0.000  -0.000   0.000  -0.000
  140       -0.000  -0.000   0.000  -0.000
  141       -0.000  -0.000   0.000  -0.000
  142       -0.000  -0.000   0.000  -0.000
  143       -0.000  -0.000   0.000  -0.000
  144       -0.000  -0.000   0.000  -0.000
  145       -0.000  -0.000   0.000  -0.000
  146       -0.000  -0.000   0.000  -0.000
  147       -0.000  -0.000   0.000  -0.000
  148       -0.000  -0.000   0.000  -0.000
  149       -0.000  -0.000   0.000  -0.000
  150       -0.000  -0.000   0.000  -0.000
  151       -0.000  -0.000   0.000  -0.000
  152       -0.000  -0.000   0.000  -0.000
  153       -0.000  -0.000   0.000  -0.000
  154       -0.000  -0.000   0.000  -0.000
  155       -0.000  -0.000   0.000  -0.000
  156       -0.000  -0.006   0.000  -0.006
  157       -0.000  -0.000   0.000  -0.000
  158       -0.000  -0.000   0.000  -0.000
  159       -0.000  -0.000   0.000  -0.000
  160       -0.000  -0.000   0.000  -0.000
  161       -0.000  -0.000   0.000  -0.000
  162       -0.000  -0.000   0.000  -0.000
  163       -0.000  -0.000   0.000  -0.000
  164       -0.000  -0.000   0.000  -0.000
  165       -0.000  -0.000   0.000  -0.000
  166        0.000  -0.000   0.000  -0.000
  167       -0.000  -0.000   0.000  -0.000
  168       -0.000  -0.000   0.000  -0.000
  169       -0.000  -0.000   0.000  -0.000
  170       -0.000  -0.000   0.000  -0.000
  171       -0.000  -0.000   0.000  -0.000
  172       -0.000  -0.000   0.000  -0.000
  173        0.000  -0.000   0.000  -0.000
  174        0.000  -0.000   0.000  -0.000
  175       -0.000  -0.000   0.000  -0.000
  176       -0.000  -0.000   0.000  -0.000
  177       -0.000  -0.000   0.000  -0.000
  178       -0.000  -0.000   0.000  -0.000
  179       -0.000  -0.000   0.000  -0.000
  180       -0.000  -0.000   0.000  -0.000
  181       -0.000  -0.000   0.000  -0.000
  182       -0.000   0.000   0.000   0.000
  183       -0.000  -0.000   0.000  -0.000
  184       -0.000  -0.000   0.000  -0.000
  185       -0.000  -0.000   0.000  -0.000
  186       -0.000  -0.000   0.000  -0.000
  187        0.000  -0.000   0.000  -0.000
  188       -0.000  -0.000   0.000  -0.000
  189        0.000  -0.000   0.000  -0.000
  190        0.000  -0.000   0.000  -0.000
  191       -0.000  -0.000   0.000  -0.000
  192       -0.000  -0.000   0.000  -0.000
  193       -0.000  -0.000   0.000  -0.000
  194       -0.000  -0.000   0.000  -0.000
  195       -0.000   0.001   0.000   0.000
  196       -0.000   0.000   0.000   0.000
  197       -0.000  -0.000   0.000  -0.000
  198        0.000  -0.000   0.000  -0.000
  199       -0.000  -0.000   0.000  -0.000
  200       -0.000  -0.000   0.000  -0.000
  201       -0.000  -0.000   0.000  -0.000
  202       -0.000  -0.000   0.000  -0.000
  203       -0.000  -0.000   0.000  -0.000
  204       -0.000  -0.000   0.000  -0.000
  205        0.000  -0.000   0.000  -0.000
  206        0.000   0.000   0.000   0.000
  207        0.000   0.000   0.000   0.000
  208        0.000  -0.000   0.000  -0.000
  209        0.000   0.000   0.000   0.000
  210       -0.000  -0.000   0.000  -0.000
  211       -0.000  -0.000   0.000  -0.000
  212       -0.000  -0.000   0.000  -0.000
  213       -0.000  -0.000   0.000  -0.000
  214       -0.000  -0.000   0.000  -0.000
  215       -0.000  -0.000   0.000  -0.000
  216        0.000   0.000   0.000   0.000
  217       -0.000  -0.000   0.000  -0.000
  218       -0.000  -0.000   0.000  -0.000
  219       -0.000   0.000   0.000   0.000
  220       -0.000  -0.000   0.000  -0.000
  221       -0.000  -0.000   0.000  -0.000
  222        0.000   0.000   0.000   0.000
  223       -0.000  -0.000   0.000  -0.000
  224       -0.000  -0.000   0.000  -0.000
  225       -0.000  -0.000   0.000  -0.000
  226       -0.000  -0.000   0.000  -0.000
  227       -0.000  -0.001   0.000  -0.001
  228        0.000   0.000   0.000   0.000
  229        0.000  -0.000   0.000  -0.000
  230        0.000  -0.000   0.000   0.000
  231        0.000   0.000   0.000   0.000
  232        0.000   0.000   0.000   0.000
  233       -0.000  -0.000   0.000  -0.000
  234       -0.000  -0.000   0.000  -0.000
  235       -0.000  -0.000   0.000  -0.000
  236       -0.000  -0.000   0.000  -0.000
  237        0.000  -0.000   0.000  -0.000
  238       -0.000  -0.000   0.000  -0.000
  239       -0.000   0.002   0.000   0.001
  240        0.000  -0.000   0.000  -0.000
  241       -0.000  -0.000   0.000  -0.000
  242        0.000  -0.000   0.000  -0.000
  243       -0.000  -0.000   0.000  -0.000
  244        0.000  -0.000   0.000  -0.000
  245       -0.000  -0.000   0.000  -0.000
  246       -0.000  -0.000   0.000  -0.000
  247       -0.000  -0.000   0.000  -0.000
  248       -0.000  -0.000   0.000  -0.000
  249       -0.000  -0.000   0.000  -0.000
  250       -0.000  -0.000   0.000  -0.000
  251       -0.000  -0.000   0.000  -0.000
  252       -0.000   0.001   0.000   0.001
  253        0.000  -0.000   0.000  -0.000
  254       -0.000  -0.000   0.000  -0.000
  255       -0.000  -0.000   0.000  -0.000
  256       -0.000  -0.000   0.000  -0.000
  257       -0.000  -0.000   0.000  -0.000
--------------------------------------------------
tot          0.002  -0.046   0.982   0.938
 

 total amount of memory used by VASP MPI-rank0   291479. kBytes
=======================================================================

   base      :      30000. kBytes
   nonlr-proj:      49444. kBytes
   fftplans  :      27976. kBytes
   grid      :      34041. kBytes
   one-center:       1026. kBytes
   wavefun   :     148992. kBytes
 
  
  
 General timing and accounting informations for this job:
 ========================================================
  
                  Total CPU time used (sec):      853.058
                            User time (sec):      526.091
                          System time (sec):      326.967
                         Elapsed time (sec):      877.595
  
                   Maximum memory used (kb):      622080.
                   Average memory used (kb):           0.
  
                          Minor page faults:        80522
                          Major page faults:           10
                 Voluntary context switches:        16645
