 vasp.5.4.4.18Apr17-6-g9f103f2a35 (build Jul 16 2019 12:12:28) complex          
  
 executed on             LinuxIFC date 2020.01.06  15:35:42
 running on   96 total cores
 distrk:  each k-point on   96 cores,    1 groups
 distr:  one band on NCORES_PER_BAND=   8 cores,   12 groups


--------------------------------------------------------------------------------------------------------


 INCAR:
 POTCAR:    PAW_PBE Ti_pv 07Sep2000               
 POTCAR:    PAW_PBE O 08Apr2002                   
 POTCAR:    PAW_PBE F 08Apr2002                   
 POTCAR:    PAW_PBE Ti_pv 07Sep2000               
   VRHFIN =Ti: d3 s1                                                            
   LEXCH  = PE                                                                  
   EATOM  =  1042.5995 eV,   76.6289 Ry                                         
                                                                                
   TITEL  = PAW_PBE Ti_pv 07Sep2000                                             
   LULTRA =        F    use ultrasoft PP ?                                      
   IUNSCR =        1    unscreen: 0-lin 1-nonlin 2-no                           
   RPACOR =    2.200    partial core radius                                     
   POMASS =   47.880; ZVAL   =   10.000    mass and valenz                      
   RCORE  =    2.500    outmost cutoff radius                                   
   RWIGS  =    2.500; RWIGS  =    1.323    wigner-seitz radius (au A)           
   ENMAX  =  222.335; ENMIN  =  166.751 eV                                      
   RCLOC  =    1.701    cutoff for local pot                                    
   LCOR   =        T    correct aug charges                                     
   LPAW   =        T    paw PP                                                  
   EAUG   =  482.848                                                            
   DEXC   =    0.000                                                            
   RMAX   =    2.564    core radius for proj-oper                               
   RAUG   =    1.300    factor for augmentation sphere                          
   RDEP   =    2.538    radius for radial grids                                 
   RDEPT  =    1.952    core radius for aug-charge                              
                                                                                
   Atomic configuration                                                         
    8 entries                                                                   
     n  l   j            E        occ.                                          
     1  0  0.50     -4865.3608   2.0000                                         
     2  0  0.50      -533.1368   2.0000                                         
     2  1  1.50      -440.5031   6.0000                                         
     3  0  0.50       -59.3186   2.0000                                         
     3  1  1.50       -35.7012   6.0000                                         
     3  2  2.50        -1.9157   3.0000                                         
     4  0  0.50        -3.7291   1.0000                                         
     4  3  2.50        -1.3606   0.0000                                         
   Description                                                                  
     l       E           TYP  RCUT    TYP  RCUT                                 
     1    -35.7012140     23  2.300                                             
     1     -1.3605826     23  2.300                                             
     2     -1.9156996     23  2.500                                             
     2     -0.4063033     23  2.500                                             
     0     -3.7290856     23  2.500                                             
     0     20.4087390     23  2.500                                             
  local pseudopotential read in
  partial core-charges read in
  partial kinetic energy density read in
  atomic valenz-charges read in
  non local Contribution for L=           1  read in
    real space projection operators read in
  non local Contribution for L=           1  read in
    real space projection operators read in
  non local Contribution for L=           2  read in
    real space projection operators read in
  non local Contribution for L=           2  read in
    real space projection operators read in
  non local Contribution for L=           0  read in
    real space projection operators read in
  non local Contribution for L=           0  read in
    real space projection operators read in
    PAW grid and wavefunctions read in
 
   number of l-projection  operators is LMAX  =           6
   number of lm-projection operators is LMMAX =          18
 
 POTCAR:    PAW_PBE O 08Apr2002                   
   VRHFIN =O: s2p4                                                              
   LEXCH  = PE                                                                  
   EATOM  =   432.3788 eV,   31.7789 Ry                                         
                                                                                
   TITEL  = PAW_PBE O 08Apr2002                                                 
   LULTRA =        F    use ultrasoft PP ?                                      
   IUNSCR =        1    unscreen: 0-lin 1-nonlin 2-no                           
   RPACOR =    1.200    partial core radius                                     
   POMASS =   16.000; ZVAL   =    6.000    mass and valenz                      
   RCORE  =    1.520    outmost cutoff radius                                   
   RWIGS  =    1.550; RWIGS  =    0.820    wigner-seitz radius (au A)           
   ENMAX  =  400.000; ENMIN  =  300.000 eV                                      
   ICORE  =        2    local potential                                         
   LCOR   =        T    correct aug charges                                     
   LPAW   =        T    paw PP                                                  
   EAUG   =  605.392                                                            
   DEXC   =    0.000                                                            
   RMAX   =    1.553    core radius for proj-oper                               
   RAUG   =    1.300    factor for augmentation sphere                          
   RDEP   =    1.550    radius for radial grids                                 
   RDEPT  =    1.329    core radius for aug-charge                              
                                                                                
   Atomic configuration                                                         
    4 entries                                                                   
     n  l   j            E        occ.                                          
     1  0  0.50      -514.6923   2.0000                                         
     2  0  0.50       -23.9615   2.0000                                         
     2  1  0.50        -9.0305   4.0000                                         
     3  2  1.50        -9.5241   0.0000                                         
   Description                                                                  
     l       E           TYP  RCUT    TYP  RCUT                                 
     0    -23.9615318     23  1.200                                             
     0     -9.5240782     23  1.200                                             
     1     -9.0304911     23  1.520                                             
     1      8.1634956     23  1.520                                             
     2     -9.5240782      7  1.500                                             
  local pseudopotential read in
  partial core-charges read in
  partial kinetic energy density read in
  kinetic energy density of atom read in
  atomic valenz-charges read in
  non local Contribution for L=           0  read in
    real space projection operators read in
  non local Contribution for L=           0  read in
    real space projection operators read in
  non local Contribution for L=           1  read in
    real space projection operators read in
  non local Contribution for L=           1  read in
    real space projection operators read in
    PAW grid and wavefunctions read in
 
   number of l-projection  operators is LMAX  =           4
   number of lm-projection operators is LMMAX =           8
 
 POTCAR:    PAW_PBE F 08Apr2002                   
   VRHFIN =F: s2p5                                                              
   LEXCH  = PE                                                                  
   EATOM  =   659.6475 eV,   48.4827 Ry                                         
                                                                                
   TITEL  = PAW_PBE F 08Apr2002                                                 
   LULTRA =        F    use ultrasoft PP ?                                      
   IUNSCR =        1    unscreen: 0-lin 1-nonlin 2-no                           
   RPACOR =    1.200    partial core radius                                     
   POMASS =   18.998; ZVAL   =    7.000    mass and valenz                      
   RCORE  =    1.520    outmost cutoff radius                                   
   RWIGS  =    1.500; RWIGS  =    0.794    wigner-seitz radius (au A)           
   ENMAX  =  400.000; ENMIN  =  300.000 eV                                      
   ICORE  =        2    local potential                                         
   LCOR   =        T    correct aug charges                                     
   LPAW   =        T    paw PP                                                  
   EAUG   =  613.614                                                            
   RMAX   =    1.555    core radius for proj-oper                               
   RAUG   =    1.300    factor for augmentation sphere                          
   RDEP   =    1.539    radius for radial grids                                 
   RDEPT  =    1.299    core radius for aug-charge                              
                                                                                
   Atomic configuration                                                         
    4 entries                                                                   
     n  l   j            E        occ.                                          
     1  0  0.50      -663.3661   2.0000                                         
     2  0  0.50       -29.8995   2.0000                                         
     2  1  0.50       -11.1114   5.0000                                         
     3  2  1.50       -10.8847   0.0000                                         
   Description                                                                  
     l       E           TYP  RCUT    TYP  RCUT                                 
     0    -29.8995018     23  1.200                                             
     0     -9.5240782     23  1.200                                             
     1    -11.1113914     23  1.520                                             
     1      1.3605826     23  1.520                                             
     2    -10.8846608      7  1.500                                             
  local pseudopotential read in
  partial core-charges read in
  partial kinetic energy density read in
  atomic valenz-charges read in
  non local Contribution for L=           0  read in
    real space projection operators read in
  non local Contribution for L=           0  read in
    real space projection operators read in
  non local Contribution for L=           1  read in
    real space projection operators read in
  non local Contribution for L=           1  read in
    real space projection operators read in
    PAW grid and wavefunctions read in
 
   number of l-projection  operators is LMAX  =           4
   number of lm-projection operators is LMMAX =           8
 
 Optimization of the real space projectors (new method)

 maximal supplied QI-value         = 15.12
 optimisation between [QCUT,QGAM] = [ 11.34, 22.83] = [ 36.00,145.93] Ry 
 Optimized for a Real-space Cutoff    1.56 Angstroem

   l    n(q)    QCUT    max X(q) W(low)/X(q) W(high)/X(q)  e(spline) 
   1     10    11.338     4.216    0.27E-04    0.12E-04    0.66E-07
   1     10    11.338     5.422    0.81E-04    0.24E-04    0.19E-06
   2     10    11.338    72.084    0.64E-04    0.21E-03    0.51E-06
   2     10    11.338    65.965    0.63E-04    0.21E-03    0.50E-06
   0     11    11.338    41.531    0.33E-04    0.54E-04    0.13E-06
   0     11    11.338    16.290    0.26E-04    0.41E-04    0.11E-06
 Optimization of the real space projectors (new method)

 maximal supplied QI-value         = 24.76
 optimisation between [QCUT,QGAM] = [ 11.39, 22.77] = [ 36.31,145.25] Ry 
 Optimized for a Real-space Cutoff    1.20 Angstroem

   l    n(q)    QCUT    max X(q) W(low)/X(q) W(high)/X(q)  e(spline) 
   0      8    11.387    20.381    0.89E-04    0.31E-03    0.27E-06
   0      8    11.387    15.268    0.93E-04    0.32E-03    0.29E-06
   1      8    11.387     5.964    0.53E-04    0.28E-03    0.29E-06
   1      8    11.387     5.382    0.37E-04    0.22E-03    0.26E-06
 Optimization of the real space projectors (new method)

 maximal supplied QI-value         = 24.76
 optimisation between [QCUT,QGAM] = [ 11.39, 22.77] = [ 36.31,145.25] Ry 
 Optimized for a Real-space Cutoff    1.20 Angstroem

   l    n(q)    QCUT    max X(q) W(low)/X(q) W(high)/X(q)  e(spline) 
   0      8    11.387    14.049    0.69E-04    0.23E-03    0.18E-06
   0      8    11.387     8.945    0.88E-04    0.30E-03    0.26E-06
   1      8    11.387     7.086    0.62E-04    0.27E-03    0.27E-06
   1      8    11.387     6.747    0.46E-04    0.23E-03    0.25E-06

 ----------------------------------------------------------------------------- 
|                                                                             |
|  ADVICE TO THIS USER RUNNING 'VASP/VAMP'   (HEAR YOUR MASTER'S VOICE ...):  |
|                                                                             |
|      You enforced a specific xc-type in the INCAR file,                     |
|      a different type was found on the POTCAR file                          |
|          I HOPE YOU KNOW, WHAT YOU ARE  DOING                               |
|                                                                             |
 ----------------------------------------------------------------------------- 

  PAW_PBE Ti_pv 07Sep2000               :
 energy of atom  1       EATOM=-1042.5995
 kinetic energy error for atom=    0.0024 (will be added to EATOM!!)
  PAW_PBE O 08Apr2002                   :
 energy of atom  2       EATOM= -432.3788
 kinetic energy error for atom=    0.0224 (will be added to EATOM!!)
  PAW_PBE F 08Apr2002                   :
 energy of atom  3       EATOM= -659.6475
 kinetic energy error for atom=    0.0354 (will be added to EATOM!!)
 
 
 POSCAR: Ti64 O64 F128                           
  positions in direct lattice
  velocities in cartesian coordinates
 exchange correlation table for  LEXCH =       14
   RHO(1)=    0.500       N(1)  =     2000
   RHO(2)=  100.500       N(2)  =     4000

 VTST: version 3.2, (02/03/18)

 CHAIN: initializing optimizer
 
 OPT: Using VASP QUASI-newton optimizer
 CHAIN: Read ICHAIN            0
 
 POSCAR: Ti64 O64 F128                           
  positions in direct lattice
  velocities in cartesian coordinates
 


--------------------------------------------------------------------------------------------------------


 ion  position               nearest neighbor table
   1  0.995  0.996  0.995- 117 1.86  67 1.88 102 1.89 170 2.02 211 2.03 129 2.05
   2  0.000  0.992  0.493- 118 1.81  66 1.82 171 1.94 192 1.95 130 2.01 212 2.08
   3  0.006  0.495  0.998-  88 1.83 116 1.86 137 1.93 131 1.98 213 2.01 193 2.02
   4  0.994  0.502  0.507-  65 1.82 103 1.83 214 1.93 222 2.00 172 2.01 136 2.03
   5  0.494  0.995  1.000- 100 1.83 120 1.84 139 1.95 132 1.96 215 2.01 173 2.03
   6  0.500  0.008  0.500- 111 1.77 190 1.90 133 1.91 138 1.92 174 1.93 224 2.01
   7  0.504  0.496  0.996-  69 1.87 119 1.88  89 1.88 191 2.02 134 2.03 216 2.04
   8  0.492  0.499  0.495- 101 1.80  68 1.85 223 1.97 217 1.97 135 2.01 175 2.06
   9  0.007  0.003  0.256-  90 1.83  66 1.86 218 1.94 226 1.97 129 2.00 196 2.06
  10  0.001  0.008  0.757-  67 1.79 112 1.84 176 1.94 197 1.98 227 2.04 130 2.06
  11  0.993  0.494  0.252- 106 1.82 121 1.86 136 1.93 131 1.96 219 2.00 177 2.02
  12  0.992  0.499  0.742- 107 1.82  65 1.82 225 1.93 220 1.96 137 2.02 178 2.03
  13  0.507  0.008  0.250- 113 1.81  91 1.84 132 1.92 138 1.97 194 2.00 230 2.04
  14  0.493  0.005  0.751- 104 1.81 114 1.84 139 1.93 133 1.99 231 2.01 179 2.03
  15  0.493  0.498  0.257-  68 1.82 105 1.84 228 1.95 221 1.99 134 2.01 180 2.04
  16  0.501  0.505  0.758-  69 1.80 115 1.87 181 1.94 195 1.96 229 2.03 135 2.06
  17  0.995  0.257  0.001- 116 1.82 109 1.87 145 1.96 140 1.96 182 2.01 211 2.01
  18  0.999  0.248  0.491-  73 1.77 212 1.91 183 1.93 201 1.93 222 1.94 141 2.01
  19  0.998  0.758  0.006- 117 1.81  70 1.85 202 1.94 184 1.97 147 2.04 213 2.05
  20  0.998  0.756  0.506- 118 1.83  71 1.83 203 1.94 185 1.96 214 2.02 146 2.02
  21  0.495  0.258  0.000- 119 1.80 108 1.84 149 1.95 142 1.97 186 2.03 215 2.06
  22  0.508  0.245  0.500-  92 1.80 111 1.89 143 1.92 148 1.93 223 1.96 198 2.00
  23  0.507  0.757  0.999-  93 1.82 120 1.83 151 1.94 144 1.99 216 2.01 199 2.01
  24  0.507  0.753  0.509-  72 1.79  94 1.83 217 1.95 224 1.96 200 2.01 150 2.07
  25  1.000  0.258  0.255- 121 1.79  73 1.88 208 1.94 187 1.95 140 1.98 218 2.02
  26  0.006  0.242  0.747- 112 1.80  95 1.83 141 1.96 145 1.97 225 2.04 209 2.05
  27  0.007  0.749  0.243-  70 1.81  96 1.84 219 1.94 226 1.97 146 2.05 210 2.06
  28  0.993  0.751  0.743- 110 1.82  71 1.84 227 1.93 220 1.97 188 2.02 147 2.02
  29  0.508  0.242  0.251-  97 1.81 113 1.82 142 1.92 148 1.96 228 2.00 204 2.02
  30  0.507  0.243  0.750-  98 1.84 114 1.84 149 1.92 143 1.97 229 2.02 205 2.02
  31  0.507  0.752  0.252-  99 1.79 150 1.92 230 1.93 221 1.93 144 1.94 206 2.00
  32  0.501  0.742  0.743- 115 1.80  72 1.84 189 1.93 207 1.96 151 2.02 231 2.06
  33  0.256  0.999  0.006-  74 1.84 100 1.86 245 1.93 232 1.96 170 2.01 156 2.04
  34  0.249  0.994  0.507- 127 1.82  75 1.84 171 1.94 190 1.98 233 2.02 155 2.02
  35  0.243  0.508  0.998- 122 1.82  88 1.84 158 1.93 152 1.97 191 2.02 244 2.03
  36  0.254  0.494  0.506-  76 1.85 101 1.87 126 1.88 172 2.03 157 2.04 234 2.04
  37  0.757  0.000  0.994- 102 1.79  80 1.87 235 1.95 248 1.95 173 2.04 153 2.05
  38  0.751  0.007  0.494-  79 1.83 123 1.83 192 1.92 174 1.98 154 2.00 249 2.02
  39  0.742  0.501  0.005-  89 1.79  77 1.87 236 1.95 246 1.95 160 2.03 193 2.05
  40  0.756  0.498  0.505-  78 1.84 103 1.85 247 1.95 237 1.97 175 2.01 159 2.02
  41  0.245  0.002  0.244-  74 1.83  90 1.84 238 1.93 251 1.96 155 2.04 194 2.05
  42  0.257  0.998  0.744-  75 1.84 104 1.84 252 1.93 239 1.96 176 2.02 156 2.02
  43  0.255  0.492  0.252- 128 1.83 105 1.83 157 1.93 152 1.96 240 2.03 177 2.04
  44  0.248  0.506  0.741-  76 1.79 124 1.83 178 1.94 195 1.97 250 2.03 158 2.05
  45  0.745  1.000  0.256-  91 1.85  79 1.86 255 1.94 241 1.95 153 2.00 196 2.00
  46  0.748  0.006  0.756-  80 1.82 125 1.83 179 1.94 197 1.96 256 2.03 154 2.06
  47  0.756  0.500  0.243-  77 1.81 106 1.85 242 1.95 253 1.95 180 2.02 159 2.04
  48  0.757  0.498  0.743- 107 1.82  78 1.84 254 1.93 243 1.97 181 2.02 160 2.03
  49  0.257  0.251  0.006- 108 1.83  81 1.86 244 1.93 232 1.97 167 2.02 182 2.05
  50  0.253  0.257  0.506- 126 1.80  82 1.85 198 1.95 183 2.00 166 2.03 233 2.05
  51  0.252  0.743  0.993- 122 1.81  85 1.83 199 1.94 184 1.96 245 2.04 161 2.04
  52  0.251  0.755  0.493-  84 1.83 127 1.86 200 1.95 185 1.97 234 2.00 162 2.04
  53  0.758  0.250  0.006- 109 1.80  83 1.85 235 1.94 246 1.94 169 2.02 186 2.03
  54  0.743  0.243  0.498- 123 1.81  92 1.84 168 1.93 163 1.95 247 2.01 201 2.03
  55  0.742  0.750  0.994-  93 1.82  87 1.83 236 1.94 248 1.94 202 2.01 164 2.04
  56  0.742  0.752  0.494-  94 1.81  86 1.86 249 1.94 237 1.95 165 2.01 203 2.02
  57  0.252  0.257  0.244- 128 1.82  81 1.82 204 1.95 187 1.98 166 2.03 238 2.03
  58  0.244  0.251  0.744-  82 1.83  95 1.84 250 1.93 239 1.97 167 2.03 205 2.05
  59  0.244  0.748  0.256-  96 1.83  84 1.84 240 1.93 251 1.97 161 2.02 206 2.06
  60  0.248  0.742  0.757- 124 1.81  85 1.83 188 1.93 207 1.97 162 2.04 252 2.04
  61  0.743  0.251  0.242-  83 1.79  97 1.83 253 1.93 241 1.94 208 2.03 168 2.06
  62  0.744  0.242  0.751- 125 1.82  98 1.84 169 1.93 163 1.99 209 2.02 254 2.03
  63  0.746  0.750  0.257-  86 1.81  99 1.90 242 1.93 255 1.94 210 1.98 164 2.02
  64  0.757  0.751  0.757- 110 1.82  87 1.84 256 1.93 243 1.96 189 2.03 165 2.05
  65  0.004  0.501  0.625-   4 1.82  12 1.82
  66  0.996  0.005  0.376-   2 1.82   9 1.86
  67  0.999  0.002  0.873-  10 1.79   1 1.88
  68  0.502  0.497  0.375-  15 1.82   8 1.85
  69  0.497  0.500  0.875-  16 1.80   7 1.87
  70  0.999  0.747  0.126-  27 1.81  19 1.85
  71  0.000  0.746  0.624-  20 1.83  28 1.84
  72  0.500  0.755  0.625-  24 1.79  32 1.84
  73  0.998  0.247  0.377-  18 1.77  25 1.88
  74  0.253  0.003  0.125-  41 1.83  33 1.84
  75  0.252  0.003  0.625-  34 1.84  42 1.84
  76  0.243  0.497  0.626-  44 1.79  36 1.85
  77  0.752  0.495  0.126-  47 1.81  39 1.87
  78  0.748  0.497  0.624-  48 1.84  40 1.84
  79  0.752  0.997  0.376-  38 1.83  45 1.86
  80  0.748  0.997  0.874-  46 1.82  37 1.87
  81  0.249  0.249  0.126-  57 1.82  49 1.86
  82  0.254  0.249  0.625-  58 1.83  50 1.85
  83  0.747  0.254  0.126-  61 1.79  53 1.85
  84  0.254  0.748  0.374-  52 1.83  59 1.84
  85  0.251  0.753  0.875-  51 1.83  60 1.83
  86  0.751  0.753  0.374-  63 1.81  56 1.86
  87  0.748  0.754  0.875-  55 1.83  64 1.84
  88  0.124  0.502  0.998-   3 1.83  35 1.84
  89  0.626  0.506  0.000-  39 1.79   7 1.88
  90  0.126  0.001  0.253-   9 1.83  41 1.84
  91  0.625  0.999  0.252-  13 1.84  45 1.85
  92  0.624  0.252  0.498-  22 1.80  54 1.84
  93  0.625  0.745  0.003-  55 1.82  23 1.82
  94  0.625  0.756  0.498-  56 1.81  24 1.83
  95  0.125  0.251  0.748-  26 1.83  58 1.84
  96  0.126  0.753  0.251-  59 1.83  27 1.84
  97  0.626  0.248  0.258-  29 1.81  61 1.83
  98  0.625  0.251  0.746-  30 1.84  62 1.84
  99  0.623  0.754  0.250-  31 1.79  63 1.90
 100  0.376  0.002  0.995-   5 1.83  33 1.86
 101  0.375  0.502  0.501-   8 1.80  36 1.87
 102  0.873  0.004  0.002-  37 1.79   1 1.89
 103  0.875  0.499  0.497-   4 1.83  40 1.85
 104  0.376  0.996  0.754-  14 1.81  42 1.84
 105  0.374  0.498  0.251-  43 1.83  15 1.84
 106  0.876  0.500  0.254-  11 1.82  47 1.85
 107  0.875  0.505  0.750-  12 1.82  48 1.82
 108  0.376  0.247  0.000-  49 1.83  21 1.84
 109  0.874  0.247  0.002-  53 1.80  17 1.87
 110  0.875  0.747  0.750-  64 1.82  28 1.82
 111  0.504  0.123  0.499-   6 1.77  22 1.89
 112  0.996  0.126  0.745-  26 1.80  10 1.84
 113  0.498  0.125  0.257-  13 1.81  29 1.82
 114  0.501  0.124  0.745-  14 1.84  30 1.84
 115  0.500  0.626  0.748-  32 1.80  16 1.87
 116  0.999  0.375  0.003-  17 1.82   3 1.86
 117  1.000  0.875  0.001-  19 1.81   1 1.86
 118  0.001  0.875  0.498-   2 1.81  20 1.83
 119  0.501  0.374  0.004-  21 1.80   7 1.88
 120  0.502  0.876  0.001-  23 1.83   5 1.84
 121  0.004  0.374  0.248-  25 1.79  11 1.86
 122  0.252  0.625  0.001-  51 1.81  35 1.82
 123  0.748  0.125  0.502-  54 1.81  38 1.83
 124  0.250  0.625  0.751-  60 1.81  44 1.83
 125  0.752  0.125  0.746-  62 1.82  46 1.83
 126  0.249  0.373  0.495-  50 1.80  36 1.88
 127  0.248  0.876  0.500-  34 1.82  52 1.86
 128  0.245  0.374  0.255-  57 1.82  43 1.83
 129  0.000  0.002  0.127-   9 2.00   1 2.05
 130  0.004  0.999  0.624-   2 2.01  10 2.06
 131  0.998  0.507  0.125-  11 1.96   3 1.98
 132  0.497  0.003  0.126-  13 1.92   5 1.96
 133  0.500  0.993  0.623-   6 1.91  14 1.99
 134  0.501  0.504  0.127-  15 2.01   7 2.03
 135  0.504  0.498  0.625-   8 2.01  16 2.06
 136  0.005  0.498  0.376-  11 1.93   4 2.03
 137  0.999  0.499  0.873-   3 1.93  12 2.02
 138  0.501  0.994  0.377-   6 1.92  13 1.97
 139  0.511  0.002  0.875-  14 1.93   5 1.95
 140  0.003  0.246  0.127-  17 1.96  25 1.98
 141  0.997  0.257  0.621-  26 1.96  18 2.01
 142  0.504  0.244  0.127-  29 1.92  21 1.97
 143  0.494  0.252  0.623-  22 1.92  30 1.97
 144  0.496  0.749  0.127-  31 1.94  23 1.99
 145  0.998  0.251  0.874-  17 1.96  26 1.97
 146  0.996  0.749  0.375-  20 2.02  27 2.05
 147  0.002  0.750  0.874-  28 2.02  19 2.04
 148  0.495  0.257  0.376-  22 1.93  29 1.96
 149  0.503  0.248  0.874-  30 1.92  21 1.95
 150  0.494  0.752  0.376-  31 1.92  24 2.07
 151  0.498  0.751  0.874-  23 1.94  32 2.02
 152  0.247  0.496  0.125-  43 1.96  35 1.97
 153  0.748  0.005  0.127-  45 2.00  37 2.05
 154  0.746  0.997  0.623-  38 2.00  46 2.06
 155  0.254  0.001  0.376-  34 2.02  41 2.04
 156  0.245  0.996  0.874-  42 2.02  33 2.04
 157  0.244  0.509  0.375-  43 1.93  36 2.04
 158  0.255  0.496  0.874-  35 1.93  44 2.05
 159  0.745  0.503  0.375-  40 2.02  47 2.04
 160  0.750  0.503  0.874-  39 2.03  48 2.03
 161  0.253  0.754  0.125-  59 2.02  51 2.04
 162  0.250  0.750  0.625-  60 2.04  52 2.04
 163  0.754  0.258  0.623-  54 1.95  62 1.99
 164  0.753  0.747  0.126-  63 2.02  55 2.04
 165  0.749  0.748  0.624-  56 2.01  64 2.05
 166  0.250  0.244  0.375-  50 2.03  57 2.03
 167  0.250  0.251  0.875-  49 2.02  58 2.03
 168  0.758  0.248  0.374-  54 1.93  61 2.06
 169  0.749  0.248  0.876-  62 1.93  53 2.02
 170  0.126  0.001  0.001-  33 2.01   1 2.02
 171  0.125  0.008  0.498-  34 1.94   2 1.94
 172  0.123  0.501  0.495-   4 2.01  36 2.03
 173  0.625  0.001  0.005-   5 2.03  37 2.04
 174  0.624  0.990  0.501-   6 1.93  38 1.98
 175  0.625  0.498  0.499-  40 2.01   8 2.06
 176  0.127  0.000  0.748-  10 1.94  42 2.02
 177  0.124  0.505  0.248-  11 2.02  43 2.04
 178  0.123  0.495  0.759-  44 1.94  12 2.03
 179  0.624  0.995  0.743-  46 1.94  14 2.03
 180  0.625  0.498  0.249-  47 2.02  15 2.04
 181  0.626  0.495  0.752-  16 1.94  48 2.02
 182  0.125  0.250  0.997-  17 2.01  49 2.05
 183  0.123  0.244  0.501-  18 1.93  50 2.00
 184  0.125  0.748  0.001-  51 1.96  19 1.97
 185  0.124  0.746  0.498-  20 1.96  52 1.97
 186  0.626  0.250  0.997-  21 2.03  53 2.03
 187  0.125  0.240  0.253-  25 1.95  57 1.98
 188  0.124  0.752  0.749-  60 1.93  28 2.02
 189  0.626  0.753  0.750-  32 1.93  64 2.03
 190  0.377  0.002  0.498-   6 1.90  34 1.98
 191  0.373  0.498  0.005-  35 2.02   7 2.02
 192  0.875  0.002  0.508-  38 1.92   2 1.95
 193  0.875  0.500  0.997-   3 2.02  39 2.05
 194  0.377  0.998  0.254-  13 2.00  41 2.05
 195  0.375  0.496  0.745-  16 1.96  44 1.97
 196  0.874  0.000  0.247-  45 2.00   9 2.06
 197  0.874  0.993  0.742-  46 1.96  10 1.98
 198  0.379  0.247  0.497-  50 1.95  22 2.00
 199  0.377  0.754  0.001-  51 1.94  23 2.01
 200  0.377  0.748  0.501-  52 1.95  24 2.01
 201  0.874  0.253  0.502-  18 1.93  54 2.03
 202  0.872  0.751  0.999-  19 1.94  55 2.01
 203  0.873  0.747  0.502-  20 1.94  56 2.02
 204  0.378  0.254  0.251-  57 1.95  29 2.02
 205  0.376  0.250  0.753-  30 2.02  58 2.05
 206  0.377  0.748  0.248-  31 2.00  59 2.06
 207  0.375  0.756  0.750-  32 1.96  60 1.97
 208  0.874  0.251  0.249-  25 1.94  61 2.03
 209  0.874  0.255  0.749-  62 2.02  26 2.05
 210  0.874  0.747  0.250-  63 1.98  27 2.06
 211  0.005  0.127  0.001-  17 2.01   1 2.03
 212  0.996  0.125  0.508-  18 1.91   2 2.08
 213  0.996  0.625  0.996-   3 2.01  19 2.05
 214  1.000  0.626  0.494-   4 1.93  20 2.02
 215  0.505  0.125  0.001-   5 2.01  21 2.06
 216  0.493  0.628  0.002-  23 2.01   7 2.04
 217  0.503  0.627  0.499-  24 1.95   8 1.97
 218  0.995  0.127  0.247-   9 1.94  25 2.02
 219  0.000  0.624  0.255-  27 1.94  11 2.00
 220  0.008  0.625  0.755-  12 1.96  28 1.97
 221  0.502  0.626  0.252-  31 1.93  15 1.99
 222  0.003  0.374  0.498-  18 1.94   4 2.00
 223  0.498  0.372  0.504-  22 1.96   8 1.97
 224  0.494  0.878  0.496-  24 1.96   6 2.01
 225  0.997  0.374  0.751-  12 1.93  26 2.04
 226  0.995  0.876  0.252-   9 1.97  27 1.97
 227  0.002  0.876  0.748-  28 1.93  10 2.04
 228  0.501  0.372  0.245-  15 1.95  29 2.00
 229  0.498  0.373  0.747-  30 2.02  16 2.03
 230  0.496  0.876  0.250-  31 1.93  13 2.04
 231  0.503  0.875  0.754-  14 2.01  32 2.06
 232  0.245  0.125  0.994-  33 1.96  49 1.97
 233  0.253  0.124  0.496-  34 2.02  50 2.05
 234  0.248  0.626  0.503-  52 2.00  36 2.04
 235  0.743  0.126  1.000-  53 1.94  37 1.95
 236  0.758  0.626  0.001-  55 1.94  39 1.95
 237  0.747  0.625  0.499-  56 1.95  40 1.97
 238  0.257  0.126  0.254-  41 1.93  57 2.03
 239  0.251  0.124  0.757-  42 1.96  58 1.97
 240  0.250  0.624  0.243-  59 1.93  43 2.03
 241  0.756  0.126  0.252-  61 1.94  45 1.95
 242  0.747  0.625  0.249-  63 1.93  47 1.95
 243  0.742  0.625  0.749-  64 1.96  48 1.97
 244  0.250  0.376  0.999-  49 1.93  35 2.03
 245  0.247  0.874  0.002-  33 1.93  51 2.04
 246  0.749  0.375  0.991-  53 1.94  39 1.95
 247  0.751  0.372  0.494-  40 1.95  54 2.01
 248  0.748  0.875  0.009-  55 1.94  37 1.95
 249  0.756  0.876  0.505-  56 1.94  38 2.02
 250  0.252  0.376  0.755-  58 1.93  44 2.03
 251  0.256  0.875  0.250-  41 1.96  59 1.97
 252  0.246  0.874  0.747-  42 1.93  60 2.04
 253  0.750  0.374  0.260-  61 1.93  47 1.95
 254  0.752  0.374  0.754-  48 1.93  62 2.03
 255  0.755  0.875  0.243-  45 1.94  63 1.94
 256  0.749  0.875  0.743-  64 1.93  46 2.03
 

IMPORTANT INFORMATION: All symmetrisations will be switched off!
NOSYMM: (Re-)initialisation of all symmetry stuff for point group C_1.

 
 
 KPOINTS: Title                                   

Automatic generation of k-mesh.
Space group operators:
 irot       det(A)        alpha          n_x          n_y          n_z        tau_x        tau_y        tau_z
    1     1.000000     0.000000     1.000000     0.000000     0.000000     0.000000     0.000000     0.000000
 
 Subroutine IBZKPT returns following result:
 ===========================================
 
 Found      4 irreducible k-points:
 
 Following reciprocal coordinates:
            Coordinates               Weight
  0.250000  0.250000  0.250000      2.000000
 -0.250000  0.250000  0.250000      2.000000
  0.250000 -0.250000  0.250000      2.000000
 -0.250000 -0.250000  0.250000      2.000000
 
 Following cartesian coordinates:
            Coordinates               Weight
  0.016206  0.016206  0.016206      2.000000
 -0.016206  0.016206  0.016206      2.000000
  0.016206 -0.016206  0.016206      2.000000
 -0.016206 -0.016206  0.016206      2.000000
 


--------------------------------------------------------------------------------------------------------




 Dimension of arrays:
   k-points           NKPTS =      4   k-points in BZ     NKDIM =      4   number of bands    NBANDS=   1284
   number of dos      NEDOS =   3001   number of ions     NIONS =    256
   non local maximal  LDIM  =      6   non local SUM 2l+1 LMDIM =     18
   total plane-waves  NPLWV = ******
   max r-space proj   IRMAX =   7595   max aug-charges    IRDMAX= 146383
   dimension x,y,z NGX =   120 NGY =  120 NGZ =  120
   dimension x,y,z NGXF=   240 NGYF=  240 NGZF=  240
   support grid    NGXF=   480 NGYF=  480 NGZF=  480
   ions per type =              64  64 128
   NGX,Y,Z   is equivalent  to a cutoff of  12.93, 12.93, 12.93 a.u.
   NGXF,Y,Z  is equivalent  to a cutoff of  25.86, 25.86, 25.86 a.u.

 SYSTEM =  LTO                                     
 POSCAR =  Ti64 O64 F128                           

 Startparameter for this run:
   NWRITE =      2    write-flag & timer
   PREC   = accura    normal or accurate (medium, high low for compatibility)
   ISTART =      1    job   : 0-new  1-cont  2-samecut
   ICHARG =      0    charge: 1-file 2-atom 10-const
   ISPIN  =      2    spin polarized calculation?
   LNONCOLLINEAR =      F non collinear calculations
   LSORBIT =      F    spin-orbit coupling
   INIWAV =      1    electr: 0-lowe 1-rand  2-diag
   LASPH  =      T    aspherical Exc in radial PAW
   METAGGA=      F    non-selfconsistent MetaGGA calc.

 Electronic Relaxation 1
   ENCUT  =  500.0 eV  36.75 Ry    6.06 a.u.  28.13 28.13 28.13*2*pi/ulx,y,z
   ENINI  =  500.0     initial cutoff
   ENAUG  =  613.6 eV  augmentation charge cutoff
   NELM   =     60;   NELMIN=  2; NELMDL=  0     # of ELM steps 
   EDIFF  = 0.1E-05   stopping-criterion for ELM
   LREAL  =      T    real-space projection
   NLSPLINE    = F    spline interpolate recip. space projectors
   LCOMPAT=      F    compatible to vasp.4.4
   GGA_COMPAT  = T    GGA compatible to vasp.4.4-vasp.4.6
   LMAXPAW     = -100 max onsite density
   LMAXMIX     =    4 max onsite mixed and CHGCAR
   VOSKOWN=      0    Vosko Wilk Nusair interpolation
   ROPT   =   -0.00010  -0.00010  -0.00010
 Ionic relaxation
   EDIFFG = -.5E-01   stopping-criterion for IOM
   NSW    =    100    number of steps for IOM
   NBLOCK =      1;   KBLOCK =    100    inner block; outer block 
   IBRION =      1    ionic relax: 0-MD 1-quasi-New 2-CG
   NFREE  =      0    steps in history (QN), initial steepest desc. (CG)
   ISIF   =      2    stress and relaxation
   IWAVPR =     11    prediction:  0-non 1-charg 2-wave 3-comb
   ISYM   =      0    0-nonsym 1-usesym 2-fastsym
   LCORR  =      T    Harris-Foulkes like correction to forces

   POTIM  = 0.5000    time-step for ionic-motion
   TEIN   =    0.0    initial temperature
   TEBEG  =    0.0;   TEEND  =   0.0 temperature during run
   SMASS  =  -3.00    Nose mass-parameter (am)
   estimated Nose-frequenzy (Omega)   =  0.10E-29 period in steps =****** mass=  -0.544E-26a.u.
   SCALEE = 1.0000    scale energy and forces
   NPACO  =    256;   APACO  = 16.0  distance and # of slots for P.C.
   PSTRESS=    0.0 pullay stress

  Mass of Ions in am
   POMASS =  47.88 16.00 19.00
  Ionic Valenz
   ZVAL   =  10.00  6.00  7.00
  Atomic Wigner-Seitz radii
   RWIGS  =  -1.00 -1.00 -1.00
  virtual crystal weights 
   VCA    =   1.00  1.00  1.00
   NELECT =    1920.0000    total number of electrons
   NUPDOWN=      -1.0000    fix difference up-down

 DOS related values:
   EMIN   =  10.00;   EMAX   =-10.00  energy-range for DOS
   EFERMI =   0.00
   ISMEAR =     0;   SIGMA  =   0.01  broadening in eV -4-tet -1-fermi 0-gaus

 Electronic relaxation 2 (details)
   IALGO  =     38    algorithm
   LDIAG  =      T    sub-space diagonalisation (order eigenvalues)
   LSUBROT=      F    optimize rotation matrix (better conditioning)
   TURBO    =      0    0=normal 1=particle mesh
   IRESTART =      0    0=no restart 2=restart with 2 vectors
   NREBOOT  =      0    no. of reboots
   NMIN     =      0    reboot dimension
   EREF     =   0.00    reference energy to select bands
   IMIX   =      4    mixing-type and parameters
     AMIX     =   0.40;   BMIX     =  1.00
     AMIX_MAG =   1.60;   BMIX_MAG =  1.00
     AMIN     =   0.10
     WC   =   100.;   INIMIX=   1;  MIXPRE=   1;  MAXMIX= -45

 Intra band minimization:
   WEIMIN = 0.0010     energy-eigenvalue tresh-hold
   EBREAK =  0.19E-09  absolut break condition
   DEPER  =   0.30     relativ break condition  

   TIME   =   0.40     timestep for ELM

  volume/ion in A,a.u.               =      14.34        96.77
  Fermi-wavevector in a.u.,A,eV,Ry     =   1.319003  2.492555 23.671009  1.739770
  Thomas-Fermi vector in A             =   2.448933
 
 Write flags
   LWAVE        =      T    write WAVECAR
   LDOWNSAMPLE  =      F    k-point downsampling of WAVECAR
   LCHARG       =      T    write CHGCAR
   LVTOT        =      F    write LOCPOT, total local potential
   LVHAR        =      F    write LOCPOT, Hartree potential only
   LELF         =      F    write electronic localiz. function (ELF)
   LORBIT       =     11    0 simple, 1 ext, 2 COOP (PROOUT), +10 PAW based schemes


 Dipole corrections
   LMONO  =      F    monopole corrections only (constant potential shift)
   LDIPOL =      F    correct potential (dipole corrections)
   IDIPOL =      0    1-x, 2-y, 3-z, 4-all directions 
   EPSILON=  1.0000000 bulk dielectric constant

 LDA+U is selected, type is set to LDAUTYPE =  2
   angular momentum for each species LDAUL =     2   -1   -1
   U (eV)           for each species LDAUU =   4.2  0.0  0.0
   J (eV)           for each species LDAUJ =   0.0  0.0  0.0
 Exchange correlation treatment:
   GGA     =    PS    GGA type
   LEXCH   =    14    internal setting for exchange type
   VOSKOWN=      0    Vosko Wilk Nusair interpolation
   LHFCALC =     F    Hartree Fock is set to
   LHFONE  =     F    Hartree Fock one center treatment
   AEXX    =    0.0000 exact exchange contribution

 Linear response parameters
   LEPSILON=     F    determine dielectric tensor
   LRPA    =     F    only Hartree local field effects (RPA)
   LNABLA  =     F    use nabla operator in PAW spheres
   LVEL    =     F    velocity operator in full k-point grid
   LINTERFAST=   F  fast interpolation
   KINTER  =     0    interpolate to denser k-point grid
   CSHIFT  =0.1000    complex shift for real part using Kramers Kronig
   OMEGAMAX=  -1.0    maximum frequency
   DEG_THRESHOLD= 0.2000000E-02 threshold for treating states as degnerate
   RTIME   =   -0.100 relaxation time in fs
  (WPLASMAI=    0.000 imaginary part of plasma frequency in eV, 0.658/RTIME)
   DFIELD  = 0.0000000 0.0000000 0.0000000 field for delta impulse in time
 
 Orbital magnetization related:
   ORBITALMAG=     F  switch on orbital magnetization
   LCHIMAG   =     F  perturbation theory with respect to B field
   DQ        =  0.001000  dq finite difference perturbation B field
   LLRAUG    =     F  two centre corrections for induced B field



--------------------------------------------------------------------------------------------------------


 quasi-Newton-method for relaxation of ions
 charge density and potential will be updated during run
 spin polarized calculation
 Variant of blocked Davidson
 Davidson routine will perform the subspace rotation
 perform sub-space diagonalisation
    after iterative eigenvector-optimisation
 modified Broyden-mixing scheme, WC =      100.0
 initial mixing is a Kerker type mixing with AMIX =  0.4000 and BMIX =      1.0000
 Hartree-type preconditioning will be used
 using additional bands          324
 real space projection scheme for non local part
 use partial core corrections
 calculate Harris-corrections to forces 
   (improved forces if not selfconsistent)
 use gradient corrections 
 use of overlap-Matrix (Vanderbilt PP)
 Gauss-broadening in eV      SIGMA  =   0.01


--------------------------------------------------------------------------------------------------------


  energy-cutoff  :      500.00
  volume of cell :     3671.03
      direct lattice vectors                 reciprocal lattice vectors
    15.426330959  0.000000000  0.000000000     0.064824228  0.000000000  0.000000000
     0.000000000 15.426330959  0.000000000     0.000000000  0.064824228  0.000000000
     0.000000000  0.000000000 15.426330959     0.000000000  0.000000000  0.064824228

  length of vectors
    15.426330959 15.426330959 15.426330959     0.064824228  0.064824228  0.064824228


 
 old parameters found on file WAVECAR:
  energy-cutoff  :      500.00
  volume of cell :     3671.03
      direct lattice vectors                 reciprocal lattice vectors
    15.426330959  0.000000000  0.000000000     0.064824228  0.000000000  0.000000000
     0.000000000 15.426330959  0.000000000     0.000000000  0.064824228  0.000000000
     0.000000000  0.000000000 15.426330959     0.000000000  0.000000000  0.064824228

  length of vectors

 
 k-points in units of 2pi/SCALE and weight: Title                                   
   0.01620606  0.01620606  0.01620606       0.250
  -0.01620606  0.01620606  0.01620606       0.250
   0.01620606 -0.01620606  0.01620606       0.250
  -0.01620606 -0.01620606  0.01620606       0.250
 
 k-points in reciprocal lattice and weights: Title                                   
   0.25000000  0.25000000  0.25000000       0.250
  -0.25000000  0.25000000  0.25000000       0.250
   0.25000000 -0.25000000  0.25000000       0.250
  -0.25000000 -0.25000000  0.25000000       0.250
 
 position of ions in fractional coordinates (direct lattice) 
   0.99493765  0.99561999  0.99471984
   0.00008623  0.99168877  0.49349674
   0.00564122  0.49520469  0.99794534
   0.99359247  0.50224444  0.50712422
   0.49392595  0.99471332  0.99951994
   0.50027459  0.00829618  0.50019293
   0.50427702  0.49566433  0.99577227
   0.49190456  0.49939078  0.49481248
   0.00693555  0.00253502  0.25628095
   0.00104800  0.00755072  0.75695820
   0.99341968  0.49409099  0.25171902
   0.99240636  0.49879915  0.74239295
   0.50654157  0.00787195  0.25010716
   0.49258195  0.00510001  0.75115861
   0.49299104  0.49752791  0.25739312
   0.50101529  0.50456542  0.75814194
   0.99533129  0.25719644  0.00098910
   0.99884187  0.24796983  0.49132921
   0.99795754  0.75808983  0.00612534
   0.99808325  0.75643464  0.50608733
   0.49469130  0.25806233  0.00017123
   0.50802308  0.24547978  0.49996136
   0.50704010  0.75696218  0.99882747
   0.50669098  0.75270382  0.50901607
   0.99951945  0.25817426  0.25530008
   0.00633564  0.24233762  0.74732198
   0.00704311  0.74877693  0.24299646
   0.99292392  0.75091755  0.74336253
   0.50818727  0.24235069  0.25084408
   0.50672323  0.24287711  0.74976110
   0.50705012  0.75154926  0.25173277
   0.50143779  0.74231276  0.74331171
   0.25613943  0.99889645  0.00623167
   0.24923676  0.99369968  0.50659945
   0.24322767  0.50756857  0.99781824
   0.25410536  0.49412489  0.50631670
   0.75732119  0.00045050  0.99431509
   0.75106982  0.00658917  0.49433264
   0.74190086  0.50058331  0.00509706
   0.75555978  0.49795112  0.50534592
   0.24476719  0.00197163  0.24390108
   0.25716966  0.99785956  0.74416950
   0.25537376  0.49244088  0.25185590
   0.24752665  0.50623899  0.74133125
   0.74481542  0.99973398  0.25608559
   0.74846335  0.00622711  0.75643350
   0.75592249  0.49950235  0.24278688
   0.75715587  0.49822708  0.74280888
   0.25748487  0.25103530  0.00564719
   0.25265423  0.25671464  0.50555571
   0.25167587  0.74255924  0.99330988
   0.25133453  0.75542874  0.49268080
   0.75754704  0.25029420  0.00646178
   0.74326730  0.24250526  0.49813078
   0.74197820  0.75003171  0.99407292
   0.74184613  0.75185911  0.49413308
   0.25166054  0.25736731  0.24355561
   0.24390460  0.25138566  0.74354813
   0.24406888  0.74833800  0.25557767
   0.24832505  0.74183132  0.75660646
   0.74278414  0.25053392  0.24190219
   0.74414174  0.24203787  0.75067960
   0.74584861  0.75030654  0.25676499
   0.75746440  0.75118641  0.75690846
   0.00447299  0.50117428  0.62477669
   0.99570616  0.00541775  0.37616969
   0.99879411  0.00234801  0.87303075
   0.50187282  0.49690181  0.37514691
   0.49711296  0.49957210  0.87453706
   0.99851249  0.74741641  0.12571872
   0.00013019  0.74627250  0.62426558
   0.49985424  0.75500509  0.62464650
   0.99750948  0.24673178  0.37651432
   0.25337078  0.00298811  0.12548592
   0.25218436  0.00316032  0.62528626
   0.24280872  0.49675463  0.62572948
   0.75190025  0.49496926  0.12562534
   0.74798871  0.49681932  0.62414837
   0.75159538  0.99729207  0.37622553
   0.74773867  0.99708847  0.87376497
   0.24918596  0.24852410  0.12561707
   0.25351872  0.24861825  0.62508236
   0.74676119  0.25446124  0.12590596
   0.25370458  0.74759939  0.37449896
   0.25084666  0.75288786  0.87500173
   0.75146865  0.75340268  0.37419951
   0.74823254  0.75366390  0.87549997
   0.12425484  0.50164714  0.99756117
   0.62577171  0.50557284  0.00012300
   0.12551551  0.00107585  0.25261091
   0.62519356  0.99891822  0.25162542
   0.62443227  0.25215044  0.49814160
   0.62463851  0.74528730  0.00333094
   0.62460198  0.75632084  0.49757722
   0.12452712  0.25076476  0.74790324
   0.12572060  0.75252528  0.25070550
   0.62550630  0.24808523  0.25760980
   0.62541255  0.25142281  0.74551564
   0.62313537  0.75398170  0.25006826
   0.37580032  0.00186156  0.99468070
   0.37512420  0.50155406  0.50114907
   0.87304444  0.00390433  0.00185055
   0.87513707  0.49899100  0.49697010
   0.37589993  0.99624008  0.75379373
   0.37401395  0.49837507  0.25105690
   0.87556559  0.49982254  0.25381076
   0.87497952  0.50493548  0.74991385
   0.37576963  0.24700510  0.00026815
   0.87436815  0.24695963  0.00161563
   0.87493335  0.74656837  0.75025318
   0.50423089  0.12288652  0.49892521
   0.99566744  0.12594135  0.74451133
   0.49760799  0.12489247  0.25712335
   0.50073124  0.12361635  0.74501170
   0.50002531  0.62550406  0.74805522
   0.99893073  0.37499619  0.00326339
   0.99969781  0.87512330  0.00056438
   0.00069060  0.87463723  0.49837955
   0.50128576  0.37424972  0.00381929
   0.50201393  0.87559060  0.00128841
   0.00383152  0.37395313  0.24849364
   0.25245852  0.62520264  0.00064737
   0.74776334  0.12501570  0.50198027
   0.24994736  0.62458196  0.75089580
   0.75227989  0.12457963  0.74643128
   0.24891463  0.37295823  0.49458903
   0.24838433  0.87564230  0.49996971
   0.24460635  0.37444665  0.25458523
   0.00044429  0.00214634  0.12703050
   0.00358509  0.99875656  0.62351815
   0.99840360  0.50663946  0.12531254
   0.49739884  0.00253310  0.12626629
   0.49994635  0.99261716  0.62299378
   0.50056859  0.50401467  0.12736877
   0.50437466  0.49827744  0.62455950
   0.00523540  0.49797392  0.37613358
   0.99852882  0.49926510  0.87302330
   0.50057163  0.99372675  0.37688523
   0.51140883  0.00230202  0.87469874
   0.00344513  0.24607886  0.12730768
   0.99700667  0.25682558  0.62132529
   0.50414753  0.24449052  0.12656859
   0.49359284  0.25155874  0.62323191
   0.49562298  0.74935601  0.12677456
   0.99823186  0.25056192  0.87418558
   0.99595393  0.74883404  0.37522669
   0.00223074  0.74989163  0.87396276
   0.49457857  0.25722090  0.37609414
   0.50275263  0.24821644  0.87430862
   0.49444929  0.75166312  0.37557639
   0.49834752  0.75096223  0.87376379
   0.24748086  0.49644404  0.12489806
   0.74813665  0.00457258  0.12681536
   0.74603693  0.99698424  0.62320999
   0.25385396  0.00069084  0.37567691
   0.24507568  0.99612814  0.87443353
   0.24416101  0.50893439  0.37524553
   0.25514375  0.49616646  0.87369018
   0.74499362  0.50283206  0.37471938
   0.74977326  0.50266415  0.87399531
   0.25301846  0.75360273  0.12480400
   0.25047465  0.75045711  0.62490789
   0.75414035  0.25759020  0.62321914
   0.75283481  0.74734128  0.12601431
   0.74879658  0.74761453  0.62441036
   0.25010792  0.24413785  0.37457671
   0.25006132  0.25096362  0.87506403
   0.75798851  0.24778077  0.37424390
   0.74934591  0.24832625  0.87573261
   0.12589831  0.00118434  0.00110111
   0.12467104  0.00828066  0.49811667
   0.12301968  0.50144998  0.49525386
   0.62522460  0.00051685  0.00524916
   0.62392764  0.99025465  0.50091364
   0.62522384  0.49776773  0.49934823
   0.12658540  0.00017250  0.74840080
   0.12396143  0.50536267  0.24754864
   0.12316131  0.49519633  0.75884661
   0.62368012  0.99541647  0.74346099
   0.62525554  0.49847348  0.24899216
   0.62641662  0.49514689  0.75220639
   0.12511381  0.25040258  0.99738240
   0.12339316  0.24395758  0.50092127
   0.12510684  0.74831252  0.00086070
   0.12432749  0.74618510  0.49781161
   0.62606591  0.24969668  0.99733845
   0.12454498  0.24016618  0.25302984
   0.12356247  0.75234671  0.74948678
   0.62623062  0.75266183  0.74975412
   0.37711007  0.00151052  0.49835324
   0.37343104  0.49830396  0.00460501
   0.87491737  0.00188730  0.50839291
   0.87460140  0.50000722  0.99718356
   0.37744088  0.99750104  0.25430585
   0.37463052  0.49600932  0.74531958
   0.87395667  0.00025827  0.24695116
   0.87424967  0.99253667  0.74205763
   0.37867457  0.24683396  0.49652476
   0.37660353  0.75356771  0.00116996
   0.37707094  0.74803239  0.50066642
   0.87422909  0.25256697  0.50205993
   0.87234268  0.75140435  0.99909469
   0.87261180  0.74693654  0.50166718
   0.37801858  0.25408166  0.25057919
   0.37618197  0.25015449  0.75336453
   0.37729921  0.74816694  0.24804786
   0.37509645  0.75591348  0.74951783
   0.87405535  0.25148202  0.24855450
   0.87417955  0.25505574  0.74919622
   0.87393607  0.74728211  0.24987504
   0.00458625  0.12694876  0.00144644
   0.99556059  0.12538406  0.50790836
   0.99598435  0.62542438  0.99608605
   0.99963860  0.62624584  0.49394118
   0.50549840  0.12465757  0.00054680
   0.49279804  0.62753122  0.00177227
   0.50319347  0.62671945  0.49914277
   0.99476598  0.12741207  0.24686822
   0.00017817  0.62353155  0.25505958
   0.00805858  0.62454875  0.75460722
   0.50177667  0.62625155  0.25171894
   0.00326092  0.37355763  0.49824730
   0.49785017  0.37226017  0.50350544
   0.49404741  0.87816363  0.49611156
   0.99716795  0.37423749  0.75123965
   0.99455237  0.87578953  0.25222277
   0.00160228  0.87579480  0.74750476
   0.50126861  0.37190984  0.24517148
   0.49798620  0.37322437  0.74725297
   0.49587963  0.87605138  0.24955283
   0.50306970  0.87529248  0.75371710
   0.24528612  0.12479786  0.99370200
   0.25271679  0.12419530  0.49634896
   0.24822204  0.62626364  0.50308482
   0.74254709  0.12588299  0.99998356
   0.75808481  0.62565573  0.00104142
   0.74749752  0.62547870  0.49936886
   0.25721184  0.12617078  0.25440003
   0.25123518  0.12437319  0.75687329
   0.25039862  0.62379715  0.24324827
   0.75604047  0.12560612  0.25178605
   0.74653368  0.62529769  0.24949000
   0.74174063  0.62506176  0.74933962
   0.25027769  0.37595524  0.99879488
   0.24739783  0.87410782  0.00235177
   0.74930979  0.37483599  0.99143723
   0.75102998  0.37233502  0.49365986
   0.74847435  0.87501357  0.00925305
   0.75620999  0.87632814  0.50491356
   0.25241974  0.37576540  0.75515772
   0.25606811  0.87549525  0.25049728
   0.24626708  0.87350800  0.74702270
   0.75044172  0.37417169  0.25973952
   0.75229702  0.37364664  0.75427287
   0.75531049  0.87506840  0.24250652
   0.74911370  0.87526709  0.74343323
 
 position of ions in cartesian coordinates  (Angst):
  15.34823747 15.35876347 15.34487739
   0.00133018 15.29811921  7.61284405
   0.08702333  7.63919141 15.39463516
  15.32748633  7.74778895  7.82306600
   7.61946522 15.34477686 15.41892546
   7.71740132  0.12797958  7.71614166
   7.77914425  7.64628206 15.36111252
   7.58828251  7.70376746  7.63314114
   0.10699005  0.03910604  3.95347470
   0.01616674  0.11647997 11.67708769
  15.32482074  7.62201114  3.88310090
  15.30918892  7.69464076 11.45239940
   7.81407794  0.12143535  3.85823577
   7.59873212  0.07867443 11.58762129
   7.60504289  7.67503023  3.97063149
   7.72882763  7.78359321 11.69534844
  15.35430985  3.96759742  0.01525822
  15.40846525  3.82526463  7.57940704
  15.39482325 11.69454467  0.09449151
  15.39676252 11.66901111  7.80707067
   7.63127171  3.98095492  0.00264152
   7.83693210  3.78685235  7.71256943
   7.82176845 11.67714905 15.40824306
   7.81638279 11.61145824  7.85225042
  15.41891789  3.98268163  3.93834349
   0.09773567  3.73838030 11.52843617
   0.10864931 11.55088076  3.74854383
  15.31717294 11.58390270 11.46735635
   7.83946495  3.73858198  3.86960373
   7.81688022  3.74670269 11.56606291
   7.82192298 11.59364758  3.88331304
   7.73534535 11.45116232 11.46657250
   3.95129164 15.40930720  0.09613173
   3.84480868 15.32914011  7.81497078
   3.75211054  7.82992069 15.39267440
   3.91991342  7.62253412  7.81060906
  11.68268735  0.00694951 15.33863366
  11.58625166  0.10164670  7.62573889
  11.44480819  7.72216379  0.07862900
  11.65551529  7.68155877  7.79563344
   3.77585961  0.03041506  3.76249883
   3.96718433 15.39331182 11.47980494
   3.93948007  7.59655594  3.88521240
   3.81842809  7.80941014 11.43602122
  11.48976913 15.42222730  3.95046109
  11.54604339  0.09606142 11.66899351
  11.66111045  7.70548860  3.74531079
  11.68013711  7.68581581 11.45881561
   3.97204683  3.87255360  0.08711537
   3.89752777  3.96016501  7.79886976
   3.88243530 11.45496463 15.32312688
   3.87716961 11.65349379  7.60025710
  11.68617139  3.86112122  0.09968156
  11.46588737  3.74096634  7.68433034
  11.44600121 11.57023736 15.33489779
  11.44396399 11.59842743  7.62266038
   3.88219882  3.97023336  3.75716948
   3.76255301  3.87795837 11.47021951
   3.76508726 11.54410961  3.94262566
   3.83074439 11.44373546 11.67166165
  11.45843402  3.86481924  3.73166319
  11.47937680  3.73375629 11.58023194
  11.50570746 11.57447706  3.96094176
  11.68489649 11.58805014 11.67632035
   0.06900183  7.73128025  9.63801201
  15.36009280  0.08357596  5.80291821
  15.40772846  0.03622119 13.46766127
   7.74205624  7.66537182  5.78714035
   7.66862910  7.70656453 13.49089806
  15.40338421 11.52989298  1.93937854
   0.00200835 11.51224658  9.63012744
   7.71091697 11.64695840  9.63600357
  15.38791131  3.80616614  5.80823458
   3.90858156  0.04609554  1.93578730
   3.89027940  0.04875211  9.64587275
   3.74564768  7.66310138  9.65270999
  11.59906206  7.63555958  1.93793812
  11.53872138  7.66409931  9.62831932
  11.59435906 15.38455748  5.80377952
  11.53486427 15.38141666 13.47898754
   3.84402510  3.83381506  1.93781043
   3.91086363  3.83526745  9.64272739
  11.51978526  3.92540334  1.94226698
   3.91373088 11.53271565  5.77714495
   3.86964356 11.61429723 13.49806627
  11.59240413 11.62223902  5.77252545
  11.54248278 11.62626872 13.50575229
   1.91679634  7.73857480 15.38870872
   9.65336144  7.79913402  0.00189745
   1.93624373  0.01659636  3.89685942
   9.64444284 15.40964307  3.88165704
   9.63269880  3.88975619  7.68449716
   9.63588040 11.49704858  0.05138423
   9.63531680 11.66725552  7.67579086
   1.92099653  3.86838018 11.53740283
   1.93940761 11.60870396  3.86746606
   9.64926715  3.82704483  3.97397401
   9.64782100  3.87853140 11.50057103
   9.61269245 11.63117124  3.85763573
   5.79722011  0.02871699 15.34427361
   5.78679009  7.73713894  7.73089143
  13.46787247  0.06022944  0.02854724
  13.50015401  7.69760035  7.66642530
   5.79875670 15.36832923 11.62827156
   5.76966305  7.68809884  3.87288678
  13.50676452  7.71042785  3.91536886
  13.49772371  7.78930188 11.56841921
   5.79674664  3.81038245  0.00413661
  13.48829242  3.80968098  0.02492331
  13.49701142 11.51681074 11.57365380
   7.77843262  1.89568819  7.69658547
  15.35949540  1.94281302 11.48507812
   7.67626554  1.92663264  3.96646992
   7.72444577  1.90694669 11.49279704
   7.71355588  9.64923264 11.53974744
  15.40983606  5.78481528  0.05034208
  15.42166924 13.49994161  0.00870628
   0.01065341 13.49244332  7.68816784
   7.73300000  5.77329997  0.05891763
   7.74423298 13.50715043  0.01987544
   0.05910635  5.76872477  3.83334516
   3.89450873  9.64458280  0.00998659
  11.53524479  1.92853355  7.74371372
   3.85577066  9.63500810 11.58356720
  11.60491863  1.92180656 11.51469594
   3.83983952  5.75337713  7.62969404
   3.83165892 13.50794795  7.71269822
   3.77337852  5.77633788  3.92731601
   0.00685380  0.03311014  1.95961461
   0.05530482 15.40714927  9.61859732
  15.40170429  7.81558794  1.93311271
   7.67303908  0.03907637  1.94782556
   7.71233786 15.31244083  9.61050821
   7.72193673  7.77509715  1.96483287
   7.78065046  7.68659268  9.63466161
   0.08076308  7.68191043  5.80236110
  15.40363601  7.70182862 13.46754635
   7.72198361 15.32955772  5.81395627
   7.88916191  0.03551165 13.49339220
   0.05314578  3.79609392  1.96389048
  15.38015487  3.96187640  9.58476953
   7.77714670  3.77159161  1.95248890
   7.61432651  3.88062845  9.61418168
   7.64564408 11.55981385  1.95566637
  15.39905502  3.86525116 13.48547601
  15.36391499 11.55176181  5.78837104
   0.03441218 11.56807648 13.48203881
   7.62953267  3.96797478  5.80175261
   7.75562848  3.82906896 13.48737406
   7.62753840 11.59540406  5.79376568
   7.68767370 11.58459197 13.47896943
   3.81772169  7.65831004  1.92671884
  11.54100360  0.07053807  1.95629574
  11.50861254 15.37980882  9.61384359
   3.91603522  0.01065714  5.79531629
   3.78061856 15.36660237 13.48930104
   3.76650858  7.85099035  5.78866168
   3.93593188  7.65402799 13.47783387
  11.49251809  7.75685370  5.78054521
  11.56625042  7.75426354 13.48254084
   3.90314657 11.62532517  1.92526782
   3.86390484 11.57679971  9.64003599
  11.63361863  3.97367175  9.61398467
  11.61347899 11.52873389  1.94393845
  11.55118388 11.53294917  9.63236079
   3.85824761  3.76615123  5.77834435
   3.85752862  3.87144779 13.49902733
  11.69298167  3.82234811  5.77321023
  11.55965799  3.83076293 13.50934102
   1.94214907  0.01827001  0.01698606
   1.92321667  0.12774026  7.68411255
   1.89774225  7.73553342  7.63994989
   9.64492167  0.00797306  0.08097528
   9.62491422 15.27599589  7.72725957
   9.64490988  7.67872971  7.70311111
   1.95274820  0.00266105 11.54507836
   1.91227008  7.79589176  3.81876722
   1.89992718  7.63906254 11.70621893
   9.62109591 15.35562394 11.46887527
   9.64539889  7.68961691  3.84103546
   9.66331006  7.63829984 11.60378467
   1.93004706  3.86279307 15.38595094
   1.90350369  3.76337031  7.72737729
   1.92993956 11.54371662  0.01327745
   1.91791707 11.51089838  7.67940660
   9.65789996  3.85190358 15.38527308
   1.92127211  3.70488300  3.90332208
   1.90611557 11.60594932 11.56183108
   9.66044080 11.61081044 11.56595525
   5.81742479  0.02330178  7.68776206
   5.76067088  7.68700180  0.07103841
  13.49676487  0.02911406  7.84263723
  13.49189058  7.71327684 15.38288360
   5.82252790 15.38778117  3.92300628
   5.77917439  7.65160388 11.49754650
  13.48194489  0.00398414  3.80955038
  13.48646477 15.31119914 11.44722661
   5.84155919  3.80774234  7.65955523
   5.80961075 11.62478484  0.01804812
   5.81682106 11.53939514  7.72344597
  13.48614728  3.89618169  7.74494270
  13.45704682 11.59141214 15.41236534
  13.46119846 11.52249026  7.73888391
   5.83143968  3.91954778  3.86551750
   5.80310754  3.85896602 11.62165054
   5.82034247 11.54147080  3.82646844
   5.78636196 11.66097150 11.56231013
  13.48346713  3.87944486  3.83428402
  13.48538308  3.93457421 11.55734889
  13.48162703 11.52782121  3.85465501
   0.07074900  1.95835364  0.02231325
  15.35784709  1.93421600  7.83516246
  15.36438427  9.64800352 15.36595306
  15.42075589  9.66067555  7.61970008
   7.79798562  1.92300896  0.00843506
   7.60206573  9.68050430  0.02733970
   7.76242902  9.66798166  7.69994159
  15.34558920  1.96550083  3.80827082
   0.00274852  9.61880409  3.93463347
   0.12431436  9.63449573 11.64082070
   7.74057291  9.66076370  3.88309967
   0.05030403  5.76262364  7.68612776
   7.68000142  5.74260865  7.76724157
   7.62133880 13.54684272  7.65318114
  15.38264284  5.77311139 11.58887141
  15.34229399 13.51021912  3.89087197
   0.02471730 13.51030046 11.53125574
   7.73273547  5.73720428  3.78209637
   7.68209995  5.75748264 11.52737163
   7.64960324 13.51425860  3.84968452
   7.76051967 13.50255150 11.62708941
   3.78386481  1.92517308 15.32917590
   3.89849282  1.91587781  7.65684336
   3.82915539  9.66095015  7.76075298
  11.45477722  1.94191268 15.42607740
  11.69446719  9.65157239  0.01606532
  11.53114414  9.64884149  7.70342932
   3.96783491  1.94635216  3.92445904
   3.87563699  1.91862196 11.67577780
   3.86273195  9.62290126  3.75242826
  11.66293052  1.93764159  3.88413494
  11.51627565  9.64604913  3.84871528
  11.44233642  9.64240964 11.55956093
   3.86086641  5.79961000 15.40774032
   3.81644082 13.48427658  0.03627921
  11.55910087  5.78234407 15.29423882
  11.58563702  5.74376330  7.61536045
  11.54621307 13.49824888  0.14274058
  11.66554555 13.51852786  7.78896372
   3.89391049  5.79668143 11.64931297
   3.95019145 13.50567942  3.86425399
   3.79899745 13.47502346 11.52381948
  11.57656227  5.77209629  4.00682776
  11.60518282  5.76399670 11.63566286
  11.65166958 13.49909480  3.74098583
  11.55607579 13.50215985 11.46844699
 


--------------------------------------------------------------------------------------------------------


 k-point  1 :   0.2500 0.2500 0.2500  plane waves:   93161
 k-point  2 :  -0.2500 0.2500 0.2500  plane waves:   93161
 k-point  3 :   0.2500-0.2500 0.2500  plane waves:   93161
 k-point  4 :  -0.2500-0.2500 0.2500  plane waves:   93161

 maximum and minimum number of plane-waves per node :     11686    11606

 maximum number of plane-waves:     93161
 maximum index in each direction: 
   IXMAX=   28   IYMAX=   28   IZMAX=   27
   IXMIN=  -28   IYMIN=  -28   IZMIN=  -28


 real space projection operators:
  total allocation   :     105381.12 KBytes
  max/ min on nodes  :      13223.14      13134.80


 parallel 3D FFT for wavefunctions:
    minimum data exchange during FFTs selected (reduces bandwidth)
 parallel 3D FFT for charge:
    minimum data exchange during FFTs selected (reduces bandwidth)


 total amount of memory used by VASP MPI-rank0   305176. kBytes
=======================================================================

   base      :      30000. kBytes
   nonlr-proj:      49371. kBytes
   fftplans  :      27976. kBytes
   grid      :      32647. kBytes
   one-center:        995. kBytes
   wavefun   :     164187. kBytes
 
     INWAV:  cpu time   64.4029: real time   65.0565
 Broyden mixing: mesh for mixing (old mesh)
   NGX = 57   NGY = 57   NGZ = 57
  (NGX  =240   NGY  =240   NGZ  =240)
  gives a total of 185193 points

 charge density for first step will be calculated from the start-wavefunctions


--------------------------------------------------------------------------------------------------------


 Maximum index for non-local projection operator          968
 Maximum index for augmentation-charges         3293 (set IRDMAX)


--------------------------------------------------------------------------------------------------------


 initial charge from wavefunction
 First call to EWALD:  gamma=   0.115
 Maximum number of real-space cells 3x 3x 3
 Maximum number of reciprocal cells 3x 3x 3

    FEWALD:  cpu time    0.0479: real time    0.0479


--------------------------------------- Iteration      1(   1)  ---------------------------------------


    POTLOK:  cpu time    0.3221: real time    0.3266
    SETDIJ:  cpu time    1.4758: real time    1.4765
     EDDAV:  cpu time   84.6534: real time   85.0796
       DOS:  cpu time    0.0021: real time    0.0021
    CHARGE:  cpu time    5.0861: real time    5.2129
    MIXING:  cpu time    0.0539: real time    0.0578
    --------------------------------------------
      LOOP:  cpu time   91.5934: real time   92.1555

 eigenvalue-minimisations  : 11304
 total energy-change (2. order) :-0.1753566E+04  (-0.1343055E-06)
 number of electron    1920.0000029 magnetization      -0.0000000
 augmentation part      495.9204816 magnetization      -0.0000000

 Broyden mixing:
  rms(total) = 0.40288E-03    rms(broyden)= 0.37760E-03
  rms(prec ) = 0.42497E-03
  weight for this iteration     100.00

 Free energy of the ion-electron system (eV)
  ---------------------------------------------------
  alpha Z        PSCENC =      6105.17445491
  Ewald energy   TEWEN  =   -102786.37963953
  -Hartree energ DENC   =    -65623.73582907
  -exchange      EXHF   =         0.00000000
  -V(xc)+E(xc)   XCENC  =      8958.99272227
  PAW double counting   =    198871.71167776  -199866.27769743
  entropy T*S    EENTRO =        -0.00000000
  eigenvalues    EBANDS =    -25789.28681662
  atomic energy  EATOM  =    178376.23515560
  Solvation  Ediel_sol  =         0.00000000
  ---------------------------------------------------
  free energy    TOTEN  =     -1753.56597212 eV

  energy without entropy =    -1753.56597212  energy(sigma->0) =    -1753.56597212


--------------------------------------------------------------------------------------------------------




--------------------------------------- Iteration      1(   2)  ---------------------------------------


    POTLOK:  cpu time    0.2727: real time    0.2826
    SETDIJ:  cpu time    1.4117: real time    1.4351
     EDDAV:  cpu time   90.2322: real time   91.2241
       DOS:  cpu time    0.0020: real time    0.0020
    --------------------------------------------
      LOOP:  cpu time   91.9185: real time   92.9437

 eigenvalue-minimisations  : 12708
 total energy-change (2. order) : 0.7922063E-07  (-0.1182629E-06)
 number of electron    1920.0000029 magnetization      -0.0000000
 augmentation part      495.9204816 magnetization      -0.0000000

 Free energy of the ion-electron system (eV)
  ---------------------------------------------------
  alpha Z        PSCENC =      6105.17445491
  Ewald energy   TEWEN  =   -102786.37963953
  -Hartree energ DENC   =    -65623.73387152
  -exchange      EXHF   =         0.00000000
  -V(xc)+E(xc)   XCENC  =      8958.99266565
  PAW double counting   =    198871.72526704  -199866.29142551
  entropy T*S    EENTRO =        -0.00000000
  eigenvalues    EBANDS =    -25789.28857869
  atomic energy  EATOM  =    178376.23515560
  Solvation  Ediel_sol  =         0.00000000
  ---------------------------------------------------
  free energy    TOTEN  =     -1753.56597204 eV

  energy without entropy =    -1753.56597204  energy(sigma->0) =    -1753.56597204


--------------------------------------------------------------------------------------------------------




 average (electrostatic) potential at core
  the test charge radii are     1.0397  0.7215  0.7167
  (the norm of the test charge is              1.0000)
       1 -58.4251       2 -58.8131       3 -58.7657       4 -58.8469       5 -58.8016
       6 -59.7872       7 -58.4454       8 -58.6810       9 -58.8612      10 -58.5958
      11 -58.9235      12 -58.8281      13 -59.0889      14 -58.8944      15 -58.7433
      16 -58.6750      17 -58.8281      18 -59.5261      19 -58.5859      20 -58.8623
      21 -58.6133      22 -59.4387      23 -58.8210      24 -58.8713      25 -59.1018
      26 -58.6945      27 -58.6793      28 -58.8606      29 -59.1048      30 -58.9687
      31 -59.4594      32 -58.7855      33 -58.7972      34 -58.8298      35 -58.6752
      36 -58.4080      37 -58.6822      38 -59.1362      39 -58.6752      40 -58.8915
      41 -58.8117      42 -58.8642      43 -58.7375      44 -58.5925      45 -59.1529
      46 -58.8121      47 -58.8224      48 -58.8456      49 -58.7317      50 -58.6552
      51 -58.6563      52 -58.8123      53 -58.8938      54 -59.2367      55 -58.8438
      56 -59.0240      57 -58.7364      58 -58.7457      59 -58.7507      60 -58.6948
      61 -58.9948      62 -58.9082      63 -59.1422      64 -58.8696      65 -74.1524
      66 -73.9982      67 -73.8174      68 -73.8837      69 -73.8211      70 -73.8636
      71 -74.0108      72 -74.2487      73 -74.5895      74 -73.9590      75 -74.0194
      76 -73.9126      77 -73.9787      78 -74.0070      79 -74.2844      80 -74.0280
      81 -73.9246      82 -73.8941      83 -74.3629      84 -73.9380      85 -73.8797
      86 -74.2184      87 -74.0812      88 -73.8762      89 -73.8233      90 -74.0312
      91 -74.2570      92 -74.6516      93 -74.1530      94 -74.2865      95 -73.9548
      96 -73.9653      97 -74.4128      98 -74.0855      99 -74.3662     100 -73.9485
     101 -73.8307     102 -73.8408     103 -73.9870     104 -74.2171     105 -73.9413
     106 -74.0412     107 -74.1316     108 -73.9023     109 -74.0403     110 -74.1842
     111 -74.8830     112 -74.0495     113 -74.4552     114 -74.0992     115 -73.9831
     116 -73.9191     117 -73.7563     118 -74.2427     119 -73.8353     120 -73.9816
     121 -74.3277     122 -74.0045     123 -74.5081     124 -74.0147     125 -74.1935
     126 -73.8297     127 -73.9804     128 -74.0790     129 -78.3777     130 -78.3751
     131 -79.1550     132 -79.6477     133 -79.9114     134 -78.3466     135 -78.3203
     136 -79.0046     137 -78.9507     138 -79.9415     139 -79.5639     140 -79.1609
     141 -79.1241     142 -79.5831     143 -79.7467     144 -79.4094     145 -79.1923
     146 -78.3837     147 -78.3928     148 -79.7991     149 -79.5013     150 -79.2627
     151 -79.1154     152 -79.0354     153 -78.5981     154 -78.5965     155 -78.4361
     156 -78.4081     157 -78.8305     158 -78.7998     159 -78.4207     160 -78.4430
     161 -78.3879     162 -78.3373     163 -79.4393     164 -78.5555     165 -78.5834
     166 -78.3918     167 -78.3607     168 -79.2847     169 -79.1653     170 -78.3432
     171 -79.5776     172 -78.3946     173 -78.3090     174 -79.9216     175 -78.3492
     176 -78.9517     177 -78.4221     178 -78.9105     179 -79.0090     180 -78.4425
     181 -78.9105     182 -78.4098     183 -79.4975     184 -79.0423     185 -79.2029
     186 -78.4043     187 -79.3193     188 -78.9896     189 -79.0176     190 -79.8589
     191 -78.3166     192 -79.6684     193 -78.2545     194 -78.5956     195 -79.0535
     196 -78.5521     197 -79.1266     198 -79.1958     199 -78.9381     200 -79.0962
     201 -79.4814     202 -78.8929     203 -79.0815     204 -79.1057     205 -78.4548
     206 -78.5520     207 -79.1774     208 -79.2523     209 -78.5069     210 -78.6437
     211 -78.2981     212 -79.3258     213 -78.2960     214 -79.1289     215 -78.3713
     216 -78.3815     217 -79.3344     218 -79.0281     219 -79.0236     220 -79.1975
     221 -79.4269     222 -79.4715     223 -79.2980     224 -79.3301     225 -79.0174
     226 -79.1459     227 -78.9834     228 -79.1650     229 -78.5173     230 -79.3604
     231 -78.4905     232 -79.0566     233 -78.3699     234 -78.3799     235 -79.4055
     236 -79.3840     237 -79.3440     238 -78.9602     239 -79.1070     240 -78.9241
     241 -79.6470     242 -79.5934     243 -79.2396     244 -78.8455     245 -78.8812
     246 -79.4037     247 -79.2015     248 -79.3939     249 -79.2494     250 -78.8944
     251 -79.1215     252 -78.9278     253 -79.5970     254 -79.0371     255 -79.6416
     256 -79.0666
 
 
 
 E-fermi :  -0.6937     XC(G=0):  -9.0190     alpha+bet : -7.7013


 spin component 1

 k-point     1 :       0.2500    0.2500    0.2500
  band No.  band energies     occupation 
      1     -35.8234      1.00000
      2     -35.8024      1.00000
      3     -35.6270      1.00000
      4     -35.5238      1.00000
      5     -35.5039      1.00000
      6     -35.4891      1.00000
      7     -35.4522      1.00000
      8     -35.4309      1.00000
      9     -35.3607      1.00000
     10     -35.3354      1.00000
     11     -35.3126      1.00000
     12     -35.2425      1.00000
     13     -35.2346      1.00000
     14     -35.2213      1.00000
     15     -35.1896      1.00000
     16     -35.1687      1.00000
     17     -35.1628      1.00000
     18     -35.1597      1.00000
     19     -35.1533      1.00000
     20     -35.1257      1.00000
     21     -35.1128      1.00000
     22     -35.0670      1.00000
     23     -35.0658      1.00000
     24     -35.0482      1.00000
     25     -35.0355      1.00000
     26     -35.0254      1.00000
     27     -35.0234      1.00000
     28     -35.0118      1.00000
     29     -35.0082      1.00000
     30     -34.9937      1.00000
     31     -34.9886      1.00000
     32     -34.9789      1.00000
     33     -34.9778      1.00000
     34     -34.9774      1.00000
     35     -34.9679      1.00000
     36     -34.9533      1.00000
     37     -34.9513      1.00000
     38     -34.9390      1.00000
     39     -34.9319      1.00000
     40     -34.9294      1.00000
     41     -34.9271      1.00000
     42     -34.9256      1.00000
     43     -34.9162      1.00000
     44     -34.9153      1.00000
     45     -34.9151      1.00000
     46     -34.9090      1.00000
     47     -34.9041      1.00000
     48     -34.8925      1.00000
     49     -34.8899      1.00000
     50     -34.8894      1.00000
     51     -34.8860      1.00000
     52     -34.8828      1.00000
     53     -34.8671      1.00000
     54     -34.8670      1.00000
     55     -34.8617      1.00000
     56     -34.8616      1.00000
     57     -34.8600      1.00000
     58     -34.8579      1.00000
     59     -34.8536      1.00000
     60     -34.8482      1.00000
     61     -34.8400      1.00000
     62     -34.8385      1.00000
     63     -34.8337      1.00000
     64     -34.8311      1.00000
     65     -34.8296      1.00000
     66     -34.8287      1.00000
     67     -34.8281      1.00000
     68     -34.8118      1.00000
     69     -34.8086      1.00000
     70     -34.8059      1.00000
     71     -34.7998      1.00000
     72     -34.7991      1.00000
     73     -34.7962      1.00000
     74     -34.7945      1.00000
     75     -34.7902      1.00000
     76     -34.7899      1.00000
     77     -34.7756      1.00000
     78     -34.7705      1.00000
     79     -34.7640      1.00000
     80     -34.7632      1.00000
     81     -34.7609      1.00000
     82     -34.7576      1.00000
     83     -34.7569      1.00000
     84     -34.7547      1.00000
     85     -34.7546      1.00000
     86     -34.7496      1.00000
     87     -34.7463      1.00000
     88     -34.7462      1.00000
     89     -34.7454      1.00000
     90     -34.7427      1.00000
     91     -34.7415      1.00000
     92     -34.7365      1.00000
     93     -34.7361      1.00000
     94     -34.7353      1.00000
     95     -34.7338      1.00000
     96     -34.7285      1.00000
     97     -34.7279      1.00000
     98     -34.7272      1.00000
     99     -34.7231      1.00000
    100     -34.7228      1.00000
    101     -34.7210      1.00000
    102     -34.7188      1.00000
    103     -34.7152      1.00000
    104     -34.7125      1.00000
    105     -34.7114      1.00000
    106     -34.7088      1.00000
    107     -34.7056      1.00000
    108     -34.7008      1.00000
    109     -34.6996      1.00000
    110     -34.6941      1.00000
    111     -34.6939      1.00000
    112     -34.6938      1.00000
    113     -34.6931      1.00000
    114     -34.6912      1.00000
    115     -34.6874      1.00000
    116     -34.6867      1.00000
    117     -34.6827      1.00000
    118     -34.6800      1.00000
    119     -34.6794      1.00000
    120     -34.6790      1.00000
    121     -34.6765      1.00000
    122     -34.6717      1.00000
    123     -34.6703      1.00000
    124     -34.6702      1.00000
    125     -34.6689      1.00000
    126     -34.6643      1.00000
    127     -34.6640      1.00000
    128     -34.6635      1.00000
    129     -34.6606      1.00000
    130     -34.6526      1.00000
    131     -34.6524      1.00000
    132     -34.6521      1.00000
    133     -34.6479      1.00000
    134     -34.6415      1.00000
    135     -34.6382      1.00000
    136     -34.6353      1.00000
    137     -34.6339      1.00000
    138     -34.6298      1.00000
    139     -34.6272      1.00000
    140     -34.6255      1.00000
    141     -34.6198      1.00000
    142     -34.6167      1.00000
    143     -34.6142      1.00000
    144     -34.6136      1.00000
    145     -34.6132      1.00000
    146     -34.6105      1.00000
    147     -34.6073      1.00000
    148     -34.6049      1.00000
    149     -34.5998      1.00000
    150     -34.5964      1.00000
    151     -34.5944      1.00000
    152     -34.5924      1.00000
    153     -34.5903      1.00000
    154     -34.5849      1.00000
    155     -34.5831      1.00000
    156     -34.5812      1.00000
    157     -34.5637      1.00000
    158     -34.5593      1.00000
    159     -34.5587      1.00000
    160     -34.5539      1.00000
    161     -34.5534      1.00000
    162     -34.5488      1.00000
    163     -34.5485      1.00000
    164     -34.5467      1.00000
    165     -34.5382      1.00000
    166     -34.5345      1.00000
    167     -34.5243      1.00000
    168     -34.5223      1.00000
    169     -34.5219      1.00000
    170     -34.5152      1.00000
    171     -34.5144      1.00000
    172     -34.5120      1.00000
    173     -34.5108      1.00000
    174     -34.5026      1.00000
    175     -34.4994      1.00000
    176     -34.4964      1.00000
    177     -34.4947      1.00000
    178     -34.4914      1.00000
    179     -34.4776      1.00000
    180     -34.4624      1.00000
    181     -34.4565      1.00000
    182     -34.4551      1.00000
    183     -34.4250      1.00000
    184     -34.3362      1.00000
    185     -34.3268      1.00000
    186     -34.3179      1.00000
    187     -34.3072      1.00000
    188     -34.3032      1.00000
    189     -34.2915      1.00000
    190     -34.2910      1.00000
    191     -34.2841      1.00000
    192     -34.2799      1.00000
    193     -23.8576      1.00000
    194     -23.6563      1.00000
    195     -23.6377      1.00000
    196     -23.5251      1.00000
    197     -23.5085      1.00000
    198     -23.4878      1.00000
    199     -23.4038      1.00000
    200     -23.3983      1.00000
    201     -23.3801      1.00000
    202     -23.3216      1.00000
    203     -23.3069      1.00000
    204     -23.2951      1.00000
    205     -23.2907      1.00000
    206     -23.2389      1.00000
    207     -23.2138      1.00000
    208     -23.1837      1.00000
    209     -23.1706      1.00000
    210     -23.1666      1.00000
    211     -23.1566      1.00000
    212     -23.1363      1.00000
    213     -23.1342      1.00000
    214     -23.1068      1.00000
    215     -23.0949      1.00000
    216     -23.0864      1.00000
    217     -23.0551      1.00000
    218     -23.0329      1.00000
    219     -23.0290      1.00000
    220     -23.0245      1.00000
    221     -23.0147      1.00000
    222     -23.0038      1.00000
    223     -22.9880      1.00000
    224     -22.9761      1.00000
    225     -22.9681      1.00000
    226     -22.9612      1.00000
    227     -22.9515      1.00000
    228     -22.9420      1.00000
    229     -22.9331      1.00000
    230     -22.9178      1.00000
    231     -22.9098      1.00000
    232     -22.9029      1.00000
    233     -22.8933      1.00000
    234     -22.8901      1.00000
    235     -22.8789      1.00000
    236     -22.8671      1.00000
    237     -22.8504      1.00000
    238     -22.8449      1.00000
    239     -22.8380      1.00000
    240     -22.8298      1.00000
    241     -22.8178      1.00000
    242     -22.8118      1.00000
    243     -22.8012      1.00000
    244     -22.7902      1.00000
    245     -22.7841      1.00000
    246     -22.7778      1.00000
    247     -22.7661      1.00000
    248     -22.7533      1.00000
    249     -22.7463      1.00000
    250     -22.7354      1.00000
    251     -22.7161      1.00000
    252     -22.7065      1.00000
    253     -22.6898      1.00000
    254     -22.6828      1.00000
    255     -22.6734      1.00000
    256     -22.6534      1.00000
    257     -22.6420      1.00000
    258     -22.6338      1.00000
    259     -22.6165      1.00000
    260     -22.6106      1.00000
    261     -22.6061      1.00000
    262     -22.5888      1.00000
    263     -22.5881      1.00000
    264     -22.5850      1.00000
    265     -22.5536      1.00000
    266     -22.5471      1.00000
    267     -22.5427      1.00000
    268     -22.5315      1.00000
    269     -22.5273      1.00000
    270     -22.5118      1.00000
    271     -22.4946      1.00000
    272     -22.4882      1.00000
    273     -22.4587      1.00000
    274     -22.4498      1.00000
    275     -22.4418      1.00000
    276     -22.4338      1.00000
    277     -22.3984      1.00000
    278     -22.3493      1.00000
    279     -22.3301      1.00000
    280     -22.3020      1.00000
    281     -22.2686      1.00000
    282     -22.2520      1.00000
    283     -22.2261      1.00000
    284     -22.2196      1.00000
    285     -22.2163      1.00000
    286     -22.1952      1.00000
    287     -22.1883      1.00000
    288     -22.1762      1.00000
    289     -22.1538      1.00000
    290     -22.1434      1.00000
    291     -22.1390      1.00000
    292     -22.1291      1.00000
    293     -22.1225      1.00000
[...]
   79        1.575   3.462   0.000   5.036
   80        1.574   3.462   0.000   5.036
   81        1.574   3.463   0.000   5.037
   82        1.574   3.462   0.000   5.036
   83        1.576   3.475   0.000   5.051
   84        1.575   3.464   0.000   5.039
   85        1.575   3.467   0.000   5.043
   86        1.576   3.464   0.000   5.040
   87        1.575   3.467   0.000   5.041
   88        1.575   3.465   0.000   5.040
   89        1.576   3.461   0.000   5.036
   90        1.574   3.462   0.000   5.037
   91        1.574   3.463   0.000   5.037
   92        1.577   3.474   0.000   5.052
   93        1.577   3.474   0.000   5.050
   94        1.576   3.477   0.000   5.053
   95        1.575   3.465   0.000   5.040
   96        1.575   3.466   0.000   5.041
   97        1.576   3.477   0.000   5.053
   98        1.575   3.465   0.000   5.039
   99        1.576   3.459   0.000   5.034
  100        1.575   3.460   0.000   5.035
  101        1.575   3.462   0.000   5.037
  102        1.576   3.461   0.000   5.036
  103        1.574   3.463   0.000   5.037
  104        1.577   3.473   0.000   5.049
  105        1.575   3.465   0.000   5.039
  106        1.575   3.464   0.000   5.039
  107        1.576   3.475   0.000   5.051
  108        1.575   3.465   0.000   5.040
  109        1.575   3.462   0.000   5.037
  110        1.576   3.474   0.000   5.050
  111        1.577   3.468   0.000   5.045
  112        1.576   3.474   0.000   5.051
  113        1.577   3.478   0.000   5.055
  114        1.574   3.466   0.000   5.040
  115        1.575   3.464   0.000   5.038
  116        1.575   3.462   0.000   5.037
  117        1.575   3.463   0.000   5.039
  118        1.576   3.477   0.000   5.053
  119        1.575   3.462   0.000   5.038
  120        1.575   3.466   0.000   5.041
  121        1.577   3.470   0.000   5.047
  122        1.577   3.475   0.000   5.052
  123        1.576   3.474   0.000   5.050
  124        1.576   3.476   0.000   5.051
  125        1.576   3.472   0.000   5.047
  126        1.575   3.461   0.000   5.036
  127        1.574   3.462   0.000   5.037
  128        1.576   3.472   0.000   5.048
  129        1.737   4.369   0.000   6.106
  130        1.737   4.370   0.000   6.107
  131        1.738   4.380   0.000   6.118
  132        1.739   4.390   0.000   6.128
  133        1.739   4.386   0.000   6.125
  134        1.737   4.370   0.000   6.106
  135        1.736   4.368   0.000   6.104
  136        1.738   4.380   0.000   6.119
  137        1.738   4.382   0.000   6.120
  138        1.739   4.389   0.000   6.129
  139        1.739   4.389   0.000   6.127
  140        1.738   4.381   0.000   6.119
  141        1.738   4.380   0.000   6.118
  142        1.738   4.389   0.000   6.128
  143        1.739   4.388   0.000   6.127
  144        1.738   4.383   0.000   6.121
  145        1.737   4.383   0.000   6.120
  146        1.736   4.369   0.000   6.105
  147        1.736   4.368   0.000   6.105
  148        1.739   4.388   0.000   6.128
  149        1.738   4.390   0.000   6.128
  150        1.738   4.376   0.000   6.115
  151        1.738   4.381   0.000   6.118
  152        1.738   4.383   0.000   6.120
  153        1.737   4.371   0.000   6.108
  154        1.737   4.371   0.000   6.109
  155        1.737   4.369   0.000   6.106
  156        1.737   4.368   0.000   6.105
  157        1.738   4.377   0.000   6.115
  158        1.738   4.378   0.000   6.115
  159        1.737   4.369   0.000   6.105
  160        1.736   4.370   0.000   6.107
  161        1.736   4.369   0.000   6.106
  162        1.736   4.367   0.000   6.103
  163        1.738   4.381   0.000   6.119
  164        1.737   4.369   0.000   6.106
  165        1.736   4.369   0.000   6.106
  166        1.737   4.370   0.000   6.107
  167        1.737   4.370   0.000   6.107
  168        1.738   4.378   0.000   6.117
  169        1.738   4.381   0.000   6.119
  170        1.737   4.370   0.000   6.107
  171        1.739   4.389   0.000   6.128
  172        1.737   4.372   0.000   6.109
  173        1.737   4.369   0.000   6.106
  174        1.739   4.386   0.000   6.124
  175        1.737   4.368   0.000   6.104
  176        1.738   4.380   0.000   6.118
  177        1.737   4.369   0.000   6.106
  178        1.738   4.378   0.000   6.116
  179        1.738   4.380   0.000   6.118
  180        1.736   4.369   0.000   6.105
  181        1.738   4.379   0.000   6.117
  182        1.737   4.369   0.000   6.106
  183        1.738   4.381   0.000   6.119
  184        1.737   4.383   0.000   6.121
  185        1.738   4.383   0.000   6.120
  186        1.737   4.371   0.000   6.107
  187        1.738   4.381   0.000   6.119
  188        1.738   4.381   0.000   6.120
  189        1.738   4.381   0.000   6.119
  190        1.739   4.388   0.000   6.128
  191        1.737   4.370   0.000   6.107
  192        1.739   4.390   0.000   6.129
  193        1.737   4.368   0.000   6.105
  194        1.737   4.371   0.000   6.108
  195        1.737   4.383   0.000   6.120
  196        1.737   4.369   0.000   6.106
  197        1.737   4.380   0.000   6.118
  198        1.738   4.382   0.000   6.120
  199        1.738   4.382   0.000   6.120
  200        1.738   4.382   0.000   6.120
  201        1.738   4.381   0.000   6.119
  202        1.738   4.381   0.000   6.119
  203        1.738   4.380   0.000   6.118
  204        1.737   4.380   0.000   6.118
  205        1.736   4.368   0.000   6.105
  206        1.737   4.369   0.000   6.106
  207        1.738   4.382   0.000   6.120
  208        1.738   4.380   0.000   6.118
  209        1.737   4.370   0.000   6.106
  210        1.737   4.371   0.000   6.108
  211        1.737   4.369   0.000   6.106
  212        1.739   4.376   0.000   6.115
  213        1.736   4.368   0.000   6.104
  214        1.738   4.382   0.000   6.120
  215        1.736   4.369   0.000   6.105
  216        1.737   4.368   0.000   6.105
  217        1.737   4.384   0.000   6.121
  218        1.738   4.380   0.000   6.118
  219        1.738   4.382   0.000   6.120
  220        1.738   4.382   0.000   6.119
  221        1.738   4.382   0.000   6.120
  222        1.738   4.382   0.000   6.119
  223        1.738   4.384   0.000   6.122
  224        1.738   4.383   0.000   6.121
  225        1.738   4.379   0.000   6.118
  226        1.737   4.381   0.000   6.118
  227        1.738   4.378   0.000   6.116
  228        1.738   4.381   0.000   6.119
  229        1.737   4.370   0.000   6.106
  230        1.738   4.379   0.000   6.117
  231        1.737   4.370   0.000   6.107
  232        1.738   4.382   0.000   6.120
  233        1.737   4.370   0.000   6.106
  234        1.737   4.370   0.000   6.107
  235        1.739   4.389   0.000   6.127
  236        1.739   4.388   0.000   6.127
  237        1.738   4.382   0.000   6.120
  238        1.738   4.379   0.000   6.117
  239        1.738   4.381   0.000   6.119
  240        1.738   4.378   0.000   6.116
  241        1.738   4.388   0.000   6.127
  242        1.739   4.389   0.000   6.127
  243        1.738   4.381   0.000   6.119
  244        1.738   4.379   0.000   6.117
  245        1.738   4.379   0.000   6.117
  246        1.738   4.387   0.000   6.126
  247        1.738   4.381   0.000   6.119
  248        1.738   4.387   0.000   6.125
  249        1.738   4.380   0.000   6.119
  250        1.738   4.381   0.000   6.119
  251        1.738   4.382   0.000   6.119
  252        1.738   4.379   0.000   6.118
  253        1.739   4.389   0.000   6.128
  254        1.738   4.379   0.000   6.117
  255        1.739   4.387   0.000   6.126
  256        1.738   4.380   0.000   6.118
--------------------------------------------------
tot        343.7211195.972 112.7191652.412
 


 magnetization (x)
 
# of ion       s       p       d       tot
------------------------------------------
    1        0.000   0.000   0.000   0.000
    2        0.000  -0.000   0.000   0.000
    3        0.000  -0.000  -0.000  -0.000
    4        0.000   0.000   0.000   0.000
    5        0.000   0.000   0.000   0.000
    6       -0.000   0.000  -0.000  -0.000
    7        0.000   0.000   0.000   0.000
    8       -0.000  -0.000   0.000   0.000
    9       -0.000   0.000   0.000   0.000
   10        0.000   0.000   0.000   0.000
   11        0.000  -0.000  -0.000  -0.000
   12        0.000  -0.000   0.000  -0.000
   13        0.000   0.000   0.000   0.000
   14        0.000   0.000   0.000   0.000
   15       -0.000   0.000   0.000   0.000
   16        0.000  -0.000   0.000  -0.000
   17        0.000   0.000   0.000   0.000
   18        0.000  -0.000   0.000   0.000
   19        0.000  -0.000  -0.000  -0.000
   20       -0.000   0.000   0.000   0.000
   21       -0.000  -0.000  -0.000  -0.000
   22       -0.000   0.000  -0.000  -0.000
   23       -0.000   0.000   0.000   0.000
   24       -0.000   0.000  -0.000  -0.000
   25       -0.000  -0.000  -0.000  -0.000
   26        0.000  -0.000  -0.000  -0.000
   27       -0.000  -0.000  -0.000  -0.000
   28        0.000  -0.000   0.000   0.000
   29        0.000   0.000   0.000   0.000
   30        0.000   0.000   0.000   0.000
   31       -0.000  -0.000  -0.000  -0.000
   32       -0.000   0.000  -0.000  -0.000
   33       -0.000   0.000   0.000   0.000
   34        0.000  -0.000  -0.000   0.000
   35        0.000  -0.000  -0.000  -0.000
   36       -0.000  -0.000  -0.000  -0.000
   37        0.000  -0.000   0.000   0.000
   38       -0.000   0.000   0.000   0.000
   39        0.000  -0.000   0.000   0.000
   40       -0.000  -0.000   0.000   0.000
   41       -0.000   0.000  -0.000  -0.000
   42       -0.000   0.000   0.000   0.000
   43       -0.000  -0.000  -0.000  -0.000
   44        0.000  -0.000  -0.000  -0.000
   45        0.000   0.000   0.000   0.000
   46       -0.000   0.000   0.000   0.000
   47       -0.000   0.000   0.000   0.000
   48        0.000   0.000   0.000   0.000
   49        0.000   0.000   0.000   0.000
   50        0.000   0.000   0.000   0.000
   51       -0.000   0.000   0.000   0.000
   52       -0.000  -0.000  -0.000  -0.000
   53        0.000   0.000  -0.000   0.000
   54        0.000   0.000   0.000   0.000
   55        0.000  -0.000   0.000   0.000
   56       -0.000   0.000  -0.000  -0.000
   57       -0.000   0.000   0.000   0.000
   58        0.000  -0.000   0.000   0.000
   59       -0.000   0.000   0.000   0.000
   60       -0.000   0.000  -0.000  -0.000
   61        0.000  -0.000  -0.000  -0.000
   62        0.000  -0.000   0.000   0.000
   63        0.000   0.000   0.000   0.000
   64       -0.000   0.000  -0.000  -0.000
   65        0.000  -0.000   0.000  -0.000
   66       -0.000  -0.000   0.000  -0.000
   67       -0.000  -0.000   0.000  -0.000
   68       -0.000  -0.000   0.000  -0.000
   69        0.000  -0.000   0.000  -0.000
   70        0.000   0.000   0.000   0.000
   71        0.000   0.000   0.000   0.000
   72       -0.000   0.000   0.000   0.000
   73       -0.000  -0.000   0.000  -0.000
   74        0.000   0.000   0.000   0.000
   75        0.000   0.000   0.000   0.000
   76       -0.000   0.000   0.000   0.000
   77       -0.000  -0.000   0.000  -0.000
   78       -0.000  -0.000   0.000  -0.000
   79       -0.000  -0.000   0.000  -0.000
   80       -0.000  -0.000   0.000  -0.000
   81       -0.000  -0.000   0.000  -0.000
   82       -0.000  -0.000   0.000  -0.000
   83        0.000   0.000   0.000   0.000
   84        0.000  -0.000   0.000   0.000
   85       -0.000  -0.000   0.000  -0.000
   86       -0.000   0.000   0.000   0.000
   87        0.000   0.000   0.000   0.000
   88        0.000   0.000   0.000   0.000
   89       -0.000  -0.000   0.000  -0.000
   90        0.000   0.000   0.000   0.000
   91       -0.000  -0.000   0.000  -0.000
   92        0.000   0.000   0.000   0.000
   93        0.000  -0.000   0.000  -0.000
   94        0.000   0.000   0.000   0.000
   95        0.000   0.000   0.000   0.000
   96       -0.000  -0.000   0.000  -0.000
   97        0.000  -0.000   0.000  -0.000
   98        0.000  -0.000   0.000  -0.000
   99        0.000   0.000   0.000   0.000
  100        0.000   0.000   0.000   0.000
  101        0.000   0.000   0.000   0.000
  102       -0.000  -0.000   0.000  -0.000
  103       -0.000   0.000   0.000   0.000
  104        0.000  -0.000   0.000  -0.000
  105       -0.000   0.000   0.000   0.000
  106       -0.000   0.000   0.000   0.000
  107       -0.000  -0.000   0.000  -0.000
  108       -0.000  -0.000   0.000  -0.000
  109       -0.000  -0.000   0.000  -0.000
  110        0.000  -0.000   0.000  -0.000
  111        0.000   0.000   0.000   0.000
  112        0.000  -0.000   0.000  -0.000
  113       -0.000  -0.000   0.000  -0.000
  114       -0.000  -0.000   0.000  -0.000
  115        0.000  -0.000   0.000   0.000
  116       -0.000  -0.000   0.000  -0.000
  117        0.000   0.000   0.000   0.000
  118       -0.000  -0.000   0.000  -0.000
  119        0.000   0.000   0.000   0.000
  120        0.000  -0.000   0.000  -0.000
  121        0.000   0.000   0.000   0.000
  122       -0.000   0.000   0.000   0.000
  123       -0.000  -0.000   0.000  -0.000
  124       -0.000   0.000   0.000   0.000
  125       -0.000  -0.000   0.000  -0.000
  126       -0.000  -0.000   0.000  -0.000
  127        0.000   0.000   0.000   0.000
  128       -0.000   0.000   0.000   0.000
  129        0.000  -0.000   0.000  -0.000
  130       -0.000  -0.000   0.000  -0.000
  131       -0.000   0.000   0.000   0.000
  132       -0.000  -0.000   0.000  -0.000
  133        0.000   0.000   0.000   0.000
  134       -0.000  -0.000   0.000  -0.000
  135       -0.000  -0.000   0.000  -0.000
  136        0.000   0.000   0.000   0.000
  137        0.000   0.000   0.000   0.000
  138       -0.000   0.000   0.000   0.000
  139        0.000  -0.000   0.000  -0.000
  140        0.000  -0.000   0.000  -0.000
  141        0.000   0.000   0.000   0.000
  142        0.000   0.000   0.000   0.000
  143        0.000   0.000   0.000   0.000
  144       -0.000  -0.000   0.000  -0.000
  145       -0.000  -0.000   0.000  -0.000
  146       -0.000  -0.000   0.000  -0.000
  147       -0.000   0.000   0.000   0.000
  148        0.000   0.000   0.000   0.000
  149        0.000   0.000   0.000   0.000
  150        0.000   0.000   0.000   0.000
  151       -0.000  -0.000   0.000  -0.000
  152       -0.000   0.000   0.000   0.000
  153        0.000   0.000   0.000   0.000
  154        0.000  -0.000   0.000  -0.000
  155        0.000   0.000   0.000   0.000
  156        0.000  -0.000   0.000  -0.000
  157        0.000   0.000   0.000   0.000
  158        0.000   0.000   0.000   0.000
  159       -0.000  -0.000   0.000  -0.000
  160        0.000   0.000   0.000   0.000
  161       -0.000  -0.000   0.000  -0.000
  162        0.000   0.000   0.000   0.000
  163        0.000   0.000   0.000   0.000
  164       -0.000   0.000   0.000   0.000
  165       -0.000  -0.000   0.000  -0.000
  166        0.000  -0.000   0.000  -0.000
  167        0.000   0.000   0.000   0.000
  168       -0.000   0.000   0.000   0.000
  169        0.000  -0.000   0.000  -0.000
  170        0.000  -0.000   0.000  -0.000
  171        0.000  -0.000   0.000  -0.000
  172       -0.000   0.000   0.000   0.000
  173        0.000   0.000   0.000   0.000
  174        0.000   0.000   0.000   0.000
  175       -0.000  -0.000   0.000  -0.000
  176        0.000  -0.000   0.000  -0.000
  177       -0.000   0.000   0.000   0.000
  178        0.000   0.000   0.000   0.000
  179       -0.000  -0.000   0.000  -0.000
  180        0.000  -0.000   0.000  -0.000
  181        0.000   0.000   0.000   0.000
  182        0.000  -0.000   0.000  -0.000
  183        0.000  -0.000   0.000  -0.000
  184        0.000   0.000   0.000   0.000
  185        0.000   0.000   0.000   0.000
  186       -0.000   0.000   0.000   0.000
  187        0.000  -0.000   0.000  -0.000
  188        0.000   0.000   0.000   0.000
  189       -0.000  -0.000   0.000  -0.000
  190        0.000   0.000   0.000   0.000
  191        0.000   0.000   0.000   0.000
  192        0.000  -0.000   0.000  -0.000
  193        0.000   0.000   0.000   0.000
  194       -0.000  -0.000   0.000  -0.000
  195        0.000   0.000   0.000   0.000
  196        0.000  -0.000   0.000  -0.000
  197        0.000  -0.000   0.000  -0.000
  198       -0.000  -0.000   0.000  -0.000
  199        0.000  -0.000   0.000  -0.000
  200        0.000   0.000   0.000   0.000
  201       -0.000   0.000   0.000   0.000
  202        0.000   0.000   0.000   0.000
  203        0.000  -0.000   0.000  -0.000
  204       -0.000  -0.000   0.000  -0.000
  205        0.000  -0.000   0.000  -0.000
  206        0.000  -0.000   0.000  -0.000
  207        0.000  -0.000   0.000  -0.000
  208        0.000   0.000   0.000   0.000
  209        0.000   0.000   0.000   0.000
  210       -0.000  -0.000   0.000  -0.000
  211       -0.000  -0.000   0.000  -0.000
  212        0.000   0.000   0.000   0.000
  213       -0.000   0.000   0.000   0.000
  214       -0.000  -0.000   0.000  -0.000
  215        0.000   0.000   0.000   0.000
  216        0.000  -0.000   0.000  -0.000
  217       -0.000  -0.000   0.000  -0.000
  218       -0.000  -0.000   0.000  -0.000
  219       -0.000   0.000   0.000   0.000
  220       -0.000   0.000   0.000   0.000
  221       -0.000  -0.000   0.000  -0.000
  222       -0.000  -0.000   0.000  -0.000
  223       -0.000  -0.000   0.000  -0.000
  224       -0.000  -0.000   0.000  -0.000
  225       -0.000   0.000   0.000   0.000
  226        0.000  -0.000   0.000  -0.000
  227        0.000   0.000   0.000   0.000
  228       -0.000  -0.000   0.000  -0.000
  229       -0.000   0.000   0.000   0.000
  230        0.000   0.000   0.000   0.000
  231        0.000  -0.000   0.000  -0.000
  232        0.000  -0.000   0.000  -0.000
  233       -0.000  -0.000   0.000  -0.000
  234        0.000   0.000   0.000   0.000
  235       -0.000  -0.000   0.000  -0.000
  236       -0.000  -0.000   0.000  -0.000
  237        0.000  -0.000   0.000  -0.000
  238       -0.000  -0.000   0.000  -0.000
  239        0.000  -0.000   0.000  -0.000
  240       -0.000   0.000   0.000   0.000
  241       -0.000  -0.000   0.000  -0.000
  242       -0.000  -0.000   0.000  -0.000
  243        0.000  -0.000   0.000  -0.000
  244        0.000   0.000   0.000   0.000
  245       -0.000  -0.000   0.000  -0.000
  246       -0.000  -0.000   0.000  -0.000
  247       -0.000   0.000   0.000   0.000
  248        0.000   0.000   0.000   0.000
  249       -0.000  -0.000   0.000  -0.000
  250        0.000   0.000   0.000   0.000
  251        0.000  -0.000   0.000   0.000
  252        0.000  -0.000   0.000  -0.000
  253       -0.000  -0.000   0.000  -0.000
  254       -0.000   0.000   0.000   0.000
  255        0.000  -0.000   0.000  -0.000
  256        0.000  -0.000   0.000  -0.000
--------------------------------------------------
tot          0.000  -0.000   0.000  -0.000
 

 total amount of memory used by VASP MPI-rank0   305176. kBytes
=======================================================================

   base      :      30000. kBytes
   nonlr-proj:      49371. kBytes
   fftplans  :      27976. kBytes
   grid      :      32647. kBytes
   one-center:        995. kBytes
   wavefun   :     164187. kBytes
 
  
  
 General timing and accounting informations for this job:
 ========================================================
  
                  Total CPU time used (sec):      832.184
                            User time (sec):      493.442
                          System time (sec):      338.742
                         Elapsed time (sec):      882.201
  
                   Maximum memory used (kb):      654532.
                   Average memory used (kb):           0.
  
                          Minor page faults:        86168
                          Major page faults:            0
                 Voluntary context switches:        16570
