       N       E                     dE             d eps       ncg     rms          rms(c)
DAV:   1    -0.209268005133E+03   -0.20927E+03   -0.47584E-03 20480   0.402E-01    0.119E-01
DAV:   2    -0.209276583933E+03   -0.85788E-02   -0.11971E-03 27184   0.167E-01    0.189E+00
DAV:   3    -0.209267848719E+03    0.87352E-02   -0.10100E-03 26656   0.165E-01    0.223E-01
DAV:   4    -0.209268130732E+03   -0.28201E-03   -0.74889E-05 20976   0.238E-02    0.244E-01
DAV:   5    -0.209268010523E+03    0.12021E-03   -0.40690E-05 20464   0.145E-02    0.126E-01
DAV:   6    -0.209267978623E+03    0.31901E-04   -0.13578E-05 21248   0.117E-02    0.630E-02
DAV:   7    -0.209267976593E+03    0.20293E-05   -0.14769E-06 15040   0.396E-03    0.588E-02
DAV:   8    -0.209267969076E+03    0.75175E-05   -0.12073E-05 16352   0.600E-03    0.403E-02
DAV:   9    -0.209267966279E+03    0.27968E-05   -0.33230E-06 15632   0.570E-03    0.132E-02
DAV:  10    -0.209267966361E+03   -0.82135E-07   -0.67916E-07 11776   0.232E-03
   1 F= -.20926797E+03 E0= -.20926701E+03  d E =-.209268E+03  mag=     0.0001
