       N       E                     dE             d eps       ncg     rms          rms(c)
DAV:   1    -0.211765434952E+03   -0.21177E+03   -0.34466E-04 21024   0.768E-02    0.475E-03
DAV:   2    -0.211765434713E+03    0.23898E-06   -0.23779E-06 19024   0.111E-02
   1 F= -.21176543E+03 E0= -.21176543E+03  d E =-.211765E+03  mag=     0.0000
