 vasp.5.4.4.18Apr17-6-g9f103f2a35 (build Apr 30 2017 20:10:35) complex          
  
 executed on             LinuxIFC date 2017.08.08  21:16:50
 running on   64 total cores
 distrk:  each k-point on   64 cores,    1 groups
 distr:  one band on NCORES_PER_BAND=   8 cores,    8 groups


--------------------------------------------------------------------------------------------------------


 INCAR:
 POTCAR:   PAW_PBE Ti_pv 07Sep2000                
 POTCAR:   PAW_PBE O 08Apr2002                    
 POTCAR:    PAW_PBE F 08Apr2002                   
 POTCAR:   PAW_PBE Ti_pv 07Sep2000                
   VRHFIN =Ti: d3 s1                                                            
   LEXCH  = PE                                                                  
   EATOM  =  1042.3781 eV,   76.6126 Ry                                         
                                                                                
   TITEL  = PAW_PBE Ti_pv 07Sep2000                                             
   LULTRA =        F    use ultrasoft PP ?                                      
   IUNSCR =        1    unscreen: 0-lin 1-nonlin 2-no                           
   RPACOR =    2.200    partial core radius                                     
   POMASS =   47.880; ZVAL   =   10.000    mass and valenz                      
   RCORE  =    2.500    outmost cutoff radius                                   
   RWIGS  =    2.500; RWIGS  =    1.323    wigner-seitz radius (au A)           
   ENMAX  =  222.338; ENMIN  =  166.753 eV                                      
   RCLOC  =    1.701    cutoff for local pot                                    
   LCOR   =        T    correct aug charges                                     
   LPAW   =        T    paw PP                                                  
   EAUG   =  482.848                                                            
   DEXC   =    -.008                                                            
   RMAX   =    3.092    core radius for proj-oper                               
   RAUG   =    1.300    factor for augmentation sphere                          
   RDEP   =    2.538    radius for radial grids                                 
   QCUT   =   -4.042; QGAM   =    8.085    optimization parameters              
                                                                                
   Description                                                                  
     l     E      TYP  RCUT    TYP  RCUT                                        
     1   .000     23  2.300                                                     
     1  -.100     23  2.300                                                     
     2   .000     23  2.500                                                     
     2   .000     23  2.500                                                     
     0   .000     23  2.500                                                     
     0  1.500     23  2.500                                                     
     3   .000      7   .000                                                     
  local pseudopotential read in
  partial core-charges read in
  atomic valenz-charges read in
  non local Contribution for L=           1  read in
    real space projection operators read in
  non local Contribution for L=           1  read in
    real space projection operators read in
  non local Contribution for L=           2  read in
    real space projection operators read in
  non local Contribution for L=           2  read in
    real space projection operators read in
  non local Contribution for L=           0  read in
    real space projection operators read in
  non local Contribution for L=           0  read in
    real space projection operators read in
    PAW grid and wavefunctions read in
 
   number of l-projection  operators is LMAX  =           6
   number of lm-projection operators is LMMAX =          18
 
 POTCAR:   PAW_PBE O 08Apr2002                    
   VRHFIN =O: s2p4                                                              
   LEXCH  = PE                                                                  
   EATOM  =   432.3788 eV,   31.7789 Ry                                         
                                                                                
   TITEL  = PAW_PBE O 08Apr2002                                                 
   LULTRA =        F    use ultrasoft PP ?                                      
   IUNSCR =        0    unscreen: 0-lin 1-nonlin 2-no                           
   RPACOR =     .000    partial core radius                                     
   POMASS =   16.000; ZVAL   =    6.000    mass and valenz                      
   RCORE  =    1.520    outmost cutoff radius                                   
   RWIGS  =    1.550; RWIGS  =     .820    wigner-seitz radius (au A)           
   ENMAX  =  400.000; ENMIN  =  300.000 eV                                      
   ICORE  =        2    local potential                                         
   LCOR   =        T    correct aug charges                                     
   LPAW   =        T    paw PP                                                  
   EAUG   =  605.392                                                            
   DEXC   =     .000                                                            
   RMAX   =    2.264    core radius for proj-oper                               
   RAUG   =    1.300    factor for augmentation sphere                          
   RDEP   =    1.550    radius for radial grids                                 
   QCUT   =   -5.520; QGAM   =   11.041    optimization parameters              
                                                                                
   Description                                                                  
     l     E      TYP  RCUT    TYP  RCUT                                        
     0   .000     23  1.200                                                     
     0  -.700     23  1.200                                                     
     1   .000     23  1.520                                                     
     1   .600     23  1.520                                                     
     2   .000      7  1.500                                                     
  local pseudopotential read in
  atomic valenz-charges read in
  non local Contribution for L=           0  read in
    real space projection operators read in
  non local Contribution for L=           0  read in
    real space projection operators read in
  non local Contribution for L=           1  read in
    real space projection operators read in
  non local Contribution for L=           1  read in
    real space projection operators read in
    PAW grid and wavefunctions read in
 
   number of l-projection  operators is LMAX  =           4
   number of lm-projection operators is LMMAX =           8
 
 POTCAR:    PAW_PBE F 08Apr2002                   
   VRHFIN =F: s2p5                                                              
   LEXCH  = PE                                                                  
   EATOM  =   659.6475 eV,   48.4827 Ry                                         
                                                                                
   TITEL  = PAW_PBE F 08Apr2002                                                 
   LULTRA =        F    use ultrasoft PP ?                                      
   IUNSCR =        1    unscreen: 0-lin 1-nonlin 2-no                           
   RPACOR =    1.200    partial core radius                                     
   POMASS =   18.998; ZVAL   =    7.000    mass and valenz                      
   RCORE  =    1.520    outmost cutoff radius                                   
   RWIGS  =    1.500; RWIGS  =    0.794    wigner-seitz radius (au A)           
   ENMAX  =  400.000; ENMIN  =  300.000 eV                                      
   ICORE  =        2    local potential                                         
   LCOR   =        T    correct aug charges                                     
   LPAW   =        T    paw PP                                                  
   EAUG   =  613.614                                                            
   RMAX   =    1.555    core radius for proj-oper                               
   RAUG   =    1.300    factor for augmentation sphere                          
   RDEP   =    1.539    radius for radial grids                                 
   RDEPT  =    1.299    core radius for aug-charge                              
                                                                                
   Atomic configuration                                                         
    4 entries                                                                   
     n  l   j            E        occ.                                          
     1  0  0.50      -663.3661   2.0000                                         
     2  0  0.50       -29.8995   2.0000                                         
     2  1  0.50       -11.1114   5.0000                                         
     3  2  1.50       -10.8847   0.0000                                         
   Description                                                                  
     l       E           TYP  RCUT    TYP  RCUT                                 
     0    -29.8995018     23  1.200                                             
     0     -9.5240782     23  1.200                                             
     1    -11.1113914     23  1.520                                             
     1      1.3605826     23  1.520                                             
     2    -10.8846608      7  1.500                                             
  local pseudopotential read in
  partial core-charges read in
  partial kinetic energy density read in
  atomic valenz-charges read in
  non local Contribution for L=           0  read in
    real space projection operators read in
  non local Contribution for L=           0  read in
    real space projection operators read in
  non local Contribution for L=           1  read in
    real space projection operators read in
  non local Contribution for L=           1  read in
    real space projection operators read in
    PAW grid and wavefunctions read in
 
   number of l-projection  operators is LMAX  =           4
   number of lm-projection operators is LMMAX =           8
 
 Optimization of the real space projectors (new method)

 maximal supplied QI-value         = 15.12
 optimisation between [QCUT,QGAM] = [ 13.45, 27.06] = [ 50.69,205.06] Ry 
 Optimized for a Real-space Cutoff    1.49 Angstroem

   l    n(q)    QCUT    max X(q) W(low)/X(q) W(high)/X(q)  e(spline) 
   1     12    13.455     4.841    0.13E-05    0.83E-06    0.56E-07
   1     12    13.455     5.701    0.32E-04    0.25E-04    0.17E-06
   2     11    13.455     4.569    0.64E-05    0.34E-05    0.50E-07
   2     11    13.455    32.276    0.49E-04    0.38E-04    0.46E-06
   0     12    13.455    30.046    0.17E-04    0.41E-05    0.51E-07
   0     12    13.455    45.433    0.12E-04    0.27E-04    0.38E-06
 Optimization of the real space projectors (new method)

 maximal supplied QI-value         = 24.76
 optimisation between [QCUT,QGAM] = [ 13.37, 26.98] = [ 50.04,203.89] Ry 
 Optimized for a Real-space Cutoff    1.17 Angstroem

   l    n(q)    QCUT    max X(q) W(low)/X(q) W(high)/X(q)  e(spline) 
   0      9    13.368     4.192    0.20E-04    0.58E-05    0.56E-07
   0      9    13.368     8.473    0.60E-04    0.52E-04    0.21E-06
   1      9    13.368     2.474    0.22E-04    0.17E-04    0.28E-07
   1      9    13.368     3.912    0.94E-04    0.97E-04    0.20E-06
 Optimization of the real space projectors (new method)

 maximal supplied QI-value         = 24.76
 optimisation between [QCUT,QGAM] = [ 13.37, 26.98] = [ 50.04,203.89] Ry 
 Optimized for a Real-space Cutoff    1.17 Angstroem

   l    n(q)    QCUT    max X(q) W(low)/X(q) W(high)/X(q)  e(spline) 
   0      9    13.368    14.049    0.39E-04    0.34E-04    0.16E-06
   0      9    13.368     8.945    0.54E-04    0.47E-04    0.20E-06
   1      9    13.368     7.086    0.99E-04    0.10E-03    0.23E-06
   1      9    13.368     6.747    0.86E-04    0.89E-04    0.21E-06

 ----------------------------------------------------------------------------- 
|                                                                             |
|  ADVICE TO THIS USER RUNNING 'VASP/VAMP'   (HEAR YOUR MASTER'S VOICE ...):  |
|                                                                             |
|      You enforced a specific xc-type in the INCAR file,                     |
|      a different type was found on the POTCAR file                          |
|          I HOPE YOU KNOW, WHAT YOU ARE  DOING                               |
|                                                                             |
 ----------------------------------------------------------------------------- 

 PAW_PBE Ti_pv 07Sep2000                :
 energy of atom  1       EATOM=-1042.3781
 kinetic energy error for atom=    0.0006 (will be added to EATOM!!)
 PAW_PBE O 08Apr2002                    :
 energy of atom  2       EATOM= -432.3788
 kinetic energy error for atom=    0.0091 (will be added to EATOM!!)
  PAW_PBE F 08Apr2002                   :
 energy of atom  3       EATOM= -659.6475
 kinetic energy error for atom=    0.0140 (will be added to EATOM!!)
 
 
 POSCAR: TiOF2 2x2x2 config 0002                 
  positions in direct lattice
  velocities in cartesian coordinates
 exchange correlation table for  LEXCH =       14
   RHO(1)=    0.500       N(1)  =     2000
   RHO(2)=  100.500       N(2)  =     4000

 VTST: version 3.1, (03/28/14)

 CHAIN: initializing optimizer
 
 OPT: Using VASP Conjugate-Gradient optimizer
 CHAIN: Read ICHAIN            0
 
 POSCAR: TiOF2 2x2x2 config 0002                 
  positions in direct lattice
  velocities in cartesian coordinates
 


--------------------------------------------------------------------------------------------------------


 ion  position               nearest neighbor table
   1  1.000  0.001  0.991-  11 1.79  10 1.93  25 1.95  27 1.95  21 2.00  17 2.00
   2  1.000  1.000  0.490-  10 1.79  26 1.95  11 1.95  28 1.95  22 1.98  18 1.98
   3  0.000  0.502  0.992-  13 1.79  12 1.94  27 1.97  25 1.97  19 1.97  23 1.97
   4  1.000  0.499  0.491-  12 1.79  13 1.95  24 1.96  20 1.96  26 1.96  28 1.97
   5  0.500  1.000  0.986-  14 1.74  29 1.94  31 1.95  17 1.96  21 1.96  32 1.98
   6  0.500  0.977  0.502-   9 1.77  14 1.88  32 1.96  18 1.98  22 1.98  30 2.10
   7  0.500  0.503  0.995-  16 1.80  15 1.91  23 1.98  19 1.98  29 2.01  31 2.02
   8  0.500  0.503  0.492-  15 1.83   9 1.95  16 1.97  20 1.99  24 1.99  30 2.04
   9  0.500  0.752  0.473-   6 1.77   8 1.95
  10  1.000  0.999  0.250-   2 1.79   1 1.93
  11  1.000  0.001  0.752-   1 1.79   2 1.95
  12  1.000  0.502  0.251-   4 1.79   3 1.94
  13  0.000  0.500  0.752-   3 1.79   4 1.95
  14  0.500  0.973  0.754-   5 1.74   6 1.88
  15  0.500  0.476  0.249-   8 1.83   7 1.91
  16  0.500  0.521  0.755-   7 1.80   8 1.97
  17  0.253  0.002  0.006-   5 1.96   1 2.00
  18  0.251  0.001  0.498-   6 1.98   2 1.98
  19  0.249  0.503  0.003-   3 1.97   7 1.98
  20  0.248  0.496  0.504-   4 1.96   8 1.99
  21  0.747  0.002  0.006-   5 1.96   1 2.00
  22  0.749  0.001  0.498-   6 1.98   2 1.98
  23  0.751  0.503  0.003-   3 1.97   7 1.98
  24  0.752  0.496  0.504-   4 1.96   8 1.99
  25  0.000  0.250  0.004-   1 1.95   3 1.97
  26  1.000  0.249  0.503-   2 1.95   4 1.96
  27  1.000  0.752  0.003-   1 1.95   3 1.97
  28  0.000  0.751  0.505-   2 1.95   4 1.97
  29  0.500  0.247  0.975-   5 1.94   7 2.01
  30  0.500  0.245  0.525-   8 2.04   6 2.10
  31  0.500  0.757  0.039-   5 1.95   7 2.02
  32  0.500  0.036  0.248-   6 1.96   5 1.98
 

IMPORTANT INFORMATION: All symmetrisations will be switched off!
NOSYMM: (Re-)initialisation of all symmetry stuff for point group C_1.

 
 
 KPOINTS: Title                                   

Automatic generation of k-mesh.
Space group operators:
 irot       det(A)        alpha          n_x          n_y          n_z        tau_x        tau_y        tau_z
    1     1.000000     0.000001     1.000000     0.000000     0.000000     0.000000     0.000000     0.000000
 
 Subroutine IBZKPT returns following result:
 ===========================================
 
 Found     32 irreducible k-points:
 
 Following reciprocal coordinates:
            Coordinates               Weight
  0.125000  0.125000  0.125000      2.000000
  0.375000  0.125000  0.125000      2.000000
 -0.375000  0.125000  0.125000      2.000000
 -0.125000  0.125000  0.125000      2.000000
  0.125000  0.375000  0.125000      2.000000
  0.375000  0.375000  0.125000      2.000000
 -0.375000  0.375000  0.125000      2.000000
 -0.125000  0.375000  0.125000      2.000000
  0.125000 -0.375000  0.125000      2.000000
  0.375000 -0.375000  0.125000      2.000000
 -0.375000 -0.375000  0.125000      2.000000
 -0.125000 -0.375000  0.125000      2.000000
  0.125000 -0.125000  0.125000      2.000000
  0.375000 -0.125000  0.125000      2.000000
 -0.375000 -0.125000  0.125000      2.000000
 -0.125000 -0.125000  0.125000      2.000000
  0.125000  0.125000  0.375000      2.000000
  0.375000  0.125000  0.375000      2.000000
 -0.375000  0.125000  0.375000      2.000000
 -0.125000  0.125000  0.375000      2.000000
  0.125000  0.375000  0.375000      2.000000
  0.375000  0.375000  0.375000      2.000000
 -0.375000  0.375000  0.375000      2.000000
 -0.125000  0.375000  0.375000      2.000000
  0.125000 -0.375000  0.375000      2.000000
  0.375000 -0.375000  0.375000      2.000000
 -0.375000 -0.375000  0.375000      2.000000
 -0.125000 -0.375000  0.375000      2.000000
  0.125000 -0.125000  0.375000      2.000000
  0.375000 -0.125000  0.375000      2.000000
 -0.375000 -0.125000  0.375000      2.000000
 -0.125000 -0.125000  0.375000      2.000000
 
 Following cartesian coordinates:
            Coordinates               Weight
  0.015839  0.015976  0.016753      2.000000
  0.047517  0.015977  0.016753      2.000000
 -0.047516  0.015975  0.016753      2.000000
 -0.015838  0.015976  0.016753      2.000000
  0.015840  0.047915  0.016765      2.000000
  0.047517  0.047916  0.016766      2.000000
 -0.047516  0.047915  0.016765      2.000000
 -0.015838  0.047915  0.016765      2.000000
  0.015838 -0.047902  0.016729      2.000000
  0.047516 -0.047902  0.016729      2.000000
 -0.047517 -0.047903  0.016728      2.000000
 -0.015839 -0.047903  0.016728      2.000000
  0.015839 -0.015963  0.016741      2.000000
  0.047516 -0.015963  0.016741      2.000000
 -0.047517 -0.015964  0.016741      2.000000
 -0.015839 -0.015964  0.016741      2.000000
  0.015839  0.015989  0.050247      2.000000
  0.047517  0.015989  0.050247      2.000000
 -0.047516  0.015988  0.050247      2.000000
 -0.015838  0.015988  0.050247      2.000000
  0.015840  0.047928  0.050259      2.000000
  0.047517  0.047928  0.050260      2.000000
 -0.047515  0.047927  0.050259      2.000000
 -0.015838  0.047927  0.050259      2.000000
  0.015838 -0.047890  0.050223      2.000000
  0.047516 -0.047890  0.050223      2.000000
 -0.047517 -0.047891  0.050222      2.000000
 -0.015839 -0.047890  0.050222      2.000000
  0.015839 -0.015951  0.050235      2.000000
  0.047516 -0.015950  0.050235      2.000000
 -0.047516 -0.015952  0.050235      2.000000
 -0.015839 -0.015951  0.050235      2.000000
 


--------------------------------------------------------------------------------------------------------




 Dimension of arrays:
   k-points           NKPTS =     32   k-points in BZ     NKDIM =     32   number of bands    NBANDS=    160
   number of dos      NEDOS =   3001   number of ions     NIONS =     32
   non local maximal  LDIM  =      6   non local SUM 2l+1 LMDIM =     18
   total plane-waves  NPLWV = 313600
   max r-space proj   IRMAX =   9434   max aug-charges    IRDMAX= 211423
   dimension x,y,z NGX =    70 NGY =   70 NGZ =   64
   dimension x,y,z NGXF=   140 NGYF=  140 NGZF=  128
   support grid    NGXF=   280 NGYF=  280 NGZF=  256
   ions per type =               8   8  16
   NGX,Y,Z   is equivalent  to a cutoff of  14.75, 14.87, 14.25 a.u.
   NGXF,Y,Z  is equivalent  to a cutoff of  29.49, 29.73, 28.51 a.u.

 SYSTEM =  LTO                                     
 POSCAR =  TiOF2 2x2x2 config 0002                 

 Startparameter for this run:
   NWRITE =      2    write-flag & timer
   PREC   = accura    normal or accurate (medium, high low for compatibility)
   ISTART =      1    job   : 0-new  1-cont  2-samecut
   ICHARG =      0    charge: 1-file 2-atom 10-const
   ISPIN  =      2    spin polarized calculation?
   LNONCOLLINEAR =      F non collinear calculations
   LSORBIT =      F    spin-orbit coupling
   INIWAV =      1    electr: 0-lowe 1-rand  2-diag
   LASPH  =      T    aspherical Exc in radial PAW
   METAGGA=      F    non-selfconsistent MetaGGA calc.

 Electronic Relaxation 1
   ENCUT  =  700.0 eV  51.45 Ry    7.17 a.u.  17.03 16.89 16.10*2*pi/ulx,y,z
   ENINI  =  700.0     initial cutoff
   ENAUG  =  613.6 eV  augmentation charge cutoff
   NELM   =     60;   NELMIN=  2; NELMDL=  0     # of ELM steps 
   EDIFF  = 0.1E-05   stopping-criterion for ELM
   LREAL  =      T    real-space projection
   NLSPLINE    = F    spline interpolate recip. space projectors
   LCOMPAT=      F    compatible to vasp.4.4
   GGA_COMPAT  = T    GGA compatible to vasp.4.4-vasp.4.6
   LMAXPAW     = -100 max onsite density
   LMAXMIX     =    4 max onsite mixed and CHGCAR
   VOSKOWN=      0    Vosko Wilk Nusair interpolation
   ROPT   =   -0.00010  -0.00010  -0.00010
 Ionic relaxation
   EDIFFG = -.1E-01   stopping-criterion for IOM
   NSW    =    100    number of steps for IOM
   NBLOCK =      1;   KBLOCK =    100    inner block; outer block 
   IBRION =      2    ionic relax: 0-MD 1-quasi-New 2-CG
   NFREE  =      1    steps in history (QN), initial steepest desc. (CG)
   ISIF   =      3    stress and relaxation
   IWAVPR =     11    prediction:  0-non 1-charg 2-wave 3-comb
   ISYM   =      0    0-nonsym 1-usesym 2-fastsym
   LCORR  =      T    Harris-Foulkes like correction to forces

   POTIM  = 0.5000    time-step for ionic-motion
   TEIN   =    0.0    initial temperature
   TEBEG  =    0.0;   TEEND  =   0.0 temperature during run
   SMASS  =  -3.00    Nose mass-parameter (am)
   estimated Nose-frequenzy (Omega)   =  0.10E-29 period in steps =****** mass=  -0.142E-26a.u.
   SCALEE = 1.0000    scale energy and forces
   NPACO  =    256;   APACO  = 16.0  distance and # of slots for P.C.
   PSTRESS=    0.0 pullay stress

  Mass of Ions in am
   POMASS =  47.88 16.00 19.00
  Ionic Valenz
   ZVAL   =  10.00  6.00  7.00
  Atomic Wigner-Seitz radii
   RWIGS  =  -1.00 -1.00 -1.00
  virtual crystal weights 
   VCA    =   1.00  1.00  1.00
   NELECT =     240.0000    total number of electrons
   NUPDOWN=      -1.0000    fix difference up-down

 DOS related values:
   EMIN   =  10.00;   EMAX   =-10.00  energy-range for DOS
   EFERMI =   0.00
   ISMEAR =     0;   SIGMA  =   0.01  broadening in eV -4-tet -1-fermi 0-gaus

 Electronic relaxation 2 (details)
   IALGO  =     38    algorithm
   LDIAG  =      T    sub-space diagonalisation (order eigenvalues)
   LSUBROT=      F    optimize rotation matrix (better conditioning)
   TURBO    =      0    0=normal 1=particle mesh
   IRESTART =      0    0=no restart 2=restart with 2 vectors
   NREBOOT  =      0    no. of reboots
   NMIN     =      0    reboot dimension
   EREF     =   0.00    reference energy to select bands
   IMIX   =      4    mixing-type and parameters
     AMIX     =   0.40;   BMIX     =  1.00
     AMIX_MAG =   1.60;   BMIX_MAG =  1.00
     AMIN     =   0.10
     WC   =   100.;   INIMIX=   1;  MIXPRE=   1;  MAXMIX= -45

 Intra band minimization:
   WEIMIN = 0.0010     energy-eigenvalue tresh-hold
   EBREAK =  0.16E-08  absolut break condition
   DEPER  =   0.30     relativ break condition  

   TIME   =   0.40     timestep for ELM

  volume/ion in A,a.u.               =      14.41        97.24
  Fermi-wavevector in a.u.,A,eV,Ry     =   1.316901  2.488582 23.595612  1.734229
  Thomas-Fermi vector in A             =   2.446980
 
 Write flags
   LWAVE        =      T    write WAVECAR
   LDOWNSAMPLE  =      F    k-point downsampling of WAVECAR
   LCHARG       =      T    write CHGCAR
   LVTOT        =      F    write LOCPOT, total local potential
   LVHAR        =      F    write LOCPOT, Hartree potential only
   LELF         =      F    write electronic localiz. function (ELF)
   LORBIT       =     11    0 simple, 1 ext, 2 COOP (PROOUT), +10 PAW based schemes


 Dipole corrections
   LMONO  =      F    monopole corrections only (constant potential shift)
   LDIPOL =      F    correct potential (dipole corrections)
   IDIPOL =      0    1-x, 2-y, 3-z, 4-all directions 
   EPSILON=  1.0000000 bulk dielectric constant

 LDA+U is selected, type is set to LDAUTYPE =  2
   angular momentum for each species LDAUL =     2   -1   -1
   U (eV)           for each species LDAUU =   4.2  0.0  0.0
   J (eV)           for each species LDAUJ =   0.0  0.0  0.0
 Exchange correlation treatment:
   GGA     =    PS    GGA type
   LEXCH   =    14    internal setting for exchange type
   VOSKOWN=      0    Vosko Wilk Nusair interpolation
   LHFCALC =     F    Hartree Fock is set to
   LHFONE  =     F    Hartree Fock one center treatment
   AEXX    =    0.0000 exact exchange contribution

 Linear response parameters
   LEPSILON=     F    determine dielectric tensor
   LRPA    =     F    only Hartree local field effects (RPA)
   LNABLA  =     F    use nabla operator in PAW spheres
   LVEL    =     F    velocity operator in full k-point grid
   LINTERFAST=   F  fast interpolation
   KINTER  =     0    interpolate to denser k-point grid
   CSHIFT  =0.1000    complex shift for real part using Kramers Kronig
   OMEGAMAX=  -1.0    maximum frequency
   DEG_THRESHOLD= 0.2000000E-02 threshold for treating states as degnerate
   RTIME   =   -0.100 relaxation time in fs
  (WPLASMAI=    0.000 imaginary part of plasma frequency in eV, 0.658/RTIME)
   DFIELD  = 0.0000000 0.0000000 0.0000000 field for delta impulse in time
 
 Orbital magnetization related:
   ORBITALMAG=     F  switch on orbital magnetization
   LCHIMAG   =     F  perturbation theory with respect to B field
   DQ        =  0.001000  dq finite difference perturbation B field
   LLRAUG    =     F  two centre corrections for induced B field



--------------------------------------------------------------------------------------------------------


 conjugate gradient relaxation of ions
 charge density and potential will be updated during run
 spin polarized calculation
 Variant of blocked Davidson
 Davidson routine will perform the subspace rotation
 perform sub-space diagonalisation
    after iterative eigenvector-optimisation
 modified Broyden-mixing scheme, WC =      100.0
 initial mixing is a Kerker type mixing with AMIX =  0.4000 and BMIX =      1.0000
 Hartree-type preconditioning will be used
 using additional bands           40
 real space projection scheme for non local part
 use partial core corrections
 calculate Harris-corrections to forces 
   (improved forces if not selfconsistent)
 use gradient corrections 
 use of overlap-Matrix (Vanderbilt PP)
 Gauss-broadening in eV      SIGMA  =   0.01


--------------------------------------------------------------------------------------------------------


  energy-cutoff  :      700.00
  volume of cell :      461.08
      direct lattice vectors                 reciprocal lattice vectors
     7.892012896 -0.000109306 -0.000041350     0.126710386  0.000001756  0.000000663
    -0.000108484  7.827349725 -0.002923735     0.000001770  0.127757182  0.000049101
    -0.000039014 -0.002868663  7.464036751     0.000000703  0.000050044  0.133975780

  length of vectors
     7.892012897  7.827350271  7.464037302     0.126710386  0.127757191  0.133975789


 
 old parameters found on file WAVECAR:
  energy-cutoff  :      700.00
  volume of cell :      462.71
      direct lattice vectors                 reciprocal lattice vectors
     7.896339168 -0.000010036  0.000001220     0.126640963  0.000000162 -0.000000021
    -0.000010034  7.853486798 -0.001544416     0.000000162  0.127331982  0.000027082
     0.000001221 -0.001586955  7.461478273    -0.000000021  0.000026356  0.134021705

  length of vectors

 
 k-points in units of 2pi/SCALE and weight: Title                                   
   0.01583911  0.01597612  0.01675319       0.031
   0.04751670  0.01597656  0.01675336       0.031
  -0.04751609  0.01597524  0.01675286       0.031
  -0.01583849  0.01597568  0.01675303       0.031
   0.01583955  0.04791542  0.01676547       0.031
   0.04751715  0.04791586  0.01676563       0.031
  -0.04751564  0.04791454  0.01676514       0.031
  -0.01583805  0.04791498  0.01676530       0.031
   0.01583822 -0.04790247  0.01672864       0.031
   0.04751582 -0.04790203  0.01672881       0.031
  -0.04751697 -0.04790335  0.01672831       0.031
  -0.01583937 -0.04790291  0.01672848       0.031
   0.01583866 -0.01596317  0.01674092       0.031
   0.04751626 -0.01596273  0.01674108       0.031
  -0.04751653 -0.01596405  0.01674059       0.031
  -0.01583893 -0.01596361  0.01674075       0.031
   0.01583928  0.01598863  0.05024714       0.031
   0.04751688  0.01598907  0.05024730       0.031
  -0.04751591  0.01598776  0.05024681       0.031
  -0.01583831  0.01598819  0.05024697       0.031
   0.01583973  0.04792793  0.05025941       0.031
   0.04751732  0.04792837  0.05025958       0.031
  -0.04751547  0.04792705  0.05025908       0.031
  -0.01583787  0.04792749  0.05025925       0.031
   0.01583840 -0.04788996  0.05022259       0.031
   0.04751599 -0.04788952  0.05022275       0.031
  -0.04751679 -0.04789084  0.05022226       0.031
  -0.01583920 -0.04789040  0.05022242       0.031
   0.01583884 -0.01595066  0.05023486       0.031
   0.04751644 -0.01595022  0.05023503       0.031
  -0.04751635 -0.01595154  0.05023453       0.031
  -0.01583876 -0.01595110  0.05023470       0.031
 
 k-points in reciprocal lattice and weights: Title                                   
   0.12500000  0.12500000  0.12500000       0.031
   0.37500000  0.12500000  0.12500000       0.031
  -0.37500000  0.12500000  0.12500000       0.031
  -0.12500000  0.12500000  0.12500000       0.031
   0.12500000  0.37500000  0.12500000       0.031
   0.37500000  0.37500000  0.12500000       0.031
  -0.37500000  0.37500000  0.12500000       0.031
  -0.12500000  0.37500000  0.12500000       0.031
   0.12500000 -0.37500000  0.12500000       0.031
   0.37500000 -0.37500000  0.12500000       0.031
  -0.37500000 -0.37500000  0.12500000       0.031
  -0.12500000 -0.37500000  0.12500000       0.031
   0.12500000 -0.12500000  0.12500000       0.031
   0.37500000 -0.12500000  0.12500000       0.031
  -0.37500000 -0.12500000  0.12500000       0.031
  -0.12500000 -0.12500000  0.12500000       0.031
   0.12500000  0.12500000  0.37500000       0.031
   0.37500000  0.12500000  0.37500000       0.031
  -0.37500000  0.12500000  0.37500000       0.031
  -0.12500000  0.12500000  0.37500000       0.031
   0.12500000  0.37500000  0.37500000       0.031
   0.37500000  0.37500000  0.37500000       0.031
  -0.37500000  0.37500000  0.37500000       0.031
  -0.12500000  0.37500000  0.37500000       0.031
   0.12500000 -0.37500000  0.37500000       0.031
   0.37500000 -0.37500000  0.37500000       0.031
  -0.37500000 -0.37500000  0.37500000       0.031
  -0.12500000 -0.37500000  0.37500000       0.031
   0.12500000 -0.12500000  0.37500000       0.031
   0.37500000 -0.12500000  0.37500000       0.031
  -0.37500000 -0.12500000  0.37500000       0.031
  -0.12500000 -0.12500000  0.37500000       0.031
 
 position of ions in fractional coordinates (direct lattice) 
   0.99999978  0.00146666  0.99137067
   0.99999802  0.99984339  0.49035885
   0.00000115  0.50154401  0.99167272
   0.99999677  0.49939892  0.49144354
   0.50000092  0.99999475  0.98565808
   0.49999752  0.97670275  0.50223113
   0.50000150  0.50269998  0.99497371
   0.49999593  0.50293613  0.49213047
   0.49999503  0.75200384  0.47349633
   0.99999911  0.99938216  0.25026495
   0.99999818  0.00108563  0.75179519
   0.99999519  0.50158786  0.25132713
   0.00000218  0.50002270  0.75216874
   0.50000108  0.97303725  0.75420159
   0.49999740  0.47550018  0.24895740
   0.50000777  0.52112577  0.75508270
   0.25304321  0.00155678  0.00611862
   0.25070769  0.00094671  0.49780989
   0.24949156  0.50340567  0.00342746
   0.24841479  0.49633396  0.50356509
   0.74696046  0.00168746  0.00611695
   0.74929228  0.00094451  0.49780244
   0.75050610  0.50324239  0.00342118
   0.75159126  0.49634048  0.50355974
   0.00007572  0.25031567  0.00435895
   0.99999635  0.24870572  0.50274997
   0.99992209  0.75245689  0.00253316
   0.00000875  0.75075730  0.50457931
   0.49993447  0.24706210  0.97536040
   0.50000782  0.24471718  0.52486155
   0.50006098  0.75678101  0.03887902
   0.49999893  0.03641421  0.24772305
 
 position of ions in cartesian coordinates  (Angst):
   7.89197235  0.00852683  7.39958151
   7.89186971  7.82460788  3.65709183
  -0.00008404  3.92291559  7.40041525
   7.89191409  3.90745091  3.66665121
   3.94586679  7.82442648  7.35404373
   3.94586136  7.64349861  3.74579533
   3.94592492  3.93189969  7.42502987
   3.94590057  3.93519060  3.67178881
   3.94586715  5.88478413  3.53197469
   7.89188768  7.82168644  1.86502348
   7.89196912  0.00623162  5.61138243
   7.89191073  3.92527335  1.87440707
  -0.00006639  3.91169486  5.61275320
   3.94587996  7.61408464  5.62652278
   3.94592465  3.72113740  1.85681629
   3.94598177  4.07681289  5.63442074
   1.99701985  0.01214023  0.04565459
   1.97856881  0.00595476  3.71565819
   1.96893589  3.94029510  0.02410058
   1.96041925  3.88350774  3.75716689
   5.89502115  0.01310913  0.04562129
   5.91340478  0.00588310  3.71558198
   5.92294910  3.93896232  0.02403344
   5.93149441  3.88350379  3.75710613
   0.00057027  1.95929577  0.03180349
   7.89193750  1.94515509  3.75177576
   7.89131629  5.88962666  0.01666627
  -0.00003209  5.87499250  3.76400353
   3.94542446  1.93098881  7.27938286
   3.94602112  1.91392664  3.91684976
   3.94640409  5.92342341  0.28796116
   3.94598439  0.28426146  1.84888682
 


--------------------------------------------------------------------------------------------------------


 k-point  1 :   0.1250 0.1250 0.1250  plane waves:   19366
 k-point  2 :   0.3750 0.1250 0.1250  plane waves:   19388
 k-point  3 :  -0.3750 0.1250 0.1250  plane waves:   19388
 k-point  4 :  -0.1250 0.1250 0.1250  plane waves:   19365
 k-point  5 :   0.1250 0.3750 0.1250  plane waves:   19383
 k-point  6 :   0.3750 0.3750 0.1250  plane waves:   19385
 k-point  7 :  -0.3750 0.3750 0.1250  plane waves:   19385
 k-point  8 :  -0.1250 0.3750 0.1250  plane waves:   19383
 k-point  9 :   0.1250-0.3750 0.1250  plane waves:   19384
 k-point 10 :   0.3750-0.3750 0.1250  plane waves:   19387
 k-point 11 :  -0.3750-0.3750 0.1250  plane waves:   19388
 k-point 12 :  -0.1250-0.3750 0.1250  plane waves:   19383
 k-point 13 :   0.1250-0.1250 0.1250  plane waves:   19358
 k-point 14 :   0.3750-0.1250 0.1250  plane waves:   19390
 k-point 15 :  -0.3750-0.1250 0.1250  plane waves:   19389
 k-point 16 :  -0.1250-0.1250 0.1250  plane waves:   19359
 k-point 17 :   0.1250 0.1250 0.3750  plane waves:   19366
 k-point 18 :   0.3750 0.1250 0.3750  plane waves:   19396
 k-point 19 :  -0.3750 0.1250 0.3750  plane waves:   19396
 k-point 20 :  -0.1250 0.1250 0.3750  plane waves:   19367
 k-point 21 :   0.1250 0.3750 0.3750  plane waves:   19404
 k-point 22 :   0.3750 0.3750 0.3750  plane waves:   19416
 k-point 23 :  -0.3750 0.3750 0.3750  plane waves:   19416
 k-point 24 :  -0.1250 0.3750 0.3750  plane waves:   19404
 k-point 25 :   0.1250-0.3750 0.3750  plane waves:   19411
 k-point 26 :   0.3750-0.3750 0.3750  plane waves:   19415
 k-point 27 :  -0.3750-0.3750 0.3750  plane waves:   19415
 k-point 28 :  -0.1250-0.3750 0.3750  plane waves:   19411
 k-point 29 :   0.1250-0.1250 0.3750  plane waves:   19372
 k-point 30 :   0.3750-0.1250 0.3750  plane waves:   19398
 k-point 31 :  -0.3750-0.1250 0.3750  plane waves:   19398
 k-point 32 :  -0.1250-0.1250 0.3750  plane waves:   19372

 maximum and minimum number of plane-waves per node :      2444     2400

 maximum number of plane-waves:     19416
 maximum index in each direction: 
   IXMAX=   17   IYMAX=   17   IZMAX=   15
   IXMIN=  -17   IYMIN=  -17   IZMIN=  -16


 real space projection operators:
  total allocation   :      16973.70 KBytes
  max/ min on nodes  :       2264.97       1760.44


 parallel 3D FFT for wavefunctions:
    minimum data exchange during FFTs selected (reduces bandwidth)
 parallel 3D FFT for charge:
    minimum data exchange during FFTs selected (reduces bandwidth)


 total amount of memory used by VASP MPI-rank0   104530. kBytes
=======================================================================

   base      :      30000. kBytes
   nonlr-proj:       7867. kBytes
   fftplans  :       7712. kBytes
   grid      :       8037. kBytes
   one-center:        124. kBytes
   wavefun   :      50790. kBytes
 
     INWAV:  cpu time   29.8545: real time   41.3124
 Broyden mixing: mesh for mixing (old mesh)
   NGX = 35   NGY = 33   NGZ = 33
  (NGX  =140   NGY  =140   NGZ  =128)
  gives a total of  38115 points

 charge density for first step will be calculated from the start-wavefunctions


--------------------------------------------------------------------------------------------------------


 Maximum index for non-local projection operator         1265
 Maximum index for augmentation-charges         6579 (set IRDMAX)


--------------------------------------------------------------------------------------------------------


 initial charge from wavefunction
 First call to EWALD:  gamma=   0.229
 Maximum number of real-space cells 3x 3x 3
 Maximum number of reciprocal cells 3x 3x 3

    FEWALD:  cpu time    0.0030: real time    0.0034


--------------------------------------- Iteration      1(   1)  ---------------------------------------


    POTLOK:  cpu time    0.1450: real time    2.0427
    SETDIJ:  cpu time    0.8209: real time    0.8198
     EDDAV:  cpu time   27.3578: real time   27.3454
       DOS:  cpu time    0.0040: real time    0.0037
    CHARGE:  cpu time    1.0348: real time    1.0340
    MIXING:  cpu time    0.0030: real time    0.0019
    --------------------------------------------
      LOOP:  cpu time   29.3655: real time   31.2474

 eigenvalue-minimisations  : 21024
 total energy-change (2. order) :-0.2117654E+03  (-0.3446603E-04)
 number of electron     240.0000003 magnetization       0.0000000
 augmentation part       61.9623837 magnetization       0.0000000

 Broyden mixing:
  rms(total) = 0.47492E-03    rms(broyden)= 0.46916E-03
  rms(prec ) = 0.79114E-03
  weight for this iteration     100.00

 Free energy of the ion-electron system (eV)
  ---------------------------------------------------
  alpha Z        PSCENC =       759.44770222
  Ewald energy   TEWEN  =    -12839.42783261
  -Hartree energ DENC   =     -8203.98206890
  -exchange      EXHF   =         0.00000000
  -V(xc)+E(xc)   XCENC  =      1119.61759982
  PAW double counting   =     18006.24251732   -18129.20010777
  entropy T*S    EENTRO =        -0.00000000
  eigenvalues    EBANDS =     -3226.81646130
  atomic energy  EATOM  =     22302.35321627
  Solvation  Ediel_sol  =         0.00000000
  ---------------------------------------------------
  free energy    TOTEN  =      -211.76543495 eV

  energy without entropy =     -211.76543495  energy(sigma->0) =     -211.76543495


--------------------------------------------------------------------------------------------------------




--------------------------------------- Iteration      1(   2)  ---------------------------------------


    POTLOK:  cpu time    0.1270: real time    0.1576
    SETDIJ:  cpu time    0.8109: real time    0.8214
     EDDAV:  cpu time   25.4321: real time   25.6246
       DOS:  cpu time    0.0040: real time    0.0033
    --------------------------------------------
      LOOP:  cpu time   26.3740: real time   26.6070

 eigenvalue-minimisations  : 19024
 total energy-change (2. order) : 0.2389788E-06  (-0.2377889E-06)
 number of electron     240.0000003 magnetization       0.0000000
 augmentation part       61.9623837 magnetization       0.0000000

 Free energy of the ion-electron system (eV)
  ---------------------------------------------------
  alpha Z        PSCENC =       759.44770222
  Ewald energy   TEWEN  =    -12839.42783261
  -Hartree energ DENC   =     -8203.98581821
  -exchange      EXHF   =         0.00000000
  -V(xc)+E(xc)   XCENC  =      1119.61785648
  PAW double counting   =     18006.22534915   -18129.18327121
  entropy T*S    EENTRO =        -0.00000000
  eigenvalues    EBANDS =     -3226.81263680
  atomic energy  EATOM  =     22302.35321627
  Solvation  Ediel_sol  =         0.00000000
  ---------------------------------------------------
  free energy    TOTEN  =      -211.76543471 eV

  energy without entropy =     -211.76543471  energy(sigma->0) =     -211.76543471


--------------------------------------------------------------------------------------------------------




 average (electrostatic) potential at core
  the test charge radii are     1.0397  0.7215  0.7167
  (the norm of the test charge is              1.0000)
       1 -58.9911       2 -58.9622       3 -58.7775       4 -58.7608       5 -59.4061
       6 -58.7656       7 -58.6635       8 -58.4830       9 -73.9340      10 -73.7464
      11 -73.7616      12 -73.5437      13 -73.5552      14 -74.5650      15 -73.3110
      16 -73.3706      17 -79.5367      18 -79.2569      19 -79.1341      20 -78.9718
      21 -79.5368      22 -79.2569      23 -79.1341      24 -78.9718      25 -79.3833
      26 -79.2999      27 -79.3791      28 -79.2982      29 -79.4060      30 -78.0807
      31 -79.4275      32 -79.2140
 
 
 
 E-fermi :  -0.6255     XC(G=0):  -8.9969     alpha+bet : -7.6637


 spin component 1

 k-point     1 :       0.1250    0.1250    0.1250
  band No.  band energies     occupation 
      1     -35.4112      1.00000
      2     -35.3771      1.00000
      3     -35.2539      1.00000
      4     -35.0364      1.00000
      5     -35.0138      1.00000
      6     -34.9915      1.00000
      7     -34.9784      1.00000
      8     -34.8162      1.00000
      9     -34.8155      1.00000
     10     -34.7874      1.00000
     11     -34.7850      1.00000
     12     -34.7723      1.00000
     13     -34.7015      1.00000
     14     -34.6972      1.00000
     15     -34.6877      1.00000
     16     -34.6680      1.00000
     17     -34.5845      1.00000
     18     -34.5680      1.00000
     19     -34.4850      1.00000
     20     -34.4598      1.00000
     21     -34.3772      1.00000
     22     -34.3383      1.00000
     23     -34.2807      1.00000
     24     -34.1348      1.00000
     25     -23.4664      1.00000
     26     -23.2525      1.00000
     27     -23.2241      1.00000
     28     -23.2064      1.00000
     29     -23.0561      1.00000
     30     -22.9722      1.00000
     31     -22.9349      1.00000
     32     -22.8692      1.00000
     33     -22.8369      1.00000
     34     -22.7996      1.00000
     35     -22.7887      1.00000
     36     -22.7140      1.00000
     37     -22.6919      1.00000
     38     -22.5704      1.00000
     39     -22.4043      1.00000
     40     -21.7176      1.00000
     41     -16.9976      1.00000
     42     -16.7190      1.00000
     43     -16.5154      1.00000
     44     -16.4176      1.00000
     45     -16.2031      1.00000
     46     -15.8252      1.00000
     47     -15.6206      1.00000
     48     -15.4190      1.00000
     49      -7.0370      1.00000
     50      -6.8414      1.00000
     51      -6.8272      1.00000
     52      -6.8053      1.00000
     53      -6.6561      1.00000
     54      -6.4970      1.00000
     55      -6.4413      1.00000
     56      -6.3772      1.00000
     57      -5.7448      1.00000
     58      -5.7110      1.00000
     59      -5.6236      1.00000
     60      -5.4572      1.00000
     61      -5.4279      1.00000
     62      -5.3676      1.00000
     63      -5.3580      1.00000
     64      -5.3262      1.00000
     65      -5.2531      1.00000
     66      -5.2232      1.00000
     67      -5.2079      1.00000
     68      -5.1726      1.00000
     69      -5.0228      1.00000
     70      -5.0120      1.00000
     71      -4.8989      1.00000
     72      -4.8037      1.00000
     73      -4.7406      1.00000
     74      -4.6538      1.00000
     75      -4.5905      1.00000
     76      -4.4870      1.00000
     77      -4.4732      1.00000
     78      -4.4111      1.00000
     79      -4.3747      1.00000
     80      -4.3517      1.00000
     81      -4.2770      1.00000
     82      -4.2369      1.00000
     83      -4.2002      1.00000
     84      -4.1796      1.00000
     85      -4.1657      1.00000
     86      -4.1132      1.00000
     87      -4.0723      1.00000
     88      -4.0173      1.00000
     89      -3.9922      1.00000
     90      -3.9528      1.00000
     91      -3.8913      1.00000
     92      -3.8598      1.00000
     93      -3.8339      1.00000
     94      -3.7506      1.00000
     95      -3.7235      1.00000
     96      -3.6885      1.00000
     97      -3.4650      1.00000
     98      -3.3271      1.00000
     99      -3.1427      1.00000
    100      -2.8972      1.00000
    101      -2.7691      1.00000
    102      -2.5826      1.00000
    103      -2.5477      1.00000
    104      -2.2243      1.00000
    105      -2.0517      1.00000
    106      -2.0078      1.00000
    107      -1.7881      1.00000
    108      -1.6814      1.00000
    109      -1.6506      1.00000
    110      -1.4671      1.00000
    111      -1.4380      1.00000
    112      -1.3491      1.00000
    113      -1.2519      1.00000
    114      -1.2210      1.00000
    115      -1.2181      1.00000
    116      -1.0616      1.00000
    117      -1.0244      1.00000
    118      -1.0143      1.00000
    119      -0.8252      1.00000
    120      -0.7589      1.00000
    121       1.8566      0.00000
    122       1.8789      0.00000
    123       2.0750      0.00000
    124       2.1282      0.00000
    125       2.1364      0.00000
    126       2.2716      0.00000
    127       2.5531      0.00000
    128       2.5790      0.00000
    129       2.7485      0.00000
    130       2.7970      0.00000
    131       2.8221      0.00000
    132       2.8616      0.00000
    133       2.9278      0.00000
    134       2.9687      0.00000
    135       3.0571      0.00000
    136       3.1371      0.00000
    137       3.2433      0.00000
    138       3.2857      0.00000
    139       3.3747      0.00000
    140       3.4992      0.00000
    141       3.5516      0.00000
    142       3.7219      0.00000
    143       3.8074      0.00000
    144       3.8392      0.00000
    145       3.9144      0.00000
    146       3.9870      0.00000
    147       4.0179      0.00000
    148       4.1692      0.00000
    149       4.2309      0.00000
    150       4.3860      0.00000
    151       4.3884      0.00000
    152       4.5104      0.00000
    153       4.9054      0.00000
    154       5.0588      0.00000
    155       5.2765      0.00000
    156       5.4549      0.00000
    157       5.8723      0.00000
    158       6.2051      0.00000
    159       6.5808      0.00000
    160       6.9983      0.00000

 k-point     2 :       0.3750    0.1250    0.1250
  band No.  band energies     occupation 
      1     -35.4076      1.00000
      2     -35.3771      1.00000
      3     -35.2539      1.00000
      4     -35.0364      1.00000
      5     -35.0178      1.00000
      6     -34.9915      1.00000
      7     -34.9705      1.00000
      8     -34.8162      1.00000
      9     -34.8018      1.00000
     10     -34.7959      1.00000
     11     -34.7850      1.00000
     12     -34.7671      1.00000
     13     -34.7020      1.00000
     14     -34.7015      1.00000
     15     -34.6972      1.00000
     16     -34.6680      1.00000
     17     -34.5845      1.00000
     18     -34.5680      1.00000
     19     -34.4908      1.00000
     20     -34.4598      1.00000
     21     -34.3772      1.00000
     22     -34.3383      1.00000
     23     -34.2807      1.00000
     24     -34.1348      1.00000
     25     -23.3855      1.00000
     26     -23.2810      1.00000
     27     -23.1939      1.00000
     28     -23.1624      1.00000
     29     -23.0641      1.00000
     30     -22.9889      1.00000
     31     -22.8733      1.00000
     32     -22.8494      1.00000
     33     -22.8277      1.00000
     34     -22.7961      1.00000
     35     -22.7874      1.00000
     36     -22.7217      1.00000
     37     -22.6814      1.00000
     38     -22.6739      1.00000
     39     -22.5201      1.00000
     40     -21.7164      1.00000
     41     -16.9974      1.00000
     42     -16.7186      1.00000
     43     -16.5150      1.00000
     44     -16.4173      1.00000
     45     -16.2029      1.00000
     46     -15.8253      1.00000
     47     -15.6198      1.00000
     48     -15.4199      1.00000
     49      -6.8868      1.00000
     50      -6.8311      1.00000
     51      -6.7905      1.00000
     52      -6.5826      1.00000
     53      -6.5025      1.00000
     54      -6.2706      1.00000
     55      -6.1699      1.00000
     56      -6.0829      1.00000
     57      -6.0211      1.00000
     58      -5.7629      1.00000
     59      -5.6448      1.00000
     60      -5.5998      1.00000
     61      -5.5374      1.00000
     62      -5.4728      1.00000
     63      -5.4474      1.00000
     64      -5.3457      1.00000
     65      -5.3070      1.00000
     66      -5.2947      1.00000
     67      -5.2135      1.00000
     68      -5.1869      1.00000
     69      -5.1686      1.00000
     70      -5.1540      1.00000
     71      -4.9943      1.00000
     72      -4.8350      1.00000
     73      -4.7747      1.00000
     74      -4.6820      1.00000
     75      -4.5769      1.00000
     76      -4.5259      1.00000
     77      -4.5067      1.00000
     78      -4.4604      1.00000
     79      -4.4485      1.00000
     80      -4.4006      1.00000
     81      -4.3237      1.00000
     82      -4.2762      1.00000
     83      -4.2555      1.00000
     84      -4.2138      1.00000
     85      -4.1391      1.00000
     86      -4.1292      1.00000
     87      -4.1065      1.00000
     88      -4.0471      1.00000
     89      -4.0035      1.00000
     90      -3.9668      1.00000
     91      -3.9493      1.00000
     92      -3.9171      1.00000
     93      -3.8045      1.00000
     94      -3.7234      1.00000
     95      -3.6257      1.00000
     96      -3.5087      1.00000
     97      -3.4643      1.00000
     98      -3.4406      1.00000
     99      -3.1485      1.00000
    100      -2.9140      1.00000
    101      -2.7959      1.00000
    102      -2.5833      1.00000
    103      -2.3776      1.00000
    104      -2.2241      1.00000
    105      -2.0543      1.00000
    106      -1.8044      1.00000
    107      -1.7549      1.00000
    108      -1.6846      1.00000
    109      -1.6452      1.00000
    110      -1.4640      1.00000
    111      -1.4278      1.00000
    112      -1.3847      1.00000
    113      -1.2903      1.00000
    114      -1.2344      1.00000
    115      -1.2193      1.00000
    116      -1.1552      1.00000
    117      -1.0627      1.00000
    118      -1.0217      1.00000
    119      -0.9057      1.00000
    120      -0.7595      1.00000
    121       2.0441      0.00000
    122       2.0549      0.00000
    123       2.0893      0.00000
    124       2.1340      0.00000
    125       2.3117      0.00000
    126       2.3572      0.00000
    127       2.4001      0.00000
    128       2.4419      0.00000
    129       2.6853      0.00000
    130       2.7585      0.00000
    131       2.7949      0.00000
    132       2.8726      0.00000
    133       2.9020      0.00000
    134       3.0734      0.00000
    135       3.1174      0.00000
    136       3.2012      0.00000
    137       3.2925      0.00000
    138       3.3910      0.00000
    139       3.4734      0.00000
    140       3.5665      0.00000
    141       3.7324      0.00000
    142       3.7914      0.00000
    143       3.8489      0.00000
    144       3.9750      0.00000
    145       3.9853      0.00000
    146       4.0656      0.00000
    147       4.1685      0.00000
    148       4.2278      0.00000
    149       4.2309      0.00000
    150       4.3208      0.00000
    151       4.4101      0.00000
    152       4.4581      0.00000
    153       4.7254      0.00000
    154       4.9796      0.00000
    155       5.1320      0.00000
    156       5.4571      0.00000
    157       5.6645      0.00000
    158       6.1973      0.00000
    159       6.5985      0.00000
    160       6.9997      0.00000

 k-point     3 :      -0.3750    0.1250    0.1250
  band No.  band energies     occupation 
      1     -35.4076      1.00000
      2     -35.3771      1.00000
      3     -35.2539      1.00000
      4     -35.0364      1.00000
      5     -35.0178      1.00000
      6     -34.9915      1.00000
      7     -34.9705      1.00000
      8     -34.8162      1.00000
      9     -34.8018      1.00000
     10     -34.7959      1.00000
     11     -34.7850      1.00000
     12     -34.7671      1.00000
     13     -34.7020      1.00000
     14     -34.7015      1.00000
     15     -34.6972      1.00000
     16     -34.6680      1.00000
     17     -34.5845      1.00000
     18     -34.5680      1.00000
     19     -34.4908      1.00000
     20     -34.4598      1.00000
     21     -34.3772      1.00000
     22     -34.3383      1.00000
     23     -34.2807      1.00000
     24     -34.1348      1.00000
     25     -23.3855      1.00000
     26     -23.2810      1.00000
     27     -23.1939      1.00000
     28     -23.1624      1.00000
     29     -23.0641      1.00000
     30     -22.9889      1.00000
     31     -22.8733      1.00000
     32     -22.8494      1.00000
     33     -22.8277      1.00000
     34     -22.7961      1.00000
     35     -22.7874      1.00000
     36     -22.7217      1.00000
     37     -22.6814      1.00000
     38     -22.6739      1.00000
     39     -22.5201      1.00000
     40     -21.7164      1.00000
     41     -16.9974      1.00000
     42     -16.7186      1.00000
     43     -16.5150      1.00000
     44     -16.4173      1.00000
     45     -16.2029      1.00000
     46     -15.8253      1.00000
     47     -15.6198      1.00000
     48     -15.4199      1.00000
     49      -6.8868      1.00000
     50      -6.8311      1.00000
     51      -6.7905      1.00000
     52      -6.5826      1.00000
     53      -6.5025      1.00000
     54      -6.2706      1.00000
     55      -6.1699      1.00000
     56      -6.0829      1.00000
     57      -6.0211      1.00000
     58      -5.7629      1.00000
     59      -5.6448      1.00000
     60      -5.5997      1.00000
     61      -5.5375      1.00000
     62      -5.4728      1.00000
     63      -5.4474      1.00000
     64      -5.3457      1.00000
     65      -5.3070      1.00000
     66      -5.2947      1.00000
     67      -5.2135      1.00000
     68      -5.1869      1.00000
     69      -5.1686      1.00000
     70      -5.1539      1.00000
     71      -4.9943      1.00000
     72      -4.8349      1.00000
     73      -4.7747      1.00000
     74      -4.6820      1.00000
     75      -4.5769      1.00000
     76      -4.5259      1.00000
     77      -4.5066      1.00000
     78      -4.4604      1.00000
     79      -4.4485      1.00000
     80      -4.4006      1.00000
     81      -4.3237      1.00000
     82      -4.2763      1.00000
     83      -4.2556      1.00000
     84      -4.2138      1.00000
     85      -4.1391      1.00000
     86      -4.1292      1.00000
     87      -4.1066      1.00000
     88      -4.0471      1.00000
     89      -4.0035      1.00000
     90      -3.9668      1.00000
     91      -3.9493      1.00000
     92      -3.9170      1.00000
     93      -3.8045      1.00000
     94      -3.7234      1.00000
     95      -3.6257      1.00000
     96      -3.5088      1.00000
     97      -3.4643      1.00000
     98      -3.4406      1.00000
     99      -3.1485      1.00000
    100      -2.9140      1.00000
    101      -2.7959      1.00000
    102      -2.5833      1.00000
    103      -2.3776      1.00000
    104      -2.2241      1.00000
    105      -2.0543      1.00000
    106      -1.8045      1.00000
    107      -1.7549      1.00000
    108      -1.6846      1.00000
    109      -1.6452      1.00000
    110      -1.4640      1.00000
    111      -1.4278      1.00000
    112      -1.3847      1.00000
    113      -1.2903      1.00000
    114      -1.2343      1.00000
    115      -1.2193      1.00000
    116      -1.1552      1.00000
    117      -1.0627      1.00000
    118      -1.0217      1.00000
    119      -0.9057      1.00000
    120      -0.7595      1.00000
    121       2.0441      0.00000
    122       2.0549      0.00000
    123       2.0893      0.00000
    124       2.1340      0.00000
    125       2.3116      0.00000
    126       2.3572      0.00000
    127       2.4001      0.00000
    128       2.4419      0.00000
    129       2.6853      0.00000
    130       2.7585      0.00000
    131       2.7949      0.00000
    132       2.8727      0.00000
    133       2.9020      0.00000
    134       3.0734      0.00000
    135       3.1174      0.00000
    136       3.2012      0.00000
    137       3.2925      0.00000
    138       3.3910      0.00000
    139       3.4734      0.00000
    140       3.5664      0.00000
    141       3.7324      0.00000
    142       3.7914      0.00000
    143       3.8489      0.00000
    144       3.9750      0.00000
    145       3.9853      0.00000
    146       4.0656      0.00000
    147       4.1685      0.00000
    148       4.2278      0.00000
    149       4.2309      0.00000
    150       4.3208      0.00000
    151       4.4101      0.00000
    152       4.4581      0.00000
    153       4.7255      0.00000
    154       4.9796      0.00000
    155       5.1320      0.00000
    156       5.4571      0.00000
    157       5.6645      0.00000
    158       6.1973      0.00000
    159       6.5985      0.00000
    160       6.9997      0.00000

 k-point     4 :      -0.1250    0.1250    0.1250
  band No.  band energies     occupation 
      1     -35.4112      1.00000
      2     -35.3771      1.00000
      3     -35.2539      1.00000
      4     -35.0364      1.00000
      5     -35.0138      1.00000
      6     -34.9915      1.00000
      7     -34.9784      1.00000
      8     -34.8162      1.00000
      9     -34.8155      1.00000
     10     -34.7874      1.00000
     11     -34.7850      1.00000
     12     -34.7723      1.00000
     13     -34.7015      1.00000
     14     -34.6972      1.00000
     15     -34.6877      1.00000
     16     -34.6680      1.00000
     17     -34.5845      1.00000
     18     -34.5680      1.00000
     19     -34.4850      1.00000
     20     -34.4598      1.00000
     21     -34.3772      1.00000
     22     -34.3383      1.00000
     23     -34.2807      1.00000
     24     -34.1348      1.00000
     25     -23.4664      1.00000
     26     -23.2525      1.00000
     27     -23.2241      1.00000
     28     -23.2064      1.00000
     29     -23.0561      1.00000
     30     -22.9722      1.00000
     31     -22.9349      1.00000
     32     -22.8692      1.00000
     33     -22.8369      1.00000
     34     -22.7996      1.00000
     35     -22.7887      1.00000
     36     -22.7140      1.00000
     37     -22.6919      1.00000
     38     -22.5704      1.00000
     39     -22.4043      1.00000
     40     -21.7176      1.00000
     41     -16.9976      1.00000
     42     -16.7190      1.00000
     43     -16.5154      1.00000
     44     -16.4176      1.00000
     45     -16.2031      1.00000
     46     -15.8252      1.00000
     47     -15.6206      1.00000
     48     -15.4190      1.00000
     49      -7.0370      1.00000
     50      -6.8414      1.00000
     51      -6.8272      1.00000
     52      -6.8053      1.00000
     53      -6.6561      1.00000
     54      -6.4970      1.00000
     55      -6.4413      1.00000
     56      -6.3772      1.00000
     57      -5.7448      1.00000
     58      -5.7110      1.00000
     59      -5.6236      1.00000
     60      -5.4572      1.00000
     61      -5.4279      1.00000
     62      -5.3676      1.00000
     63      -5.3580      1.00000
     64      -5.3262      1.00000
     65      -5.2531      1.00000
     66      -5.2232      1.00000
     67      -5.2079      1.00000
     68      -5.1726      1.00000
     69      -5.0228      1.00000
     70      -5.0120      1.00000
     71      -4.8989      1.00000
     72      -4.8037      1.00000
     73      -4.7406      1.00000
     74      -4.6537      1.00000
     75      -4.5905      1.00000
     76      -4.4870      1.00000
     77      -4.4732      1.00000
     78      -4.4110      1.00000
     79      -4.3747      1.00000
     80      -4.3517      1.00000
     81      -4.2770      1.00000
     82      -4.2369      1.00000
     83      -4.2002      1.00000
     84      -4.1796      1.00000
     85      -4.1657      1.00000
     86      -4.1132      1.00000
     87      -4.0723      1.00000
     88      -4.0173      1.00000
     89      -3.9922      1.00000
     90      -3.9528      1.00000
     91      -3.8912      1.00000
     92      -3.8598      1.00000
     93      -3.8339      1.00000
     94      -3.7506      1.00000
     95      -3.7236      1.00000
     96      -3.6885      1.00000
     97      -3.4650      1.00000
     98      -3.3271      1.00000
     99      -3.1427      1.00000
    100      -2.8972      1.00000
    101      -2.7691      1.00000
    102      -2.5826      1.00000
    103      -2.5477      1.00000
    104      -2.2243      1.00000
    105      -2.0516      1.00000
    106      -2.0078      1.00000
    107      -1.7881      1.00000
    108      -1.6814      1.00000
    109      -1.6506      1.00000
    110      -1.4671      1.00000
    111      -1.4380      1.00000
    112      -1.3491      1.00000
    113      -1.2519      1.00000
    114      -1.2210      1.00000
    115      -1.2181      1.00000
    116      -1.0616      1.00000
    117      -1.0243      1.00000
    118      -1.0144      1.00000
    119      -0.8252      1.00000
    120      -0.7589      1.00000
    121       1.8566      0.00000
    122       1.8789      0.00000
    123       2.0750      0.00000
    124       2.1282      0.00000
    125       2.1364      0.00000
    126       2.2716      0.00000
    127       2.5530      0.00000
    128       2.5790      0.00000
    129       2.7485      0.00000
    130       2.7970      0.00000
    131       2.8221      0.00000
    132       2.8616      0.00000
    133       2.9278      0.00000
    134       2.9687      0.00000
    135       3.0571      0.00000
    136       3.1371      0.00000
    137       3.2433      0.00000
    138       3.2857      0.00000
    139       3.3747      0.00000
    140       3.4992      0.00000
    141       3.5516      0.00000
    142       3.7219      0.00000
    143       3.8074      0.00000
    144       3.8392      0.00000
    145       3.9144      0.00000
    146       3.9871      0.00000
    147       4.0179      0.00000
    148       4.1692      0.00000
    149       4.2309      0.00000
    150       4.3860      0.00000
    151       4.3884      0.00000
    152       4.5104      0.00000
    153       4.9054      0.00000
    154       5.0588      0.00000
    155       5.2765      0.00000
    156       5.4549      0.00000
    157       5.8723      0.00000
    158       6.2051      0.00000
    159       6.5808      0.00000
    160       6.9983      0.00000

 k-point     5 :       0.1250    0.3750    0.1250
  band No.  band energies     occupation 
      1     -35.4112      1.00000
      2     -35.3750      1.00000
      3     -35.2539      1.00000
      4     -35.0273      1.00000
      5     -35.0138      1.00000
      6     -34.9820      1.00000
      7     -34.9784      1.00000
      8     -34.8260      1.00000
      9     -34.8155      1.00000
     10     -34.7953      1.00000
     11     -34.7874      1.00000
     12     -34.7723      1.00000
     13     -34.7043      1.00000
     14     -34.6972      1.00000
     15     -34.6877      1.00000
     16     -34.6680      1.00000
     17     -34.5845      1.00000
     18     -34.5647      1.00000
     19     -34.4850      1.00000
     20     -34.4598      1.00000
     21     -34.3772      1.00000
     22     -34.3419      1.00000
     23     -34.2807      1.00000
     24     -34.1348      1.00000
     25     -23.4351      1.00000
     26     -23.1593      1.00000
     27     -23.1425      1.00000
     28     -23.1355      1.00000
     29     -23.0142      1.00000
     30     -22.9928      1.00000
     31     -22.9751      1.00000
     32     -22.9385      1.00000
     33     -22.8776      1.00000
     34     -22.8663      1.00000
     35     -22.8426      1.00000
     36     -22.7571      1.00000
     37     -22.6917      1.00000
     38     -22.5700      1.00000
     39     -22.4042      1.00000
     40     -21.7131      1.00000
     41     -16.9988      1.00000
     42     -16.7185      1.00000
     43     -16.5150      1.00000
     44     -16.4313      1.00000
     45     -16.2032      1.00000
     46     -15.8243      1.00000
     47     -15.6216      1.00000
     48     -15.4191      1.00000
     49      -6.9793      1.00000
     50      -6.7134      1.00000
     51      -6.6236      1.00000
     52      -6.4894      1.00000
     53      -6.4623      1.00000
     54      -6.4318      1.00000
     55      -6.3709      1.00000
     56      -6.3113      1.00000
     57      -5.9579      1.00000
     58      -5.8451      1.00000
     59      -5.7836      1.00000
     60      -5.7375      1.00000
     61      -5.5427      1.00000
     62      -5.4512      1.00000
     63      -5.3522      1.00000
     64      -5.2739      1.00000
     65      -5.2028      1.00000
     66      -5.1487      1.00000
     67      -5.1047      1.00000
     68      -5.0711      1.00000
     69      -4.9998      1.00000
     70      -4.9811      1.00000
     71      -4.9617      1.00000
     72      -4.8870      1.00000
     73      -4.7688      1.00000
     74      -4.7490      1.00000
     75      -4.6532      1.00000
     76      -4.5519      1.00000
     77      -4.5099      1.00000
     78      -4.4783      1.00000
     79      -4.4628      1.00000
     80      -4.4028      1.00000
     81      -4.3536      1.00000
     82      -4.3132      1.00000
     83      -4.2647      1.00000
     84      -4.1692      1.00000
     85      -4.1403      1.00000
     86      -4.1067      1.00000
     87      -4.0864      1.00000
     88      -3.9813      1.00000
     89      -3.9401      1.00000
     90      -3.8988      1.00000
     91      -3.8704      1.00000
     92      -3.8294      1.00000
     93      -3.7644      1.00000
     94      -3.7365      1.00000
     95      -3.7069      1.00000
     96      -3.6498      1.00000
     97      -3.5074      1.00000
     98      -3.4571      1.00000
     99      -3.3678      1.00000
    100      -2.9959      1.00000
    101      -2.7892      1.00000
    102      -2.7693      1.00000
    103      -2.5560      1.00000
    104      -2.0121      1.00000
    105      -1.8542      1.00000
    106      -1.8146      1.00000
    107      -1.8070      1.00000
    108      -1.6725      1.00000
    109      -1.6502      1.00000
    110      -1.5026      1.00000
    111      -1.4442      1.00000
    112      -1.3631      1.00000
    113      -1.3498      1.00000
    114      -1.2566      1.00000
    115      -1.2219      1.00000
    116      -1.1541      1.00000
    117      -1.1103      1.00000
    118      -1.0165      1.00000
    119      -0.8291      1.00000
    120      -0.8010      1.00000
    121       1.8770      0.00000
    122       2.0431      0.00000
    123       2.2459      0.00000
    124       2.2687      0.00000
    125       2.3114      0.00000
    126       2.3709      0.00000
    127       2.5091      0.00000
    128       2.5617      0.00000
    129       2.5814      0.00000
    130       2.7317      0.00000
    131       2.7594      0.00000
    132       2.7680      0.00000
    133       2.9702      0.00000
    134       2.9968      0.00000
    135       3.0824      0.00000
    136       3.1587      0.00000
    137       3.3033      0.00000
    138       3.4145      0.00000
    139       3.4990      0.00000
    140       3.6383      0.00000
    141       3.6850      0.00000
    142       3.7084      0.00000
    143       3.8937      0.00000
    144       3.9339      0.00000
    145       3.9889      0.00000
    146       4.0133      0.00000
    147       4.1685      0.00000
    148       4.1705      0.00000
    149       4.2748      0.00000
    150       4.3868      0.00000
    151       4.4187      0.00000
    152       4.5565      0.00000
    153       4.6941      0.00000
    154       4.9477      0.00000
    155       5.2046      0.00000
    156       5.4668      0.00000
    157       5.7268      0.00000
    158       6.3671      0.00000
    159       6.6088      0.00000
    160       6.6537      0.00000

 k-point     6 :       0.3750    0.3750    0.1250
  band No.  band energies     occupation 
      1     -35.4076      1.00000
      2     -35.3750      1.00000
      3     -35.2539      1.00000
      4     -35.0273      1.00000
      5     -35.0178      1.00000
      6     -34.9820      1.00000
      7     -34.9705      1.00000
      8     -34.8260      1.00000
      9     -34.8018      1.00000
     10     -34.7960      1.00000
     11     -34.7953      1.00000
     12     -34.7671      1.00000
     13     -34.7043      1.00000
     14     -34.7020      1.00000
     15     -34.6972      1.00000
     16     -34.6680      1.00000
     17     -34.5845      1.00000
     18     -34.5647      1.00000
     19     -34.4908      1.00000
     20     -34.4598      1.00000
     21     -34.3772      1.00000
     22     -34.3419      1.00000
     23     -34.2807      1.00000
     24     -34.1348      1.00000
     25     -23.3393      1.00000
     26     -23.1848      1.00000
     27     -23.1067      1.00000
     28     -23.0851      1.00000
     29     -23.0513      1.00000
     30     -22.9887      1.00000
     31     -22.9639      1.00000
     32     -22.9338      1.00000
     33     -22.8878      1.00000
     34     -22.8289      1.00000
     35     -22.8074      1.00000
     36     -22.7787      1.00000
     37     -22.6775      1.00000
     38     -22.6693      1.00000
     39     -22.5186      1.00000
     40     -21.7119      1.00000
     41     -16.9986      1.00000
     42     -16.7181      1.00000
     43     -16.5146      1.00000
     44     -16.4309      1.00000
     45     -16.2030      1.00000
     46     -15.8244      1.00000
     47     -15.6208      1.00000
     48     -15.4199      1.00000
     49      -6.6553      1.00000
     50      -6.5220      1.00000
     51      -6.4717      1.00000
     52      -6.4519      1.00000
     53      -6.4136      1.00000
     54      -6.2595      1.00000
     55      -6.1801      1.00000
     56      -6.0877      1.00000
     57      -6.0242      1.00000
     58      -5.9381      1.00000
     59      -5.8691      1.00000
     60      -5.7990      1.00000
     61      -5.7463      1.00000
     62      -5.6434      1.00000
     63      -5.4765      1.00000
     64      -5.3500      1.00000
     65      -5.3097      1.00000
     66      -5.1767      1.00000
     67      -5.0765      1.00000
     68      -5.0422      1.00000
     69      -5.0001      1.00000
     70      -4.9811      1.00000
     71      -4.9204      1.00000
     72      -4.8888      1.00000
     73      -4.7849      1.00000
     74      -4.7813      1.00000
     75      -4.6774      1.00000
     76      -4.6540      1.00000
     77      -4.6058      1.00000
     78      -4.5443      1.00000
     79      -4.5035      1.00000
     80      -4.4749      1.00000
     81      -4.4507      1.00000
     82      -4.4356      1.00000
     83      -4.3652      1.00000
     84      -4.3550      1.00000
     85      -4.2326      1.00000
     86      -4.1433      1.00000
     87      -4.1144      1.00000
     88      -4.0477      1.00000
     89      -3.9389      1.00000
     90      -3.8875      1.00000
     91      -3.8268      1.00000
     92      -3.7997      1.00000
     93      -3.7669      1.00000
     94      -3.7197      1.00000
     95      -3.6314      1.00000
     96      -3.5589      1.00000
     97      -3.5257      1.00000
     98      -3.4666      1.00000
     99      -3.3420      1.00000
    100      -2.9992      1.00000
    101      -2.7773      1.00000
    102      -2.7708      1.00000
    103      -2.3803      1.00000
    104      -1.8560      1.00000
    105      -1.8240      1.00000
    106      -1.7958      1.00000
    107      -1.7473      1.00000
    108      -1.6755      1.00000
    109      -1.6437      1.00000
    110      -1.4999      1.00000
    111      -1.4444      1.00000
    112      -1.3871      1.00000
    113      -1.3563      1.00000
    114      -1.2966      1.00000
    115      -1.2333      1.00000
    116      -1.1601      1.00000
    117      -1.1548      1.00000
    118      -1.1076      1.00000
    119      -0.9109      1.00000
    120      -0.8020      1.00000
    121       2.0475      0.00000
    122       2.1970      0.00000
    123       2.2555      0.00000
    124       2.3101      0.00000
    125       2.3532      0.00000
    126       2.4376      0.00000
    127       2.5125      0.00000
    128       2.5416      0.00000
    129       2.5795      0.00000
    130       2.7109      0.00000
    131       2.7536      0.00000
    132       2.7725      0.00000
    133       2.7997      0.00000
    134       2.9318      0.00000
    135       2.9697      0.00000
    136       3.3853      0.00000
    137       3.5365      0.00000
    138       3.5529      0.00000
    139       3.6389      0.00000
    140       3.7726      0.00000
    141       3.9075      0.00000
    142       3.9162      0.00000
    143       3.9565      0.00000
    144       4.0200      0.00000
    145       4.0509      0.00000
    146       4.1167      0.00000
    147       4.1770      0.00000
    148       4.2053      0.00000
    149       4.2394      0.00000
    150       4.3205      0.00000
    151       4.3590      0.00000
    152       4.5411      0.00000
    153       4.6177      0.00000
    154       4.7099      0.00000
    155       4.8322      0.00000
    156       5.2371      0.00000
    157       5.8552      0.00000
    158       6.2708      0.00000
    159       6.5737      0.00000
    160       6.8324      0.00000

 k-point     7 :      -0.3750    0.3750    0.1250
  band No.  band energies     occupation 
      1     -35.4076      1.00000
      2     -35.3750      1.00000
      3     -35.2539      1.00000
      4     -35.0273      1.00000
      5     -35.0178      1.00000
      6     -34.9820      1.00000
      7     -34.9705      1.00000
      8     -34.8260      1.00000
      9     -34.8018      1.00000
     10     -34.7960      1.00000
     11     -34.7953      1.00000
     12     -34.7671      1.00000
     13     -34.7043      1.00000
     14     -34.7020      1.00000
     15     -34.6972      1.00000
     16     -34.6680      1.00000
     17     -34.5845      1.00000
     18     -34.5647      1.00000
     19     -34.4908      1.00000
     20     -34.4598      1.00000
     21     -34.3772      1.00000
     22     -34.3419      1.00000
     23     -34.2807      1.00000
     24     -34.1348      1.00000
     25     -23.3393      1.00000
     26     -23.1848      1.00000
     27     -23.1067      1.00000
     28     -23.0851      1.00000
     29     -23.0513      1.00000
     30     -22.9887      1.00000
     31     -22.9639      1.00000
     32     -22.9338      1.00000
     33     -22.8878      1.00000
     34     -22.8289      1.00000
     35     -22.8074      1.00000
     36     -22.7787      1.00000
     37     -22.6775      1.00000
     38     -22.6693      1.00000
     39     -22.5186      1.00000
     40     -21.7119      1.00000
     41     -16.9986      1.00000
     42     -16.7181      1.00000
     43     -16.5146      1.00000
     44     -16.4309      1.00000
     45     -16.2030      1.00000
     46     -15.8244      1.00000
     47     -15.6208      1.00000
     48     -15.4199      1.00000
     49      -6.6553      1.00000
     50      -6.5220      1.00000
     51      -6.4717      1.00000
     52      -6.4520      1.00000
     53      -6.4136      1.00000
     54      -6.2595      1.00000
     55      -6.1801      1.00000
     56      -6.0877      1.00000
     57      -6.0242      1.00000
     58      -5.9381      1.00000
     59      -5.8691      1.00000
     60      -5.7990      1.00000
     61      -5.7463      1.00000
     62      -5.6434      1.00000
     63      -5.4765      1.00000
     64      -5.3500      1.00000
     65      -5.3097      1.00000
     66      -5.1767      1.00000
     67      -5.0765      1.00000
     68      -5.0421      1.00000
     69      -5.0000      1.00000
     70      -4.9811      1.00000
     71      -4.9204      1.00000
     72      -4.8887      1.00000
     73      -4.7849      1.00000
     74      -4.7814      1.00000
     75      -4.6774      1.00000
     76      -4.6539      1.00000
     77      -4.6059      1.00000
     78      -4.5444      1.00000
     79      -4.5035      1.00000
     80      -4.4749      1.00000
     81      -4.4507      1.00000
     82      -4.4356      1.00000
     83      -4.3652      1.00000
     84      -4.3550      1.00000
     85      -4.2327      1.00000
     86      -4.1433      1.00000
     87      -4.1145      1.00000
     88      -4.0477      1.00000
     89      -3.9389      1.00000
     90      -3.8875      1.00000
     91      -3.8268      1.00000
     92      -3.7998      1.00000
     93      -3.7669      1.00000
     94      -3.7197      1.00000
     95      -3.6313      1.00000
     96      -3.5589      1.00000
     97      -3.5257      1.00000
     98      -3.4666      1.00000
     99      -3.3420      1.00000
    100      -2.9992      1.00000
    101      -2.7773      1.00000
    102      -2.7708      1.00000
    103      -2.3803      1.00000
    104      -1.8560      1.00000
    105      -1.8240      1.00000
    106      -1.7958      1.00000
    107      -1.7473      1.00000
    108      -1.6755      1.00000
    109      -1.6437      1.00000
    110      -1.4999      1.00000
    111      -1.4444      1.00000
    112      -1.3871      1.00000
    113      -1.3563      1.00000
    114      -1.2966      1.00000
    115      -1.2333      1.00000
    116      -1.1601      1.00000
    117      -1.1548      1.00000
    118      -1.1077      1.00000
    119      -0.9109      1.00000
    120      -0.8020      1.00000
    121       2.0476      0.00000
    122       2.1970      0.00000
    123       2.2555      0.00000
    124       2.3101      0.00000
    125       2.3532      0.00000
    126       2.4376      0.00000
    127       2.5125      0.00000
[...]
 -0.000  -0.000  -0.000  -0.000  -0.000  -0.000  -0.000   0.000   0.000  -0.000   0.000  -0.000  -0.000   0.000   0.000  -0.000
 -0.000  -0.000  -0.000  -0.000  -0.000  -0.000   0.000   0.000  -0.000   0.000   0.000  -0.000  -0.000   0.000  -0.000  -0.000
  0.000   0.000  -0.000   0.000   0.000   0.000   0.000   0.000   0.000   0.000   0.000  -0.000   0.000  -0.000  -0.000  -0.000
 -0.000  -0.000  -0.000  -0.000   0.000  -0.000  -0.000   0.000  -0.000  -0.000  -0.000   0.000  -0.000   0.000   0.000  -0.000
 -0.000   0.000   0.000   0.000  -0.000   0.000  -0.000   0.000  -0.000  -0.000   0.000  -0.000  -0.000   0.000   0.000   0.000
  0.000  -0.000   0.000   0.000   0.000   0.000   0.000  -0.000   0.000   0.000  -0.000   0.000   0.000  -0.000  -0.000   0.000
  0.000   0.000   0.000   0.000   0.000   0.000  -0.000  -0.000   0.000  -0.000  -0.000   0.000   0.000  -0.000   0.000   0.000
  0.000   0.000   0.000  -0.000  -0.000   0.000  -0.000  -0.000  -0.000  -0.000  -0.000  -0.000   0.000   0.000   0.000   0.000
 -0.000   0.000   0.000   0.000  -0.000  -0.000   0.000   0.000   0.000  -0.000  -0.000   0.000  -0.000  -0.000   0.000   0.000
 -0.000   0.000   0.000   0.000  -0.000  -0.000  -0.000   0.000   0.000   0.000  -0.000   0.000  -0.000  -0.000  -0.000   0.000


------------------------ aborting loop because EDIFF is reached ----------------------------------------


 


 total charge     
 
# of ion       s       p       d       tot
------------------------------------------
    1        0.305   6.474   1.749   8.529
    2        0.307   6.474   1.740   8.521
    3        0.307   6.476   1.752   8.536
    4        0.308   6.475   1.744   8.527
    5        0.317   6.479   1.789   8.585
    6        0.317   6.458   1.790   8.565
    7        0.298   6.464   1.745   8.508
    8        0.304   6.450   1.700   8.455
    9        1.569   3.447   0.000   5.016
   10        1.572   3.457   0.000   5.028
   11        1.571   3.452   0.000   5.023
   12        1.571   3.455   0.000   5.026
   13        1.571   3.454   0.000   5.025
   14        1.575   3.480   0.000   5.055
   15        1.570   3.451   0.000   5.021
   16        1.570   3.443   0.000   5.013
   17        1.729   4.382   0.000   6.111
   18        1.729   4.382   0.000   6.110
   19        1.729   4.383   0.000   6.113
   20        1.729   4.381   0.000   6.111
   21        1.729   4.382   0.000   6.111
   22        1.729   4.382   0.000   6.110
   23        1.729   4.383   0.000   6.113
   24        1.729   4.381   0.000   6.111
   25        1.730   4.388   0.000   6.118
   26        1.730   4.388   0.000   6.118
   27        1.730   4.388   0.000   6.118
   28        1.730   4.387   0.000   6.116
   29        1.730   4.383   0.000   6.113
   30        1.728   4.362   0.000   6.090
   31        1.730   4.379   0.000   6.109
   32        1.732   4.389   0.000   6.121
--------------------------------------------------
tot         42.704 149.510  14.011 206.225
 


 magnetization (x)
 
# of ion       s       p       d       tot
------------------------------------------
    1       -0.000   0.000   0.000   0.000
    2       -0.000   0.000   0.000   0.000
    3       -0.000  -0.000   0.000  -0.000
    4       -0.000   0.000   0.000   0.000
    5        0.000   0.000  -0.000   0.000
    6        0.000   0.000  -0.000  -0.000
    7       -0.000  -0.000  -0.000  -0.000
    8       -0.000  -0.000  -0.000  -0.000
    9       -0.000   0.000   0.000   0.000
   10        0.000  -0.000   0.000  -0.000
   11       -0.000  -0.000   0.000  -0.000
   12        0.000  -0.000   0.000  -0.000
   13        0.000  -0.000   0.000   0.000
   14       -0.000   0.000   0.000   0.000
   15       -0.000   0.000   0.000   0.000
   16       -0.000   0.000   0.000   0.000
   17       -0.000  -0.000   0.000  -0.000
   18        0.000  -0.000   0.000  -0.000
   19       -0.000   0.000   0.000  -0.000
   20        0.000  -0.000   0.000  -0.000
   21       -0.000  -0.000   0.000  -0.000
   22        0.000  -0.000   0.000  -0.000
   23       -0.000   0.000   0.000  -0.000
   24        0.000  -0.000   0.000  -0.000
   25       -0.000   0.000   0.000   0.000
   26       -0.000   0.000   0.000   0.000
   27        0.000   0.000   0.000   0.000
   28       -0.000   0.000   0.000   0.000
   29        0.000  -0.000   0.000  -0.000
   30        0.000   0.000   0.000   0.000
   31        0.000   0.000   0.000   0.000
   32        0.000   0.000   0.000   0.000
--------------------------------------------------
tot         -0.000  -0.000   0.000  -0.000
 
    CHARGE:  cpu time    1.0048: real time    1.0587
    FORLOC:  cpu time    0.0090: real time    0.0092
    FORNL :  cpu time    6.1011: real time    6.1335
    STRESS:  cpu time   18.0922: real time   18.2567
    FORCOR:  cpu time    0.1170: real time    0.1171
    FORHAR:  cpu time    0.0190: real time    0.0193
    MIXING:  cpu time    0.0020: real time    0.0014
    OFIELD:  cpu time    0.0000: real time    0.0000

  FORCE on cell =-STRESS in cart. coord.  units (eV):
  Direction    XX          YY          ZZ          XY          YZ          ZX
  --------------------------------------------------------------------------------------
  Alpha Z   759.44770   759.44770   759.44770
  Ewald   -4414.92260 -4317.31357 -4107.24559    -0.12706     2.96916    -0.03401
  Hartree  2649.68244  2718.65465  2835.65921    -0.06655    -0.07138    -0.02145
  E(xc)   -1231.78512 -1231.90244 -1232.62173    -0.00004    -0.02565     0.00000
  Local   -1875.27455 -2056.35752 -2471.77424     0.19133    -3.58868     0.05576
  n-local  -973.86491  -971.14154  -957.25075    -0.00124     0.10088    -0.00025
  augment   743.13648   748.25094   779.46841     0.00011     0.43553    -0.00024
  Kinetic  4343.56343  4350.32463  4394.30772     0.00508     0.18754     0.00039
  Fock        0.00000     0.00000     0.00000     0.00000     0.00000     0.00000
  -------------------------------------------------------------------------------------
  Total      -0.01713    -0.03717    -0.00927     0.00163     0.00740     0.00020
  in kB      -0.05954    -0.12915    -0.03222     0.00568     0.02572     0.00071
  external pressure =       -0.07 kB  Pullay stress =        0.00 kB


 VOLUME and BASIS-vectors are now :
 -----------------------------------------------------------------------------
  energy-cutoff  :      700.00
  volume of cell :      461.08
      direct lattice vectors                 reciprocal lattice vectors
     7.892012896 -0.000109306 -0.000041350     0.126710386  0.000001756  0.000000663
    -0.000108484  7.827349725 -0.002923735     0.000001770  0.127757182  0.000049101
    -0.000039014 -0.002868663  7.464036751     0.000000703  0.000050044  0.133975780

  length of vectors
     7.892012897  7.827350271  7.464037302     0.126710386  0.127757191  0.133975789


 FORCES acting on ions
    electron-ion (+dipol)            ewald-force                    non-local-force                 convergence-correction
 -----------------------------------------------------------------------------------------------
   -.113E-01 -.150E+01 -.621E+00   0.113E-01 0.147E+01 0.103E+01   0.263E-03 0.332E-01 -.402E+00   -.592E-04 0.138E-02 0.251E-02
   -.182E-02 0.401E+01 -.250E+02   0.185E-02 -.398E+01 0.253E+02   0.114E-03 -.303E-01 -.277E+00   -.200E-04 -.154E-03 -.482E-02
   -.170E-02 0.187E+01 -.942E+01   0.165E-02 -.183E+01 0.979E+01   -.598E-04 -.400E-01 -.373E+00   0.595E-05 -.396E-03 0.174E-02
   -.193E-01 -.535E+01 -.160E+02   0.191E-01 0.529E+01 0.163E+02   0.590E-03 0.598E-01 -.313E+00   -.145E-04 -.564E-03 -.101E-02
   -.114E-01 0.742E+01 0.156E+02   0.111E-01 -.733E+01 -.157E+02   0.229E-03 -.926E-01 0.429E-01   0.291E-04 0.344E-02 0.698E-02
   0.951E-05 0.588E+01 -.240E+02   0.198E-04 -.655E+01 0.250E+02   0.103E-03 0.662E+00 -.984E+00   0.181E-04 0.111E-02 -.469E-02
   0.122E-01 -.729E+01 -.253E+00   -.121E-01 0.707E+01 0.615E+00   -.331E-03 0.212E+00 -.368E+00   0.260E-04 -.203E-02 0.544E-02
   -.128E-01 -.160E+02 -.244E+02   0.128E-01 0.168E+02 0.243E+02   0.407E-03 -.841E+00 0.998E-01   0.416E-04 -.250E-02 -.574E-02
   0.121E-02 0.585E+02 0.296E+02   -.156E-02 -.640E+02 -.332E+02   0.316E-03 0.550E+01 0.355E+01   0.712E-04 0.136E-02 -.394E-02
   -.482E-02 0.249E+01 0.316E+02   0.482E-02 -.264E+01 -.361E+02   0.791E-04 0.143E+00 0.443E+01   -.690E-05 -.517E-03 -.278E-02
   0.219E-02 -.332E+00 0.408E+02   -.229E-02 0.393E+00 -.457E+02   0.138E-03 -.606E-01 0.495E+01   -.119E-04 0.138E-02 0.142E-02
   0.252E-03 -.272E+01 0.329E+02   -.989E-03 0.288E+01 -.375E+02   0.873E-03 -.157E+00 0.453E+01   0.477E-04 0.700E-03 0.264E-03
   -.502E-02 0.386E+00 0.396E+02   0.549E-02 -.475E+00 -.445E+02   -.443E-03 0.886E-01 0.488E+01   -.407E-04 -.135E-02 -.164E-02
   -.914E-02 0.461E+02 0.505E+02   0.931E-02 -.493E+02 -.553E+02   -.845E-04 0.320E+01 0.477E+01   0.360E-04 0.993E-03 0.312E-02
   0.696E-02 0.454E+02 0.751E+01   -.699E-02 -.492E+02 -.101E+02   0.369E-04 0.376E+01 0.261E+01   -.196E-04 -.251E-03 -.452E-02
   -.134E-01 -.415E+02 0.524E+02   0.145E-01 0.440E+02 -.573E+02   -.129E-02 -.248E+01 0.489E+01   0.538E-04 -.205E-02 0.596E-02
   0.258E+02 0.107E+00 -.715E+01   -.281E+02 0.878E-01 0.104E+02   0.228E+01 -.197E+00 -.324E+01   0.227E-02 0.697E-03 0.176E-02
   0.149E+01 -.861E+01 -.103E+02   -.144E+01 0.110E+02 0.107E+02   -.535E-01 -.237E+01 -.389E+00   0.688E-03 0.732E-03 -.182E-02
   -.483E+01 -.254E+01 -.566E+01   0.520E+01 0.272E+01 0.763E+01   -.382E+00 -.175E+00 -.198E+01   0.283E-02 -.150E-02 0.189E-02
   -.187E+02 0.174E+01 -.153E+02   0.201E+02 -.260E+01 0.175E+02   -.144E+01 0.855E+00 -.220E+01   -.268E-02 -.276E-03 -.154E-02
   -.258E+02 -.134E+00 -.714E+01   0.281E+02 0.352E+00 0.104E+02   -.228E+01 -.220E+00 -.324E+01   -.229E-02 0.736E-03 0.176E-02
   -.148E+01 -.859E+01 -.103E+02   0.142E+01 0.110E+02 0.107E+02   0.557E-01 -.237E+01 -.388E+00   -.738E-03 0.646E-03 -.176E-02
   0.481E+01 -.229E+01 -.565E+01   -.518E+01 0.243E+01 0.762E+01   0.380E+00 -.146E+00 -.198E+01   -.278E-02 -.150E-02 0.181E-02
   0.187E+02 0.172E+01 -.153E+02   -.202E+02 -.257E+01 0.175E+02   0.145E+01 0.854E+00 -.219E+01   0.246E-02 -.235E-03 -.147E-02
   -.139E+00 -.740E+01 -.938E+01   0.153E+00 0.842E+01 0.120E+02   -.135E-01 -.102E+01 -.259E+01   0.699E-04 -.191E-02 0.203E-02
   -.197E-02 -.595E+01 -.152E+02   0.155E-02 0.674E+01 0.176E+02   0.479E-03 -.788E+00 -.237E+01   0.706E-05 0.228E-02 -.620E-03
   0.140E+00 0.648E+01 -.595E+01   -.154E+00 -.732E+01 0.818E+01   0.145E-01 0.837E+00 -.224E+01   -.758E-04 0.549E-03 0.180E-02
   -.131E-01 0.737E+01 -.182E+02   0.155E-01 -.830E+01 0.209E+02   -.238E-02 0.923E+00 -.268E+01   -.477E-04 -.168E-02 -.510E-03
   0.134E+00 -.376E+02 0.401E+02   -.146E+00 0.414E+02 -.430E+02   0.114E-01 -.375E+01 0.284E+01   -.289E-04 0.333E-03 -.536E-03
   -.959E-02 -.706E+01 -.451E+02   0.114E-01 0.490E+01 0.488E+02   -.190E-02 0.217E+01 -.370E+01   -.867E-05 -.501E-03 0.159E-04
   -.123E+00 0.370E+02 -.518E+02   0.133E+00 -.405E+02 0.607E+02   -.971E-02 0.354E+01 -.894E+01   0.822E-04 0.797E-03 0.283E-02
   0.761E-02 -.704E+02 -.160E+02   -.767E-02 0.797E+02 0.156E+02   0.412E-04 -.922E+01 0.378E+00   -.116E-04 0.149E-02 -.435E-02
 -----------------------------------------------------------------------------------------------
   -.810E-02 0.112E+01 0.288E+01   -.277E-12 -.853E-13 0.213E-13   0.893E-02 -.113E+01 -.288E+01   -.994E-04 0.121E-02 -.406E-03
 
 
 POSITION                                       TOTAL-FORCE (eV/Angst)
 -----------------------------------------------------------------------------------
      7.89197      0.00853      7.39958         0.000131      0.000414      0.005082
      7.89187      7.82461      3.65709         0.000109      0.000413      0.005311
     -0.00008      3.92292      7.40042        -0.000126     -0.000051     -0.002728
      7.89191      3.90745      3.66665         0.000321     -0.000561     -0.000916
      3.94587      7.82443      7.35404        -0.000008     -0.003962      0.000128
      3.94586      7.64350      3.74580         0.000128     -0.003048     -0.000726
      3.94592      3.93190      7.42503        -0.000213     -0.004756     -0.001720
      3.94590      3.93519      3.67179         0.000438      0.002346     -0.005558
      3.94587      5.88478      3.53197         0.000013      0.001238     -0.003518
      7.89189      7.82169      1.86502         0.000049     -0.000954     -0.001708
      7.89197      0.00623      5.61138         0.000011      0.001775     -0.002207
      7.89191      3.92527      1.87441         0.000160      0.001469      0.000018
     -0.00007      3.91169      5.61275        -0.000041     -0.001489      0.002699
      3.94588      7.61408      5.62652         0.000097     -0.002977     -0.000509
      3.94592      3.72114      1.85682        -0.000033      0.003635      0.004924
      3.94598      4.07681      5.63442        -0.000099     -0.001789      0.003911
      1.99702      0.01214      0.04565         0.001840     -0.000819     -0.001621
      1.97857      0.00595      3.71566        -0.000673     -0.000707     -0.000845
      1.96894      3.94030      0.02410        -0.002035     -0.000030      0.000199
      1.96042      3.88351      3.75717        -0.002229      0.000646      0.000139
      5.89502      0.01311      0.04562        -0.002135     -0.000561     -0.001716
      5.91340      0.00588      3.71558         0.000434     -0.000838     -0.000739
      5.92295      3.93896      0.02403         0.002555     -0.000148      0.000233
      5.93149      3.88350      3.75711         0.001321      0.000756      0.000292
      0.00057      1.95930      0.03180         0.000279     -0.002513      0.003510
      7.89194      1.94516      3.75178         0.000040     -0.000051      0.000419
      7.89132      5.88963      0.01667        -0.000079      0.000987      0.000284
     -0.00003      5.87499      3.76400        -0.000102     -0.000019      0.003953
      3.94542      1.93099      7.27938        -0.000236      0.004400     -0.006447
      3.94602      1.91393      3.91685        -0.000114      0.000597      0.000339
      3.94640      5.92342      0.28796         0.000244      0.003571      0.000786
      3.94598      0.28426      1.84889        -0.000049      0.003026     -0.001268
 -----------------------------------------------------------------------------------
    total drift:                                0.000728     -0.000359      0.000612


--------------------------------------------------------------------------------------------------------



  FREE ENERGIE OF THE ION-ELECTRON SYSTEM (eV)
  ---------------------------------------------------
  free  energy   TOTEN  =      -211.76543471 eV

  energy  without entropy=     -211.76543471  energy(sigma->0) =     -211.76543471
 


--------------------------------------------------------------------------------------------------------


    POTLOK:  cpu time    0.9349: real time    0.9399


--------------------------------------------------------------------------------------------------------


 stress matrix after NEB project (eV)
     -0.01713      0.00163      0.00020
      0.00163     -0.03717      0.00740
      0.00020      0.00740     -0.00927
  FORCES: max atom, RMS     0.007809    0.003583
  FORCE total and by dimension    0.020270    0.006447
  Stress total and by dimension    0.043312    0.037167


--------------------------------------------------------------------------------------------------------


  
 reached required accuracy - stopping structural energy minimisation
 writing wavefunctions
     LOOP+:  cpu time  113.0678: real time  119.0958
    4ORBIT:  cpu time    0.0000: real time    0.0000
 


 total charge     
 
# of ion       s       p       d       tot
------------------------------------------
    1        0.305   6.474   1.749   8.529
    2        0.307   6.474   1.740   8.521
    3        0.307   6.476   1.752   8.536
    4        0.308   6.475   1.744   8.527
    5        0.317   6.479   1.789   8.585
    6        0.317   6.458   1.790   8.565
    7        0.298   6.464   1.745   8.508
    8        0.304   6.450   1.700   8.455
    9        1.569   3.447   0.000   5.016
   10        1.572   3.457   0.000   5.028
   11        1.571   3.452   0.000   5.023
   12        1.571   3.455   0.000   5.026
   13        1.571   3.454   0.000   5.025
   14        1.575   3.480   0.000   5.055
   15        1.570   3.451   0.000   5.021
   16        1.570   3.443   0.000   5.013
   17        1.729   4.382   0.000   6.111
   18        1.729   4.382   0.000   6.110
   19        1.729   4.383   0.000   6.113
   20        1.729   4.381   0.000   6.111
   21        1.729   4.382   0.000   6.111
   22        1.729   4.382   0.000   6.110
   23        1.729   4.383   0.000   6.113
   24        1.729   4.381   0.000   6.111
   25        1.730   4.388   0.000   6.118
   26        1.730   4.388   0.000   6.118
   27        1.730   4.388   0.000   6.118
   28        1.730   4.387   0.000   6.116
   29        1.730   4.383   0.000   6.113
   30        1.728   4.362   0.000   6.090
   31        1.730   4.379   0.000   6.109
   32        1.732   4.389   0.000   6.121
--------------------------------------------------
tot         42.704 149.510  14.011 206.225
 


 magnetization (x)
 
# of ion       s       p       d       tot
------------------------------------------
    1       -0.000   0.000   0.000   0.000
    2       -0.000   0.000   0.000   0.000
    3       -0.000  -0.000   0.000  -0.000
    4       -0.000   0.000   0.000   0.000
    5        0.000   0.000  -0.000   0.000
    6        0.000   0.000  -0.000  -0.000
    7       -0.000  -0.000  -0.000  -0.000
    8       -0.000  -0.000  -0.000  -0.000
    9       -0.000   0.000   0.000   0.000
   10        0.000  -0.000   0.000  -0.000
   11       -0.000  -0.000   0.000  -0.000
   12        0.000  -0.000   0.000  -0.000
   13        0.000  -0.000   0.000   0.000
   14       -0.000   0.000   0.000   0.000
   15       -0.000   0.000   0.000   0.000
   16       -0.000   0.000   0.000   0.000
   17       -0.000  -0.000   0.000  -0.000
   18        0.000  -0.000   0.000  -0.000
   19       -0.000   0.000   0.000  -0.000
   20        0.000  -0.000   0.000  -0.000
   21       -0.000  -0.000   0.000  -0.000
   22        0.000  -0.000   0.000  -0.000
   23       -0.000   0.000   0.000  -0.000
   24        0.000  -0.000   0.000  -0.000
   25       -0.000   0.000   0.000   0.000
   26       -0.000   0.000   0.000   0.000
   27        0.000   0.000   0.000   0.000
   28       -0.000   0.000   0.000   0.000
   29        0.000  -0.000   0.000  -0.000
   30        0.000   0.000   0.000   0.000
   31        0.000   0.000   0.000   0.000
   32        0.000   0.000   0.000   0.000
--------------------------------------------------
tot         -0.000  -0.000   0.000  -0.000
 

 total amount of memory used by VASP MPI-rank0   104530. kBytes
=======================================================================

   base      :      30000. kBytes
   nonlr-proj:       7867. kBytes
   fftplans  :       7712. kBytes
   grid      :       8037. kBytes
   one-center:        124. kBytes
   wavefun   :      50790. kBytes
 
  
  
 General timing and accounting informations for this job:
 ========================================================
  
                  Total CPU time used (sec):      161.816
                            User time (sec):      147.661
                          System time (sec):       14.156
                         Elapsed time (sec):      184.102
  
                   Maximum memory used (kb):      215604.
                   Average memory used (kb):           0.
  
                          Minor page faults:        83835
                          Major page faults:            4
                 Voluntary context switches:        65190
