LTO                                     
           1
     7.892013   -0.000109   -0.000041
    -0.000108    7.827350   -0.002924
    -0.000039   -0.002869    7.464037
   Ti   O    F 
   8   8  16
Direct configuration=     1
   0.99999978  0.00146666  0.99137067
   0.99999802  0.99984339  0.49035885
   0.00000115  0.50154401  0.99167272
   0.99999677  0.49939892  0.49144354
   0.50000092  0.99999475  0.98565808
   0.49999752  0.97670275  0.50223113
   0.50000150  0.50269998  0.99497371
   0.49999593  0.50293613  0.49213047
   0.49999503  0.75200384  0.47349633
   0.99999911  0.99938216  0.25026495
   0.99999818  0.00108563  0.75179519
   0.99999519  0.50158786  0.25132713
   0.00000218  0.50002270  0.75216874
   0.50000108  0.97303725  0.75420159
   0.49999740  0.47550018  0.24895740
   0.50000777  0.52112577  0.75508270
   0.25304321  0.00155678  0.00611862
   0.25070769  0.00094671  0.49780989
   0.24949156  0.50340567  0.00342746
   0.24841479  0.49633396  0.50356509
   0.74696046  0.00168746  0.00611695
   0.74929228  0.00094451  0.49780244
   0.75050610  0.50324239  0.00342118
   0.75159126  0.49634048  0.50355974
   0.00007572  0.25031567  0.00435895
   0.99999635  0.24870572  0.50274997
   0.99992209  0.75245689  0.00253316
   0.00000875  0.75075730  0.50457931
   0.49993447  0.24706210  0.97536040
   0.50000782  0.24471718  0.52486155
   0.50006098  0.75678101  0.03887902
   0.49999893  0.03641421  0.24772305
