 vasp.5.4.4.18Apr17-6-g9f103f2a35 (build Jul 16 2019 12:12:28) complex          
  
 executed on             LinuxIFC date 2020.01.06  15:45:02
 running on   96 total cores
 distrk:  each k-point on   96 cores,    1 groups
 distr:  one band on NCORES_PER_BAND=   8 cores,   12 groups


--------------------------------------------------------------------------------------------------------


 INCAR:
 POTCAR:    PAW_PBE Li_sv 10Sep2004               
 POTCAR:    PAW_PBE Ti_pv 07Sep2000               
 POTCAR:    PAW_PBE O 08Apr2002                   
 POTCAR:    PAW_PBE F 08Apr2002                   
 POTCAR:    PAW_PBE Li_sv 10Sep2004               
   VRHFIN =Li: 1s2s2p                                                           
   LEXCH  = PE                                                                  
   EATOM  =   202.7858 eV,   14.9043 Ry                                         
                                                                                
   TITEL  = PAW_PBE Li_sv 10Sep2004                                             
   LULTRA =        F    use ultrasoft PP ?                                      
   IUNSCR =        0    unscreen: 0-lin 1-nonlin 2-no                           
   RPACOR =    0.000    partial core radius                                     
   POMASS =    7.010; ZVAL   =    3.000    mass and valenz                      
   RCORE  =    1.700    outmost cutoff radius                                   
   RWIGS  =    2.050; RWIGS  =    1.085    wigner-seitz radius (au A)           
   ENMAX  =  499.034; ENMIN  =  374.276 eV                                      
   ICORE  =        2    local potential                                         
   LCOR   =        T    correct aug charges                                     
   LPAW   =        T    paw PP                                                  
   EAUG   =  628.945                                                            
   RMAX   =    1.732    core radius for proj-oper                               
   RAUG   =    1.300    factor for augmentation sphere                          
   RDEP   =    1.728    radius for radial grids                                 
   RDEPT  =    1.329    core radius for aug-charge                              
                                                                                
   Atomic configuration                                                         
    4 entries                                                                   
     n  l   j            E        occ.                                          
     1  0  0.50       -51.8549   2.0000                                         
     2  0  0.50        -2.8742   1.0000                                         
     2  1  0.50        -1.3606   0.0000                                         
     3  2  1.50        -1.3606   0.0000                                         
   Description                                                                  
     l       E           TYP  RCUT    TYP  RCUT                                 
     0    -51.8548813     23  1.400                                             
     0     -2.8742052     23  1.700                                             
     1     -1.3605826     23  1.400                                             
     2     -1.3605826     23  1.400                                             
  local pseudopotential read in
  atomic valenz-charges read in
  non local Contribution for L=           0  read in
    real space projection operators read in
  non local Contribution for L=           0  read in
    real space projection operators read in
  non local Contribution for L=           1  read in
    real space projection operators read in
    PAW grid and wavefunctions read in
 
   number of l-projection  operators is LMAX  =           3
   number of lm-projection operators is LMMAX =           5
 
 POTCAR:    PAW_PBE Ti_pv 07Sep2000               
   VRHFIN =Ti: d3 s1                                                            
   LEXCH  = PE                                                                  
   EATOM  =  1042.5995 eV,   76.6289 Ry                                         
                                                                                
   TITEL  = PAW_PBE Ti_pv 07Sep2000                                             
   LULTRA =        F    use ultrasoft PP ?                                      
   IUNSCR =        1    unscreen: 0-lin 1-nonlin 2-no                           
   RPACOR =    2.200    partial core radius                                     
   POMASS =   47.880; ZVAL   =   10.000    mass and valenz                      
   RCORE  =    2.500    outmost cutoff radius                                   
   RWIGS  =    2.500; RWIGS  =    1.323    wigner-seitz radius (au A)           
   ENMAX  =  222.335; ENMIN  =  166.751 eV                                      
   RCLOC  =    1.701    cutoff for local pot                                    
   LCOR   =        T    correct aug charges                                     
   LPAW   =        T    paw PP                                                  
   EAUG   =  482.848                                                            
   DEXC   =    0.000                                                            
   RMAX   =    2.564    core radius for proj-oper                               
   RAUG   =    1.300    factor for augmentation sphere                          
   RDEP   =    2.538    radius for radial grids                                 
   RDEPT  =    1.952    core radius for aug-charge                              
                                                                                
   Atomic configuration                                                         
    8 entries                                                                   
     n  l   j            E        occ.                                          
     1  0  0.50     -4865.3608   2.0000                                         
     2  0  0.50      -533.1368   2.0000                                         
     2  1  1.50      -440.5031   6.0000                                         
     3  0  0.50       -59.3186   2.0000                                         
     3  1  1.50       -35.7012   6.0000                                         
     3  2  2.50        -1.9157   3.0000                                         
     4  0  0.50        -3.7291   1.0000                                         
     4  3  2.50        -1.3606   0.0000                                         
   Description                                                                  
     l       E           TYP  RCUT    TYP  RCUT                                 
     1    -35.7012140     23  2.300                                             
     1     -1.3605826     23  2.300                                             
     2     -1.9156996     23  2.500                                             
     2     -0.4063033     23  2.500                                             
     0     -3.7290856     23  2.500                                             
     0     20.4087390     23  2.500                                             
  local pseudopotential read in
  partial core-charges read in
  partial kinetic energy density read in
  atomic valenz-charges read in
  non local Contribution for L=           1  read in
    real space projection operators read in
  non local Contribution for L=           1  read in
    real space projection operators read in
  non local Contribution for L=           2  read in
    real space projection operators read in
  non local Contribution for L=           2  read in
    real space projection operators read in
  non local Contribution for L=           0  read in
    real space projection operators read in
  non local Contribution for L=           0  read in
    real space projection operators read in
    PAW grid and wavefunctions read in
 
   number of l-projection  operators is LMAX  =           6
   number of lm-projection operators is LMMAX =          18
 
 POTCAR:    PAW_PBE O 08Apr2002                   
   VRHFIN =O: s2p4                                                              
   LEXCH  = PE                                                                  
   EATOM  =   432.3788 eV,   31.7789 Ry                                         
                                                                                
   TITEL  = PAW_PBE O 08Apr2002                                                 
   LULTRA =        F    use ultrasoft PP ?                                      
   IUNSCR =        1    unscreen: 0-lin 1-nonlin 2-no                           
   RPACOR =    1.200    partial core radius                                     
   POMASS =   16.000; ZVAL   =    6.000    mass and valenz                      
   RCORE  =    1.520    outmost cutoff radius                                   
   RWIGS  =    1.550; RWIGS  =    0.820    wigner-seitz radius (au A)           
   ENMAX  =  400.000; ENMIN  =  300.000 eV                                      
   ICORE  =        2    local potential                                         
   LCOR   =        T    correct aug charges                                     
   LPAW   =        T    paw PP                                                  
   EAUG   =  605.392                                                            
   DEXC   =    0.000                                                            
   RMAX   =    1.553    core radius for proj-oper                               
   RAUG   =    1.300    factor for augmentation sphere                          
   RDEP   =    1.550    radius for radial grids                                 
   RDEPT  =    1.329    core radius for aug-charge                              
                                                                                
   Atomic configuration                                                         
    4 entries                                                                   
     n  l   j            E        occ.                                          
     1  0  0.50      -514.6923   2.0000                                         
     2  0  0.50       -23.9615   2.0000                                         
     2  1  0.50        -9.0305   4.0000                                         
     3  2  1.50        -9.5241   0.0000                                         
   Description                                                                  
     l       E           TYP  RCUT    TYP  RCUT                                 
     0    -23.9615318     23  1.200                                             
     0     -9.5240782     23  1.200                                             
     1     -9.0304911     23  1.520                                             
     1      8.1634956     23  1.520                                             
     2     -9.5240782      7  1.500                                             
  local pseudopotential read in
  partial core-charges read in
  partial kinetic energy density read in
  kinetic energy density of atom read in
  atomic valenz-charges read in
  non local Contribution for L=           0  read in
    real space projection operators read in
  non local Contribution for L=           0  read in
    real space projection operators read in
  non local Contribution for L=           1  read in
    real space projection operators read in
  non local Contribution for L=           1  read in
    real space projection operators read in
    PAW grid and wavefunctions read in
 
   number of l-projection  operators is LMAX  =           4
   number of lm-projection operators is LMMAX =           8
 
 POTCAR:    PAW_PBE F 08Apr2002                   
   VRHFIN =F: s2p5                                                              
   LEXCH  = PE                                                                  
   EATOM  =   659.6475 eV,   48.4827 Ry                                         
                                                                                
   TITEL  = PAW_PBE F 08Apr2002                                                 
   LULTRA =        F    use ultrasoft PP ?                                      
   IUNSCR =        1    unscreen: 0-lin 1-nonlin 2-no                           
   RPACOR =    1.200    partial core radius                                     
   POMASS =   18.998; ZVAL   =    7.000    mass and valenz                      
   RCORE  =    1.520    outmost cutoff radius                                   
   RWIGS  =    1.500; RWIGS  =    0.794    wigner-seitz radius (au A)           
   ENMAX  =  400.000; ENMIN  =  300.000 eV                                      
   ICORE  =        2    local potential                                         
   LCOR   =        T    correct aug charges                                     
   LPAW   =        T    paw PP                                                  
   EAUG   =  613.614                                                            
   RMAX   =    1.555    core radius for proj-oper                               
   RAUG   =    1.300    factor for augmentation sphere                          
   RDEP   =    1.539    radius for radial grids                                 
   RDEPT  =    1.299    core radius for aug-charge                              
                                                                                
   Atomic configuration                                                         
    4 entries                                                                   
     n  l   j            E        occ.                                          
     1  0  0.50      -663.3661   2.0000                                         
     2  0  0.50       -29.8995   2.0000                                         
     2  1  0.50       -11.1114   5.0000                                         
     3  2  1.50       -10.8847   0.0000                                         
   Description                                                                  
     l       E           TYP  RCUT    TYP  RCUT                                 
     0    -29.8995018     23  1.200                                             
     0     -9.5240782     23  1.200                                             
     1    -11.1113914     23  1.520                                             
     1      1.3605826     23  1.520                                             
     2    -10.8846608      7  1.500                                             
  local pseudopotential read in
  partial core-charges read in
  partial kinetic energy density read in
  atomic valenz-charges read in
  non local Contribution for L=           0  read in
    real space projection operators read in
  non local Contribution for L=           0  read in
    real space projection operators read in
  non local Contribution for L=           1  read in
    real space projection operators read in
  non local Contribution for L=           1  read in
    real space projection operators read in
    PAW grid and wavefunctions read in
 
   number of l-projection  operators is LMAX  =           4
   number of lm-projection operators is LMMAX =           8
 
 Optimization of the real space projectors (new method)

 maximal supplied QI-value         = 22.11
 optimisation between [QCUT,QGAM] = [ 11.28, 22.77] = [ 35.61,145.23] Ry 
 Optimized for a Real-space Cutoff    1.31 Angstroem

   l    n(q)    QCUT    max X(q) W(low)/X(q) W(high)/X(q)  e(spline) 
   0      9    11.276    10.506    0.19E-04    0.17E-04    0.32E-07
   0      9    11.276     8.367    0.38E-04    0.40E-04    0.65E-07
   1      8    11.276     8.983    0.55E-04    0.98E-04    0.20E-06
 Optimization of the real space projectors (new method)

 maximal supplied QI-value         = 15.12
 optimisation between [QCUT,QGAM] = [ 11.34, 22.83] = [ 36.00,145.93] Ry 
 Optimized for a Real-space Cutoff    1.56 Angstroem

   l    n(q)    QCUT    max X(q) W(low)/X(q) W(high)/X(q)  e(spline) 
   1     10    11.338     4.216    0.27E-04    0.12E-04    0.66E-07
   1     10    11.338     5.422    0.81E-04    0.24E-04    0.19E-06
   2     10    11.338    72.084    0.64E-04    0.21E-03    0.51E-06
   2     10    11.338    65.965    0.63E-04    0.21E-03    0.50E-06
   0     11    11.338    41.531    0.33E-04    0.54E-04    0.13E-06
   0     11    11.338    16.290    0.26E-04    0.41E-04    0.11E-06
 Optimization of the real space projectors (new method)

 maximal supplied QI-value         = 24.76
 optimisation between [QCUT,QGAM] = [ 11.39, 22.77] = [ 36.31,145.25] Ry 
 Optimized for a Real-space Cutoff    1.20 Angstroem

   l    n(q)    QCUT    max X(q) W(low)/X(q) W(high)/X(q)  e(spline) 
   0      8    11.387    20.381    0.89E-04    0.31E-03    0.27E-06
   0      8    11.387    15.268    0.93E-04    0.32E-03    0.29E-06
   1      8    11.387     5.964    0.53E-04    0.28E-03    0.29E-06
   1      8    11.387     5.382    0.37E-04    0.22E-03    0.26E-06
 Optimization of the real space projectors (new method)

 maximal supplied QI-value         = 24.76
 optimisation between [QCUT,QGAM] = [ 11.39, 22.77] = [ 36.31,145.25] Ry 
 Optimized for a Real-space Cutoff    1.20 Angstroem

   l    n(q)    QCUT    max X(q) W(low)/X(q) W(high)/X(q)  e(spline) 
   0      8    11.387    14.049    0.69E-04    0.23E-03    0.18E-06
   0      8    11.387     8.945    0.88E-04    0.30E-03    0.26E-06
   1      8    11.387     7.086    0.62E-04    0.27E-03    0.27E-06
   1      8    11.387     6.747    0.46E-04    0.23E-03    0.25E-06

 ----------------------------------------------------------------------------- 
|                                                                             |
|  ADVICE TO THIS USER RUNNING 'VASP/VAMP'   (HEAR YOUR MASTER'S VOICE ...):  |
|                                                                             |
|      You enforced a specific xc-type in the INCAR file,                     |
|      a different type was found on the POTCAR file                          |
|          I HOPE YOU KNOW, WHAT YOU ARE  DOING                               |
|                                                                             |
 ----------------------------------------------------------------------------- 

  PAW_PBE Li_sv 10Sep2004               :
 energy of atom  1       EATOM= -202.7858
 kinetic energy error for atom=    0.0143 (will be added to EATOM!!)
  PAW_PBE Ti_pv 07Sep2000               :
 energy of atom  2       EATOM=-1042.5995
 kinetic energy error for atom=    0.0024 (will be added to EATOM!!)
  PAW_PBE O 08Apr2002                   :
 energy of atom  3       EATOM= -432.3788
 kinetic energy error for atom=    0.0224 (will be added to EATOM!!)
  PAW_PBE F 08Apr2002                   :
 energy of atom  4       EATOM= -659.6475
 kinetic energy error for atom=    0.0354 (will be added to EATOM!!)
 
 
 POSCAR: config 39                               
  positions in direct lattice
  velocities in cartesian coordinates
 exchange correlation table for  LEXCH =       14
   RHO(1)=    0.500       N(1)  =     2000
   RHO(2)=  100.500       N(2)  =     4000

 VTST: version 3.2, (02/03/18)

 CHAIN: initializing optimizer
 
 OPT: Using VASP QUASI-newton optimizer
 CHAIN: Read ICHAIN            0
 
 POSCAR: config 39                               
  positions in direct lattice
  velocities in cartesian coordinates
 


--------------------------------------------------------------------------------------------------------


 ion  position               nearest neighbor table
   1  0.632  0.368  0.622-  93 2.19
   2  0.995  0.996  0.994- 118 1.86  68 1.88 103 1.89 171 2.02 212 2.03 130 2.04
   3  1.000  0.992  0.493- 119 1.81  67 1.82 172 1.95 193 1.96 131 2.01 213 2.07
   4  0.005  0.495  0.997-  89 1.83 117 1.86 138 1.94 132 1.98 214 2.01 194 2.02
   5  0.995  0.503  0.508-  66 1.82 104 1.85 215 1.92 173 1.99 223 1.99 137 2.03
   6  0.494  0.995  1.000- 101 1.83 121 1.85 140 1.95 133 1.96 216 2.01 174 2.03
   7  0.503  0.008  0.500- 112 1.73 191 1.93 139 1.94 134 1.94 175 1.95 225 2.06
   8  0.504  0.496  0.996- 120 1.87  70 1.88  90 1.89 192 2.02 135 2.03 217 2.04
   9  0.491  0.500  0.495- 102 1.81  69 1.85 224 1.92 218 1.97 136 2.05 176 2.09
  10  0.007  0.003  0.256-  91 1.83  67 1.86 219 1.94 227 1.97 130 2.00 197 2.05
  11  0.001  0.008  0.757-  68 1.79 113 1.84 177 1.94 198 1.99 228 2.04 131 2.06
  12  0.993  0.494  0.251- 107 1.82 122 1.86 137 1.94 132 1.97 220 2.00 178 2.02
  13  0.993  0.499  0.742-  66 1.82 108 1.84 226 1.93 221 1.96 138 2.01 179 2.03
  14  0.506  0.009  0.251- 114 1.81  92 1.84 133 1.93 139 1.95 195 2.00 231 2.06
  15  0.493  0.004  0.751- 105 1.80 115 1.85 140 1.94 134 1.97 232 2.01 180 2.03
  16  0.492  0.497  0.257-  69 1.83 106 1.84 229 1.95 222 1.99 135 2.01 181 2.05
  17  0.500  0.505  0.759-  70 1.79 116 1.86 196 1.96 182 1.96 230 2.03 136 2.08
  18  0.995  0.257  0.001- 117 1.82 110 1.87 141 1.96 146 1.96 183 2.00 212 2.01
  19  0.998  0.248  0.491-  74 1.77 213 1.91 202 1.92 184 1.93 223 1.95 142 2.01
  20  0.998  0.758  0.006- 118 1.81  71 1.85 203 1.94 185 1.97 148 2.05 214 2.05
  21  0.998  0.757  0.506- 119 1.83  72 1.84 204 1.95 186 1.96 147 2.02 215 2.03
  22  0.495  0.258  1.000- 120 1.80 109 1.84 143 1.96 150 1.97 187 2.03 216 2.06
  23  0.507  0.246  0.500-  93 1.94 112 1.98 149 2.00 144 2.00 199 2.00 224 2.03
  24  0.507  0.757  0.999-  94 1.83 121 1.83 152 1.94 145 1.98 217 2.01 200 2.02
  25  0.507  0.754  0.509-  73 1.79  95 1.84 225 1.92 218 1.97 201 2.01 151 2.07
  26  0.999  0.258  0.255- 122 1.80  74 1.88 209 1.94 188 1.95 141 1.99 219 2.02
  27  0.007  0.242  0.747- 113 1.80  96 1.83 142 1.96 146 1.96 226 2.05 210 2.06
  28  0.007  0.749  0.243-  71 1.82  97 1.84 220 1.95 227 1.98 147 2.05 211 2.06
  29  0.993  0.751  0.743- 111 1.83  72 1.84 228 1.93 221 1.98 189 2.02 148 2.02
  30  0.508  0.243  0.251-  98 1.82 114 1.83 149 1.91 143 1.94 229 2.02 205 2.02
  31  0.507  0.242  0.748- 115 1.83  99 1.89 144 1.91 150 1.94 206 2.01 230 2.05
  32  0.507  0.752  0.252- 100 1.79 151 1.92 231 1.92 145 1.94 222 1.94 207 2.00
  33  0.501  0.743  0.743- 116 1.81  73 1.83 190 1.93 208 1.96 152 2.02 232 2.04
  34  0.256  0.999  0.006-  75 1.84 101 1.86 246 1.93 233 1.96 171 2.01 157 2.04
  35  0.251  0.994  0.506- 128 1.83  76 1.84 172 1.95 191 1.97 234 2.02 156 2.02
  36  0.243  0.508  0.997- 123 1.82  89 1.84 159 1.94 153 1.97 192 2.02 245 2.03
  37  0.254  0.495  0.507-  77 1.86 102 1.87 127 1.88 235 2.04 173 2.04 158 2.05
  38  0.757  0.000  0.995- 103 1.79  81 1.88 236 1.95 249 1.96 154 2.04 174 2.04
  39  0.750  0.006  0.495- 124 1.83  80 1.83 193 1.94 175 1.97 155 2.00 250 2.04
  40  0.742  0.500  0.005-  90 1.80  78 1.87 237 1.95 247 1.96 194 2.05 161 2.05
  41  0.757  0.497  0.505- 104 1.83  79 1.88 248 1.94 238 1.97 160 2.00 176 2.03
  42  0.245  0.003  0.244-  75 1.83  91 1.85 239 1.93 252 1.97 156 2.04 195 2.05
  43  0.258  0.998  0.744-  76 1.83 105 1.84 253 1.93 240 1.96 177 2.02 157 2.02
  44  0.255  0.493  0.252- 129 1.83 106 1.83 158 1.93 153 1.97 241 2.03 178 2.04
  45  0.247  0.506  0.741-  77 1.79 125 1.83 179 1.95 196 1.98 251 2.02 159 2.06
  46  0.745  1.000  0.256-  92 1.84  80 1.86 256 1.95 242 1.96 197 2.00 154 2.00
  47  0.748  0.005  0.756-  81 1.81 126 1.85 180 1.94 198 1.96 257 2.03 155 2.05
  48  0.755  0.499  0.242-  78 1.81 107 1.85 243 1.95 254 1.96 181 2.01 160 2.07
  49  0.758  0.497  0.742- 108 1.81  79 1.87 255 1.93 244 1.97 161 2.02 182 2.05
  50  0.257  0.251  0.005- 109 1.83  82 1.86 245 1.94 233 1.97 168 2.01 183 2.05
  51  0.253  0.257  0.505- 127 1.81  83 1.86 199 1.94 184 2.01 167 2.03 234 2.04
  52  0.252  0.743  0.994- 123 1.82  86 1.84 200 1.94 185 1.96 162 2.03 246 2.03
  53  0.252  0.756  0.493-  85 1.83 128 1.86 201 1.95 186 1.97 235 2.00 163 2.04
  54  0.757  0.251  0.007- 110 1.81  84 1.84 236 1.94 247 1.95 187 2.02 170 2.04
  55  0.741  0.243  0.500-  93 1.80 124 1.83 169 1.93 164 1.99 248 2.04 202 2.06
  56  0.742  0.749  0.994-  94 1.82  88 1.84 237 1.94 249 1.95 203 2.01 165 2.04
  57  0.742  0.752  0.494-  95 1.81  87 1.86 250 1.94 238 1.99 166 2.01 204 2.03
  58  0.251  0.258  0.243- 129 1.82  82 1.83 205 1.95 188 1.99 167 2.03 239 2.03
  59  0.245  0.252  0.744-  83 1.83  96 1.85 251 1.93 240 1.97 168 2.03 206 2.05
  60  0.244  0.748  0.256-  97 1.83  85 1.84 241 1.94 252 1.97 162 2.02 207 2.06
  61  0.248  0.742  0.757- 125 1.82  86 1.84 189 1.93 208 1.97 163 2.03 253 2.04
  62  0.742  0.251  0.242-  84 1.80  98 1.81 254 1.94 242 1.94 209 2.04 169 2.06
  63  0.744  0.242  0.750- 126 1.81  99 1.87 170 1.93 164 2.00 210 2.01 255 2.05
  64  0.746  0.750  0.257-  87 1.82 100 1.89 243 1.94 256 1.94 211 1.98 165 2.02
  65  0.757  0.750  0.757- 111 1.82  88 1.83 257 1.93 244 1.99 190 2.02 166 2.04
  66  0.012  0.502  0.625-  13 1.82   5 1.82
  67  0.995  0.006  0.376-   3 1.82  10 1.86
  68  0.999  0.003  0.873-  11 1.79   2 1.88
  69  0.498  0.496  0.375-  16 1.83   9 1.85
  70  0.492  0.500  0.875-  17 1.79   8 1.88
  71  0.998  0.746  0.126-  28 1.82  20 1.85
  72  0.001  0.746  0.624-  21 1.84  29 1.84
  73  0.501  0.757  0.625-  25 1.79  33 1.83
  74  0.996  0.247  0.377-  19 1.77  26 1.88
  75  0.254  0.004  0.125-  42 1.83  34 1.84
  76  0.253  0.004  0.625-  43 1.83  35 1.84
  77  0.236  0.496  0.626-  45 1.79  37 1.86
  78  0.749  0.492  0.125-  48 1.81  40 1.87
  79  0.736  0.478  0.624-  49 1.87  41 1.88
  80  0.752  0.998  0.376-  39 1.83  46 1.86
  81  0.747  0.997  0.873-  47 1.81  38 1.88
  82  0.246  0.250  0.125-  58 1.83  50 1.86
  83  0.255  0.250  0.625-  59 1.83  51 1.86
  84  0.746  0.257  0.126-  62 1.80  54 1.84
  85  0.255  0.747  0.375-  53 1.83  60 1.84
  86  0.251  0.753  0.875-  52 1.84  61 1.84
  87  0.752  0.750  0.375-  64 1.82  57 1.86
  88  0.747  0.751  0.875-  65 1.83  56 1.84
  89  0.124  0.503  0.992-   4 1.83  36 1.84
  90  0.626  0.507  0.996-  40 1.80   8 1.89
  91  0.125  0.003  0.253-  10 1.83  42 1.85
  92  0.625  1.000  0.250-  14 1.84  46 1.84
  93  0.629  0.270  0.519-  55 1.80  23 1.94   1 2.19
  94  0.625  0.742  0.004-  56 1.82  24 1.83
  95  0.625  0.762  0.497-  57 1.81  25 1.84
  96  0.125  0.251  0.748-  27 1.83  59 1.85
  97  0.125  0.753  0.252-  60 1.83  28 1.84
  98  0.626  0.247  0.257-  62 1.81  30 1.82
  99  0.626  0.262  0.731-  63 1.87  31 1.89
 100  0.623  0.755  0.251-  32 1.79  64 1.89
 101  0.376  0.001  0.993-   6 1.83  34 1.86
 102  0.375  0.507  0.507-   9 1.81  37 1.87
 103  0.873  0.003  0.001-  38 1.79   2 1.89
 104  0.875  0.504  0.507-  41 1.83   5 1.85
 105  0.377  0.998  0.756-  15 1.80  43 1.84
 106  0.374  0.497  0.247-  44 1.83  16 1.84
 107  0.875  0.499  0.251-  12 1.82  48 1.85
 108  0.875  0.508  0.739-  49 1.81  13 1.84
 109  0.376  0.248  0.000-  50 1.83  22 1.84
 110  0.874  0.247  0.002-  54 1.81  18 1.87
 111  0.875  0.743  0.750-  65 1.82  29 1.83
 112  0.518  0.119  0.497-   7 1.73  23 1.98
 113  0.996  0.126  0.743-  27 1.80  11 1.84
 114  0.496  0.125  0.261-  14 1.81  30 1.83
 115  0.506  0.123  0.748-  31 1.83  15 1.85
 116  0.501  0.626  0.747-  33 1.81  17 1.86
 117  0.999  0.375  0.004-  18 1.82   4 1.86
 118  0.001  0.875  0.001-  20 1.81   2 1.86
 119  0.996  0.875  0.498-   3 1.81  21 1.83
 120  0.502  0.375  0.005-  22 1.80   8 1.87
 121  0.504  0.875  0.002-  24 1.83   6 1.85
 122  0.006  0.374  0.247-  26 1.80  12 1.86
 123  0.255  0.625  0.002-  52 1.82  36 1.82
 124  0.738  0.124  0.505-  55 1.83  39 1.83
 125  0.249  0.625  0.750-  61 1.82  45 1.83
 126  0.746  0.125  0.744-  63 1.81  47 1.85
 127  0.251  0.374  0.494-  51 1.81  37 1.88
 128  0.253  0.876  0.500-  35 1.83  53 1.86
 129  0.242  0.375  0.256-  58 1.82  44 1.83
 130  0.001  0.003  0.127-  10 2.00   2 2.04
 131  0.005  0.997  0.624-   3 2.01  11 2.06
 132  0.001  0.509  0.125-  12 1.97   4 1.98
 133  0.495  0.005  0.126-  14 1.93   6 1.96
 134  0.498  0.990  0.625-   7 1.94  15 1.97
 135  0.504  0.507  0.127-  16 2.01   8 2.03
 136  0.515  0.496  0.625-   9 2.05  17 2.08
 137  0.999  0.496  0.377-  12 1.94   5 2.03
 138  0.991  0.498  0.872-   4 1.94  13 2.01
 139  0.502  0.989  0.376-   7 1.94  14 1.95
 140  0.514  0.002  0.875-  15 1.94   6 1.95
 141  0.006  0.246  0.127-  18 1.96  26 1.99
 142  0.997  0.259  0.622-  27 1.96  19 2.01
 143  0.505  0.240  0.126-  30 1.94  22 1.96
 144  0.483  0.249  0.627-  31 1.91  23 2.00
 145  0.495  0.748  0.127-  32 1.94  24 1.98
 146  0.997  0.251  0.874-  18 1.96  27 1.96
 147  0.994  0.750  0.375-  21 2.02  28 2.05
 148  0.002  0.751  0.874-  29 2.02  20 2.05
 149  0.496  0.265  0.372-  30 1.91  23 2.00
 150  0.508  0.252  0.873-  31 1.94  22 1.97
 151  0.494  0.750  0.376-  32 1.92  25 2.07
 152  0.499  0.749  0.874-  24 1.94  33 2.02
 153  0.243  0.495  0.125-  44 1.97  36 1.97
 154  0.749  0.004  0.126-  46 2.00  38 2.04
 155  0.747  0.995  0.624-  39 2.00  47 2.05
 156  0.254  0.001  0.375-  35 2.02  42 2.04
 157  0.244  0.995  0.874-  43 2.02  34 2.04
 158  0.249  0.511  0.375-  44 1.93  37 2.05
 159  0.261  0.498  0.873-  36 1.94  45 2.06
 160  0.749  0.507  0.376-  41 2.00  48 2.07
 161  0.754  0.506  0.873-  49 2.02  40 2.05
 162  0.252  0.754  0.125-  60 2.02  52 2.03
 163  0.249  0.751  0.625-  61 2.03  53 2.04
 164  0.762  0.267  0.625-  55 1.99  63 2.00
 165  0.753  0.747  0.126-  64 2.02  56 2.04
 166  0.748  0.749  0.625-  57 2.01  65 2.04
 167  0.251  0.244  0.374-  58 2.03  51 2.03
 168  0.249  0.252  0.875-  50 2.01  59 2.03
 169  0.754  0.243  0.375-  55 1.93  62 2.06
 170  0.745  0.245  0.875-  63 1.93  54 2.04
 171  0.126  0.002  0.001-  34 2.01   2 2.02
 172  0.125  0.004  0.497-   3 1.95  35 1.95
 173  0.123  0.501  0.490-   5 1.99  37 2.04
 174  0.625  0.001  0.007-   6 2.03  38 2.04
 175  0.626  0.977  0.502-   7 1.95  39 1.97
 176  0.626  0.487  0.497-  41 2.03   9 2.09
 177  0.127  0.002  0.748-  11 1.94  43 2.02
 178  0.123  0.507  0.251-  12 2.02  44 2.04
 179  0.123  0.494  0.765-  45 1.95  13 2.03
 180  0.624  0.991  0.742-  47 1.94  15 2.03
 181  0.625  0.498  0.252-  48 2.01  16 2.05
 182  0.626  0.490  0.757-  17 1.96  49 2.05
 183  0.125  0.250  0.995-  18 2.00  50 2.05
 184  0.123  0.247  0.500-  19 1.93  51 2.01
 185  0.125  0.746  0.001-  52 1.96  20 1.97
 186  0.124  0.750  0.496-  21 1.96  53 1.97
 187  0.626  0.250  0.998-  54 2.02  22 2.03
 188  0.124  0.238  0.255-  26 1.95  58 1.99
 189  0.123  0.753  0.750-  61 1.93  29 2.02
 190  0.626  0.754  0.750-  33 1.93  65 2.02
 191  0.378  0.009  0.498-   7 1.93  35 1.97
 192  0.373  0.496  0.009-  36 2.02   8 2.02
 193  0.875  0.008  0.509-  39 1.94   3 1.96
 194  0.874  0.499  0.000-   4 2.02  40 2.05
 195  0.377  0.997  0.255-  14 2.00  42 2.05
 196  0.374  0.498  0.738-  17 1.96  45 1.98
 197  0.874  0.999  0.246-  46 2.00  10 2.05
 198  0.874  0.995  0.742-  47 1.96  11 1.99
 199  0.377  0.242  0.493-  51 1.94  23 2.00
 200  0.376  0.756  0.001-  52 1.94  24 2.02
 201  0.377  0.740  0.503-  53 1.95  25 2.01
 202  0.874  0.247  0.503-  19 1.92  55 2.06
 203  0.872  0.754  0.998-  20 1.94  56 2.01
 204  0.873  0.741  0.503-  21 1.95  57 2.03
 205  0.377  0.257  0.246-  58 1.95  30 2.02
 206  0.377  0.250  0.759-  31 2.01  59 2.05
 207  0.377  0.748  0.248-  32 2.00  60 2.06
 208  0.375  0.756  0.749-  33 1.96  61 1.97
 209  0.874  0.254  0.248-  26 1.94  62 2.04
 210  0.874  0.252  0.751-  63 2.01  27 2.06
 211  0.874  0.746  0.250-  64 1.98  28 2.06
 212  0.004  0.127  0.001-  18 2.01   2 2.03
 213  0.999  0.126  0.510-  19 1.91   3 2.07
 214  0.994  0.625  0.994-   4 2.01  20 2.05
 215  0.003  0.626  0.493-   5 1.92  21 2.03
 216  0.505  0.125  0.997-   6 2.01  22 2.06
 217  0.490  0.627  0.001-  24 2.01   8 2.04
 218  0.511  0.626  0.501-  25 1.97   9 1.97
 219  0.992  0.128  0.246-  10 1.94  26 2.02
 220  1.000  0.624  0.258-  28 1.95  12 2.00
 221  0.010  0.624  0.756-  13 1.96  29 1.98
 222  0.503  0.626  0.253-  32 1.94  16 1.99
 223  0.001  0.374  0.499-  19 1.95   5 1.99
 224  0.493  0.377  0.510-   9 1.92  23 2.03
 225  0.485  0.876  0.495-  25 1.92   7 2.06
 226  0.995  0.375  0.751-  13 1.93  27 2.05
 227  0.995  0.876  0.251-  10 1.97  28 1.98
 228  1.000  0.876  0.748-  29 1.93  11 2.04
 229  0.503  0.373  0.238-  16 1.95  30 2.02
 230  0.498  0.375  0.744-  17 2.03  31 2.05
 231  0.495  0.876  0.247-  32 1.92  14 2.06
 232  0.502  0.875  0.758-  15 2.01  33 2.04
 233  0.246  0.125  0.993-  34 1.96  50 1.97
 234  0.248  0.125  0.497-  35 2.02  51 2.04
 235  0.244  0.627  0.505-  53 2.00  37 2.04
 236  0.743  0.126  0.001-  54 1.94  38 1.95
 237  0.761  0.625  0.002-  56 1.94  40 1.95
 238  0.741  0.624  0.507-  41 1.97  57 1.99
 239  0.259  0.127  0.254-  42 1.93  58 2.03
 240  0.252  0.125  0.758-  43 1.96  59 1.97
 241  0.250  0.624  0.241-  60 1.94  44 2.03
 242  0.758  0.126  0.249-  62 1.94  46 1.96
 243  0.745  0.625  0.248-  64 1.94  48 1.95
 244  0.739  0.623  0.743-  49 1.97  65 1.99
 245  0.249  0.376  0.998-  50 1.94  36 2.03
 246  0.245  0.874  0.003-  34 1.93  52 2.03
 247  0.749  0.375  0.988-  54 1.95  40 1.96
 248  0.761  0.373  0.485-  41 1.94  55 2.04
 249  0.746  0.875  0.009-  56 1.95  38 1.96
 250  0.765  0.875  0.503-  57 1.94  39 2.04
 251  0.253  0.376  0.756-  59 1.93  45 2.02
 252  0.255  0.876  0.251-  42 1.97  60 1.97
 253  0.246  0.874  0.746-  43 1.93  61 2.04
 254  0.749  0.374  0.264-  62 1.94  48 1.96
 255  0.756  0.374  0.762-  49 1.93  63 2.05
 256  0.756  0.875  0.243-  64 1.94  46 1.95
 257  0.752  0.874  0.744-  65 1.93  47 2.03
 

IMPORTANT INFORMATION: All symmetrisations will be switched off!
NOSYMM: (Re-)initialisation of all symmetry stuff for point group C_1.

 
 
 KPOINTS: Title                                   

Automatic generation of k-mesh.
Space group operators:
 irot       det(A)        alpha          n_x          n_y          n_z        tau_x        tau_y        tau_z
    1     1.000000     0.000001     1.000000     0.000000     0.000000     0.000000     0.000000     0.000000
 
 Subroutine IBZKPT returns following result:
 ===========================================
 
 Found      4 irreducible k-points:
 
 Following reciprocal coordinates:
            Coordinates               Weight
  0.250000  0.250000  0.250000      2.000000
 -0.250000  0.250000  0.250000      2.000000
  0.250000 -0.250000  0.250000      2.000000
 -0.250000 -0.250000  0.250000      2.000000
 
 Following cartesian coordinates:
            Coordinates               Weight
  0.016206  0.016206  0.016206      2.000000
 -0.016206  0.016206  0.016206      2.000000
  0.016206 -0.016206  0.016206      2.000000
 -0.016206 -0.016206  0.016206      2.000000
 


--------------------------------------------------------------------------------------------------------




 Dimension of arrays:
   k-points           NKPTS =      4   k-points in BZ     NKDIM =      4   number of bands    NBANDS=   1164
   number of dos      NEDOS =   3001   number of ions     NIONS =    257
   non local maximal  LDIM  =      6   non local SUM 2l+1 LMDIM =     18
   total plane-waves  NPLWV = ******
   max r-space proj   IRMAX =   7595   max aug-charges    IRDMAX= 146383
   dimension x,y,z NGX =   120 NGY =  120 NGZ =  120
   dimension x,y,z NGXF=   240 NGYF=  240 NGZF=  240
   support grid    NGXF=   480 NGYF=  480 NGZF=  480
   ions per type =               1  64  64 128
   NGX,Y,Z   is equivalent  to a cutoff of  12.93, 12.93, 12.93 a.u.
   NGXF,Y,Z  is equivalent  to a cutoff of  25.86, 25.86, 25.86 a.u.

 SYSTEM =  LTO                                     
 POSCAR =  config 39                               

 Startparameter for this run:
   NWRITE =      2    write-flag & timer
   PREC   = accura    normal or accurate (medium, high low for compatibility)
   ISTART =      1    job   : 0-new  1-cont  2-samecut
   ICHARG =      0    charge: 1-file 2-atom 10-const
   ISPIN  =      2    spin polarized calculation?
   LNONCOLLINEAR =      F non collinear calculations
   LSORBIT =      F    spin-orbit coupling
   INIWAV =      1    electr: 0-lowe 1-rand  2-diag
   LASPH  =      T    aspherical Exc in radial PAW
   METAGGA=      F    non-selfconsistent MetaGGA calc.

 Electronic Relaxation 1
   ENCUT  =  500.0 eV  36.75 Ry    6.06 a.u.  28.13 28.13 28.13*2*pi/ulx,y,z
   ENINI  =  500.0     initial cutoff
   ENAUG  =  628.9 eV  augmentation charge cutoff
   NELM   =     60;   NELMIN=  2; NELMDL=  0     # of ELM steps 
   EDIFF  = 0.1E-05   stopping-criterion for ELM
   LREAL  =      T    real-space projection
   NLSPLINE    = F    spline interpolate recip. space projectors
   LCOMPAT=      F    compatible to vasp.4.4
   GGA_COMPAT  = T    GGA compatible to vasp.4.4-vasp.4.6
   LMAXPAW     = -100 max onsite density
   LMAXMIX     =    4 max onsite mixed and CHGCAR
   VOSKOWN=      0    Vosko Wilk Nusair interpolation
   ROPT   =   -0.00010  -0.00010  -0.00010  -0.00010
 Ionic relaxation
   EDIFFG = -.5E-01   stopping-criterion for IOM
   NSW    =    100    number of steps for IOM
   NBLOCK =      1;   KBLOCK =    100    inner block; outer block 
   IBRION =      1    ionic relax: 0-MD 1-quasi-New 2-CG
   NFREE  =      0    steps in history (QN), initial steepest desc. (CG)
   ISIF   =      2    stress and relaxation
   IWAVPR =     11    prediction:  0-non 1-charg 2-wave 3-comb
   ISYM   =      0    0-nonsym 1-usesym 2-fastsym
   LCORR  =      T    Harris-Foulkes like correction to forces

   POTIM  = 0.5000    time-step for ionic-motion
   TEIN   =    0.0    initial temperature
   TEBEG  =    0.0;   TEEND  =   0.0 temperature during run
   SMASS  =  -3.00    Nose mass-parameter (am)
   estimated Nose-frequenzy (Omega)   =  0.10E-29 period in steps =****** mass=  -0.544E-26a.u.
   SCALEE = 1.0000    scale energy and forces
   NPACO  =    256;   APACO  = 16.0  distance and # of slots for P.C.
   PSTRESS=    0.0 pullay stress

  Mass of Ions in am
   POMASS =   7.01 47.88 16.00 19.00
  Ionic Valenz
   ZVAL   =   3.00 10.00  6.00  7.00
  Atomic Wigner-Seitz radii
   RWIGS  =  -1.00 -1.00 -1.00 -1.00
  virtual crystal weights 
   VCA    =   1.00  1.00  1.00  1.00
   NELECT =    1923.0000    total number of electrons
   NUPDOWN=       1.0000    fix difference up-down

 DOS related values:
   EMIN   =  10.00;   EMAX   =-10.00  energy-range for DOS
   EFERMI =   0.00
   ISMEAR =     0;   SIGMA  =   0.01  broadening in eV -4-tet -1-fermi 0-gaus

 Electronic relaxation 2 (details)
   IALGO  =     38    algorithm
   LDIAG  =      T    sub-space diagonalisation (order eigenvalues)
   LSUBROT=      F    optimize rotation matrix (better conditioning)
   TURBO    =      0    0=normal 1=particle mesh
   IRESTART =      0    0=no restart 2=restart with 2 vectors
   NREBOOT  =      0    no. of reboots
   NMIN     =      0    reboot dimension
   EREF     =   0.00    reference energy to select bands
   IMIX   =      4    mixing-type and parameters
     AMIX     =   0.40;   BMIX     =  1.00
     AMIX_MAG =   1.60;   BMIX_MAG =  1.00
     AMIN     =   0.10
     WC   =   100.;   INIMIX=   1;  MIXPRE=   1;  MAXMIX= -45

 Intra band minimization:
   WEIMIN = 0.0010     energy-eigenvalue tresh-hold
   EBREAK =  0.21E-09  absolut break condition
   DEPER  =   0.30     relativ break condition  

   TIME   =   0.40     timestep for ELM

  volume/ion in A,a.u.               =      14.28        96.39
  Fermi-wavevector in a.u.,A,eV,Ry     =   1.319690  2.493853 23.695660  1.741582
  Thomas-Fermi vector in A             =   2.449570
 
 Write flags
   LWAVE        =      T    write WAVECAR
   LDOWNSAMPLE  =      F    k-point downsampling of WAVECAR
   LCHARG       =      T    write CHGCAR
   LVTOT        =      F    write LOCPOT, total local potential
   LVHAR        =      F    write LOCPOT, Hartree potential only
   LELF         =      F    write electronic localiz. function (ELF)
   LORBIT       =     11    0 simple, 1 ext, 2 COOP (PROOUT), +10 PAW based schemes


 Dipole corrections
   LMONO  =      F    monopole corrections only (constant potential shift)
   LDIPOL =      F    correct potential (dipole corrections)
   IDIPOL =      0    1-x, 2-y, 3-z, 4-all directions 
   EPSILON=  1.0000000 bulk dielectric constant

 LDA+U is selected, type is set to LDAUTYPE =  2
   angular momentum for each species LDAUL =    -1    2   -1   -1
   U (eV)           for each species LDAUU =   0.0  4.2  0.0  0.0
   J (eV)           for each species LDAUJ =   0.0  0.0  0.0  0.0
 Exchange correlation treatment:
   GGA     =    PS    GGA type
   LEXCH   =    14    internal setting for exchange type
   VOSKOWN=      0    Vosko Wilk Nusair interpolation
   LHFCALC =     F    Hartree Fock is set to
   LHFONE  =     F    Hartree Fock one center treatment
   AEXX    =    0.0000 exact exchange contribution

 Linear response parameters
   LEPSILON=     F    determine dielectric tensor
   LRPA    =     F    only Hartree local field effects (RPA)
   LNABLA  =     F    use nabla operator in PAW spheres
   LVEL    =     F    velocity operator in full k-point grid
   LINTERFAST=   F  fast interpolation
   KINTER  =     0    interpolate to denser k-point grid
   CSHIFT  =0.1000    complex shift for real part using Kramers Kronig
   OMEGAMAX=  -1.0    maximum frequency
   DEG_THRESHOLD= 0.2000000E-02 threshold for treating states as degnerate
   RTIME   =   -0.100 relaxation time in fs
  (WPLASMAI=    0.000 imaginary part of plasma frequency in eV, 0.658/RTIME)
   DFIELD  = 0.0000000 0.0000000 0.0000000 field for delta impulse in time
 
 Orbital magnetization related:
   ORBITALMAG=     F  switch on orbital magnetization
   LCHIMAG   =     F  perturbation theory with respect to B field
   DQ        =  0.001000  dq finite difference perturbation B field
   LLRAUG    =     F  two centre corrections for induced B field



--------------------------------------------------------------------------------------------------------


 quasi-Newton-method for relaxation of ions
 charge density and potential will be updated during run
 spin polarized calculation
 Variant of blocked Davidson
 Davidson routine will perform the subspace rotation
 perform sub-space diagonalisation
    after iterative eigenvector-optimisation
 modified Broyden-mixing scheme, WC =      100.0
 initial mixing is a Kerker type mixing with AMIX =  0.4000 and BMIX =      1.0000
 Hartree-type preconditioning will be used
 using additional bands          202
 real space projection scheme for non local part
 use partial core corrections
 calculate Harris-corrections to forces 
   (improved forces if not selfconsistent)
 use gradient corrections 
 use of overlap-Matrix (Vanderbilt PP)
 Gauss-broadening in eV      SIGMA  =   0.01


--------------------------------------------------------------------------------------------------------


  energy-cutoff  :      500.00
  volume of cell :     3671.03
      direct lattice vectors                 reciprocal lattice vectors
    15.426331000  0.000000000  0.000000000     0.064824228  0.000000000  0.000000000
     0.000000000 15.426331000  0.000000000     0.000000000  0.064824228  0.000000000
     0.000000000  0.000000000 15.426331000     0.000000000  0.000000000  0.064824228

  length of vectors
    15.426331000 15.426331000 15.426331000     0.064824228  0.064824228  0.064824228


 
 old parameters found on file WAVECAR:
  energy-cutoff  :      500.00
  volume of cell :     3671.03
      direct lattice vectors                 reciprocal lattice vectors
    15.426331000  0.000000000  0.000000000     0.064824228  0.000000000  0.000000000
     0.000000000 15.426331000  0.000000000     0.000000000  0.064824228  0.000000000
     0.000000000  0.000000000 15.426331000     0.000000000  0.000000000  0.064824228

  length of vectors

 
 k-points in units of 2pi/SCALE and weight: Title                                   
   0.01620606  0.01620606  0.01620606       0.250
  -0.01620606  0.01620606  0.01620606       0.250
   0.01620606 -0.01620606  0.01620606       0.250
  -0.01620606 -0.01620606  0.01620606       0.250
 
 k-points in reciprocal lattice and weights: Title                                   
   0.25000000  0.25000000  0.25000000       0.250
  -0.25000000  0.25000000  0.25000000       0.250
   0.25000000 -0.25000000  0.25000000       0.250
  -0.25000000 -0.25000000  0.25000000       0.250
 
 position of ions in fractional coordinates (direct lattice) 
   0.63239206  0.36775839  0.62220026
   0.99529424  0.99557661  0.99449614
   0.99962478  0.99228443  0.49339607
   0.00536135  0.49542011  0.99722115
   0.99547101  0.50306173  0.50782226
   0.49424370  0.99464296  0.99967438
   0.50305458  0.00772230  0.50014569
   0.50371419  0.49578861  0.99610918
   0.49102644  0.50025622  0.49457215
   0.00662099  0.00294997  0.25604151
   0.00133024  0.00784800  0.75655327
   0.99315843  0.49412883  0.25133339
   0.99336815  0.49923754  0.74159046
   0.50622225  0.00855094  0.25093555
   0.49328101  0.00427320  0.75146706
   0.49247352  0.49722518  0.25650469
   0.49963391  0.50547419  0.75878887
   0.99506979  0.25727793  0.00099324
   0.99832357  0.24806595  0.49146127
   0.99789727  0.75800426  0.00621424
   0.99764055  0.75691271  0.50590143
   0.49473598  0.25812257  0.99998185
   0.50700571  0.24613042  0.49986374
   0.50702634  0.75661936  0.99916935
   0.50681012  0.75359352  0.50911525
   0.99945830  0.25831434  0.25526408
   0.00672018  0.24248788  0.74723760
   0.00670170  0.74872781  0.24319255
   0.99273007  0.75086829  0.74326914
   0.50755235  0.24273446  0.25096230
   0.50657854  0.24202940  0.74839954
   0.50672164  0.75170449  0.25193366
   0.50142760  0.74300463  0.74330007
   0.25629498  0.99890484  0.00594393
   0.25117302  0.99431698  0.50629960
   0.24329694  0.50788395  0.99726454
   0.25403261  0.49491166  0.50682859
   0.75724776  0.00025392  0.99454032
   0.74976635  0.00642582  0.49470663
   0.74170115  0.50035106  0.00452558
   0.75679321  0.49687708  0.50546784
   0.24485748  0.00254310  0.24376887
   0.25765347  0.99842882  0.74412255
   0.25492225  0.49267970  0.25153522
   0.24654558  0.50649689  0.74102921
   0.74473390  0.99990963  0.25604654
   0.74788495  0.00527672  0.75612239
   0.75526452  0.49886561  0.24234931
   0.75754853  0.49725942  0.74221726
   0.25695431  0.25139738  0.00531525
   0.25304271  0.25704302  0.50524124
   0.25171870  0.74277608  0.99377588
   0.25201081  0.75560570  0.49300229
   0.75691560  0.25054293  0.00704660
   0.74106568  0.24267527  0.49986320
   0.74170677  0.74928586  0.99418714
   0.74185728  0.75199946  0.49446999
   0.25099008  0.25781048  0.24330828
   0.24452728  0.25183811  0.74373042
   0.24388303  0.74846919  0.25589997
   0.24791684  0.74231933  0.75677597
   0.74214927  0.25057280  0.24248175
   0.74392836  0.24153473  0.75035407
   0.74552670  0.74989664  0.25687099
   0.75725235  0.75002876  0.75659988
   0.01239860  0.50190128  0.62488845
   0.99499022  0.00608935  0.37613288
   0.99878525  0.00254482  0.87265407
   0.49784038  0.49578855  0.37492000
   0.49214700  0.49965580  0.87470955
   0.99824914  0.74583310  0.12574686
   0.00103881  0.74608832  0.62433909
   0.50075402  0.75730850  0.62522011
   0.99616979  0.24722979  0.37652074
   0.25374212  0.00361784  0.12525695
   0.25340417  0.00383993  0.62544828
   0.23598182  0.49578356  0.62583957
   0.74892597  0.49230692  0.12526467
   0.73616502  0.47832201  0.62441620
   0.75164018  0.99835559  0.37612021
   0.74713762  0.99732149  0.87330804
   0.24637109  0.24982128  0.12512441
   0.25488737  0.24999059  0.62540684
   0.74607310  0.25731178  0.12592497
   0.25455503  0.74689651  0.37472116
   0.25057403  0.75291095  0.87524878
   0.75179447  0.75010852  0.37455994
   0.74739427  0.75123050  0.87506821
   0.12393495  0.50335822  0.99247244
   0.62576703  0.50674844  0.99613597
   0.12532276  0.00258562  0.25263008
   0.62538248  0.99994878  0.24994286
   0.62899630  0.26997304  0.51920889
   0.62465292  0.74245578  0.00393811
   0.62482837  0.76226516  0.49685070
   0.12481098  0.25119711  0.74796140
   0.12531774  0.75252072  0.25166198
   0.62559648  0.24659014  0.25685357
   0.62613868  0.26224774  0.73077904
   0.62300225  0.75510967  0.25056582
   0.37595513  0.00051475  0.99320053
   0.37479242  0.50731352  0.50695084
   0.87301704  0.00266682  0.00077376
   0.87543343  0.50419309  0.50652885
   0.37659643  0.99802892  0.75582260
   0.37369561  0.49748743  0.24716798
   0.87511203  0.49913396  0.25085589
   0.87470042  0.50773354  0.73931082
   0.37568543  0.24790204  0.00012225
   0.87399875  0.24733341  0.00183052
   0.87466693  0.74326038  0.74993152
   0.51808818  0.11851850  0.49736841
   0.99615748  0.12620030  0.74319980
   0.49600797  0.12524910  0.26073206
   0.50633310  0.12345771  0.74792602
   0.50099544  0.62561484  0.74685208
   0.99934051  0.37531930  0.00390277
   0.00129782  0.87508465  0.00125887
   0.99611845  0.87499811  0.49833004
   0.50176284  0.37465143  0.00548803
   0.50393888  0.87531362  0.00186037
   0.00557567  0.37426880  0.24736361
   0.25464796  0.62527817  0.00167060
   0.73760233  0.12421076  0.50483273
   0.24895806  0.62485531  0.74996238
   0.74633778  0.12466795  0.74413135
   0.25147756  0.37380338  0.49405277
   0.25319407  0.87588632  0.49991458
   0.24246446  0.37491533  0.25584136
   0.00071857  0.00260755  0.12663270
   0.00486333  0.99748893  0.62364615
   0.00133007  0.50865354  0.12497827
   0.49526381  0.00534671  0.12627704
   0.49834295  0.98975865  0.62470049
   0.50388829  0.50741717  0.12689310
   0.51493479  0.49647899  0.62513950
   0.99934000  0.49594145  0.37674557
   0.99129404  0.49786539  0.87213742
   0.50235875  0.98948177  0.37571714
   0.51426391  0.00181089  0.87513646
   0.00565969  0.24585754  0.12713035
   0.99733439  0.25880703  0.62159896
   0.50542037  0.24011495  0.12551963
   0.48303053  0.24857297  0.62727771
   0.49548755  0.74775117  0.12689328
   0.99721664  0.25057782  0.87396686
   0.99435498  0.75032269  0.37523124
   0.00196709  0.75094542  0.87388052
   0.49600191  0.26489981  0.37221457
   0.50842427  0.25173995  0.87349309
   0.49352545  0.74981498  0.37571500
   0.49891894  0.74889141  0.87420210
   0.24271470  0.49503753  0.12453425
   0.74921725  0.00446121  0.12628765
   0.74680962  0.99486712  0.62358128
   0.25357712  0.00144164  0.37549278
   0.24423689  0.99497445  0.87438251
   0.24918110  0.51122249  0.37526323
   0.26060640  0.49795390  0.87335453
   0.74868821  0.50701071  0.37622865
   0.75437834  0.50611893  0.87256430
   0.25246256  0.75434363  0.12506323
   0.24908554  0.75147606  0.62525366
   0.76240880  0.26688205  0.62471544
   0.75300945  0.74677159  0.12588329
   0.74802512  0.74907699  0.62456362
   0.25063536  0.24440249  0.37407336
   0.24936266  0.25151522  0.87523704
   0.75424899  0.24278649  0.37516482
   0.74454125  0.24455872  0.87522424
   0.12594429  0.00191772  0.00100049
   0.12519761  0.00426233  0.49737464
   0.12316406  0.50055336  0.48950787
   0.62537753  0.00118627  0.00704935
   0.62563321  0.97683065  0.50203691
   0.62590703  0.48744165  0.49662329
   0.12694852  0.00158661  0.74844293
   0.12349289  0.50693292  0.25118983
   0.12287451  0.49423885  0.76520465
   0.62399410  0.99137047  0.74220054
   0.62529581  0.49790993  0.25211899
   0.62597841  0.49020307  0.75688022
   0.12462177  0.25040983  0.99517166
   0.12334406  0.24652895  0.50037551
   0.12494094  0.74561447  0.00145909
   0.12420286  0.75020508  0.49617161
   0.62603156  0.24998725  0.99800979
   0.12426530  0.23788899  0.25530818
   0.12319326  0.75324241  0.75042196
   0.62622881  0.75365284  0.74969704
   0.37781734  0.00911804  0.49760292
   0.37305584  0.49638793  0.00854073
   0.87458840  0.00824864  0.50924144
   0.87425152  0.49855870  0.00018398
   0.37699858  0.99695580  0.25458106
   0.37442602  0.49762284  0.73755376
   0.87411319  0.99928937  0.24614183
   0.87390974  0.99534667  0.74182812
   0.37735090  0.24195997  0.49309173
   0.37642028  0.75632981  0.00126836
   0.37711056  0.74048619  0.50261713
   0.87433888  0.24672759  0.50269551
   0.87214946  0.75384990  0.99819855
   0.87261948  0.74081514  0.50295660
   0.37745366  0.25671310  0.24645919
   0.37676015  0.24960269  0.75885027
   0.37700812  0.74769685  0.24782684
   0.37485640  0.75565387  0.74947968
   0.87397027  0.25429323  0.24750153
   0.87351733  0.25241071  0.75122710
   0.87357712  0.74639441  0.24955663
   0.00403217  0.12698920  0.00125296
   0.99925728  0.12562151  0.50950104
   0.99387014  0.62541327  0.99403065
   0.00303336  0.62639476  0.49257287
   0.50476207  0.12478739  0.99734287
   0.49018395  0.62740119  0.00114529
   0.51109889  0.62649927  0.50112790
   0.99233277  0.12775027  0.24640250
   0.99965039  0.62352849  0.25763531
   0.00962473  0.62436611  0.75561587
   0.50255370  0.62601223  0.25281549
   0.00085003  0.37424916  0.49862157
   0.49306535  0.37669174  0.51032970
   0.48540094  0.87558296  0.49467623
   0.99504110  0.37473368  0.75069249
   0.99473375  0.87595098  0.25123544
   0.99985031  0.87589807  0.74750329
   0.50295134  0.37286332  0.23809983
   0.49787393  0.37459161  0.74427447
   0.49519288  0.87578838  0.24726464
   0.50206993  0.87467102  0.75809615
   0.24565656  0.12498448  0.99312953
   0.24839478  0.12488022  0.49684318
   0.24430027  0.62665018  0.50492063
   0.74284331  0.12584255  0.00053622
   0.76061050  0.62518644  0.00223929
   0.74131490  0.62386379  0.50657731
   0.25907519  0.12677532  0.25354782
   0.25202288  0.12495513  0.75758218
   0.25018861  0.62394302  0.24142575
   0.75819528  0.12574665  0.24933795
   0.74488075  0.62469625  0.24759329
   0.73878816  0.62333052  0.74276459
   0.24890271  0.37635255  0.99754992
   0.24547662  0.87409146  0.00328199
   0.74883929  0.37491758  0.98751351
   0.76146242  0.37259053  0.48517239
   0.74633886  0.87458914  0.00872909
   0.76452058  0.87521168  0.50336167
   0.25349699  0.37631756  0.75598909
   0.25498912  0.87577092  0.25103656
   0.24615440  0.87399884  0.74640119
   0.74942185  0.37417647  0.26428161
   0.75562910  0.37363805  0.76243840
   0.75554003  0.87473930  0.24288516
   0.75190979  0.87438868  0.74416772
 
 position of ions in cartesian coordinates  (Angst):
   9.75548922  5.67316267  9.59826721
  15.35373832 15.35809429 15.34142661
  15.42054277 15.30730802  7.61129109
   0.08270598  7.64251459 15.38346362
  15.35646533  7.76039674  7.83383424
   7.62436689 15.34369158 15.42130782
   7.76028652  0.11912679  7.71541294
   7.77046179  7.64819920 15.36630996
   7.57473643  7.71711806  7.62943364
   0.10213753  0.04550723  3.94978101
   0.02052075  0.12106583 11.67084116
  15.32079067  7.62259496  3.87715206
  15.32402593  7.70140361 11.44001991
   7.80915201  0.13190958  3.87101491
   7.60951607  0.06591972 11.59237962
   7.59705960  7.67036026  3.95692623
   7.70751808  7.79761210 11.70532826
  15.35027601  3.96885458  0.01532203
  15.40046978  3.82674743  7.58144419
  15.39389364 11.69322458  0.09586295
  15.38993333 11.67638593  7.80420287
   7.63196099  3.98188415 15.42605098
   7.82123785  3.79688929  7.71106355
   7.82155611 11.67186069 15.41351717
   7.81822059 11.62518303  7.85378041
  15.41797462  3.98484250  3.93778815
   0.10366769  3.74069824 11.52713458
   0.10338261 11.55012305  3.75156879
  15.31418261 11.58314280 11.46591583
   7.82967048  3.74450210  3.87142757
   7.81464825  3.73362568 11.54505896
   7.81685569 11.59604235  3.88641196
   7.73518817 11.46183539 11.46639296
   3.95369124 15.40943673  0.09169307
   3.87467813 15.33866278  7.81034518
   3.75317911  7.83478591 15.38413285
   3.91879114  7.63467113  7.81850557
  11.68155456  0.00391709 15.34210811
  11.56614384  0.09912680  7.63150829
  11.44172743  7.71858110  0.06981304
  11.67454262  7.66499033  7.79751415
   3.77725247  0.03923068  3.76045923
   3.97464768 15.40209350 11.47908073
   3.93251500  7.60024014  3.88026552
   3.80329369  7.81338871 11.43136186
  11.48851166 15.42493685  3.94985861
  11.53712076  0.08140040 11.66419420
  11.65096054  7.69566598  3.73856061
  11.68619440  7.67088836 11.44968907
   3.96386218  3.87813926  0.08199475
   3.90352065  3.96523067  7.79401863
   3.88309599 11.45830961 15.33031568
   3.88760224 11.65622359  7.60521655
  11.67643057  3.86495817  0.10870323
  11.43192444  3.74358905  7.71105522
  11.44181412 11.55873167 15.33665988
  11.44413601 11.60059254  7.62785777
   3.87185605  3.97706988  3.75335410
   3.77215883  3.88493802 11.47303160
   3.76222041 11.54613342  3.94759764
   3.82444731 11.45126367 11.67427667
  11.44864035  3.86541902  3.74060381
  11.47608519  3.72599464 11.57521027
  11.50074160 11.56815377  3.96257696
  11.68162545 11.57019190 11.67156013
   0.19126493  7.74249524  9.63973605
  15.34904854  0.09393630  5.80235038
  15.40759189  0.03925731 13.46185051
   7.67985041  7.64819830  5.78363998
   7.59202252  7.70785575 13.49355912
  15.39932161 11.50546830  1.93981271
   0.01602510 11.50940535  9.63126139
   7.72479727 11.68249154  9.64485231
  15.36724497  3.81384851  5.80833356
   3.91430997  0.05581007  1.93225518
   3.90909658  0.05923599  9.64837214
   3.64033363  7.64812127  9.65440830
  11.55317992  7.59448957  1.93237419
  11.35632528  7.37875370  9.63245105
  11.59505024 15.40096376  5.80215482
  11.52559226 15.38501137 13.47193889
   3.80060200  3.85382574  1.93021058
   3.93197697  3.85643754  9.64773287
  11.50917053  3.96937671  1.94256029
   3.92685008 11.52187279  5.78057260
   3.86543794 11.61465351 13.50187734
  11.59743037 11.57142231  5.77808556
  11.52955142 11.58873041 13.49909182
   1.91186156  7.76497056 15.31020836
   9.65328929  7.81726918 15.36672315
   1.93327039  0.03988658  3.89715518
   9.64735713 15.42554092  3.85570125
   9.70310517  4.16469340  8.00948814
   9.63610268 11.45336856  0.06075062
   9.63880931 11.75895463  7.66458336
   1.92537546  3.87504974 11.53830007
   1.93319291 11.60863364  3.88222097
   9.65065840  3.80398115  3.96230814
   9.65902248  4.04552042 11.27323939
   9.61063899 11.64857174  3.86531133
   5.79960820  0.00794073 15.32144012
   5.78167190  7.82598631  7.82039149
  13.46744982  0.04113926  0.01193630
  13.50472580  7.77784944  7.81388176
   5.80950124 15.39592447 11.65956953
   5.76475217  7.67440584  3.81289506
  13.49976788  7.69980561  3.86978606
  13.49341823  7.83246559 11.40485337
   5.79544781  3.82421888  0.00188589
  13.48259407  3.81544702  0.02823821
  13.49290154 11.46578068 11.56869191
   7.99219972  1.82830564  7.67256974
  15.36705505  1.94680758 11.46484609
   7.65158309  1.93213402  4.02213904
   7.81086204  1.90449950 11.53775434
   7.72852156  9.65094167 11.52118738
  15.41615746  5.78979970  0.06020539
   0.02002058 13.49934545  0.01941973
  15.36645293 13.49801044  7.68740420
   7.74035969  5.77949701  0.08466021
   7.77392795 13.50287759  0.02869864
   0.08601220  5.77359444  3.81591286
   3.92828366  9.64574796  0.02577128
  11.37849768  1.91611626  7.78771672
   3.84050949  9.63922480 11.56916784
  11.51325356  1.92316903 11.47921656
   3.87937610  5.76641467  7.62142158
   3.90585553 13.51171231  7.71184781
   3.74033698  5.78356801  3.94669351
   0.01108489  0.04022499  1.95347787
   0.07502341 15.38759441  9.62057197
   0.02051803  7.84665787  1.92795617
   7.64010339  0.08248011  1.94799144
   7.68760337 15.26834452  9.63683647
   7.77314752  7.82758519  1.95749503
   7.94355447  7.65884926  9.64360883
  15.41614963  7.65055697  5.81180181
  15.29202994  7.68023637 13.45388056
   7.74955237 15.26407335  5.79593691
   7.93320522  0.02793546 13.50014463
   0.08730827  3.79267974  1.96115485
  15.38521036  3.99244292  9.58899132
   7.79678199  3.70409267  1.93630738
   7.45138878  3.83456888  9.67659361
   7.64355497 11.53505703  1.95749768
  15.38339399  3.86549645 13.48210203
  15.33924911 11.57472621  5.78844128
   0.03034494 11.58433265 13.48077020
   7.65148971  4.08643214  5.74190520
   7.84312104  3.88342386 13.47479359
   7.61328688 11.56689403  5.79590397
   7.69648873 11.55264679 13.48573097
   3.74419735  7.63661285  1.92110659
  11.55767335  0.06882007  1.94815516
  11.52053235 15.34714951  9.61957129
   3.91176454  0.02223918  5.79247591
   3.76767906 15.34880522 13.48851404
   3.84395018  7.88628738  5.78893479
   4.02020060  7.68160172 13.47265606
  11.54951210  7.82131507  5.80382764
  11.63728995  7.80755820 13.46046568
   3.89457101 11.63675445  1.92926681
   3.84247598 11.59251839  9.64536990
  11.76117049  4.11701083  9.63706713
  11.61617303 11.51994573  1.94191735
  11.53928310 11.55550966  9.63472518
   3.86638408  3.77023375  5.77057951
   3.84675092  3.87995696 13.50169633
  11.63529457  3.74530479  5.78741664
  11.48553974  3.77264370 13.50149888
   1.94285832  0.02958333  0.01543384
   1.93133975  0.06575216  7.67266589
   1.89996950  7.72170177  7.55131048
   9.64728075  0.01829976  0.10874563
   9.65122497 15.06891287  7.74458758
   9.65544904  7.51943622  7.66107524
   1.95834982  0.02447553 11.54572838
   1.90504212  7.82011508  3.87493739
   1.89550280  7.62429206 11.80430022
   9.62593954 15.29320896 11.44943115
   9.64602008  7.68092334  3.88927099
   9.65655012  7.56203486 11.67588485
   1.92245675  3.86290485 15.35184742
   1.90274626  3.80303718  7.71895817
   1.92738023 11.50209558  0.02250841
   1.91599444 11.57291183  7.65410755
   9.65736999  3.85638609 15.39562933
   1.91695766  3.66975423  3.93846847
   1.90041996 11.61976671 11.57625753
   9.66041287 11.62609820 11.56507472
   5.82833535  0.14065794  7.67618733
   5.75488284  7.65744456  0.13175211
  13.49169015  0.12724620  7.85572699
  13.48649326  7.69093151  0.00283807
   5.81570489 15.37937023  3.92725168
   5.77601979  7.67649464 11.37774846
  13.48435945 15.41536852  3.79706536
  13.48122095 15.35454720 11.44368620
   5.82113994  3.73255462  7.60659627
   5.80678378 11.66739403  0.01956608
   5.81743237 11.42298511  7.75353819
  13.48784093  3.80610149  7.75474735
  13.45406621 11.62913809 15.39854126
  13.46131686 11.42805964  7.75877493
   5.82272513  3.96014125  3.80196107
   5.81202677  3.85045374 11.70627540
   5.81585200 11.53421910  3.82305887
   5.78265895 11.65696666 11.56172155
  13.48215461  3.92281150  3.81804051
  13.47516741  3.89377115 11.58867794
  13.47608986 11.51412729  3.84974318
   0.06220153  1.95897750  0.01932855
  15.41487351  1.93787894  7.85973176
  15.33176981  9.64783219 15.33424585
   0.04679357  9.66297288  7.59859214
   7.78662684  1.92501152 15.38534127
   7.56173981  9.67849837  0.01766758
   7.88438062  9.66458505  7.73056485
  15.30805379  1.97071797  3.80108652
  15.42093786  9.61875695  3.97436759
   0.14847420  9.63167834 11.65638050
   7.75255979  9.65707193  3.90001540
   0.01311285  5.77329134  7.69190141
   7.60618924  5.81097143  7.87251489
   7.48795561 13.50703259  7.63103926
  15.34983332  5.78076582 11.58043086
  15.34509210 13.51270982  3.87564113
  15.42402176 13.51189361 11.53123310
   7.75869388  5.75191305  3.67300686
   7.68036809  5.77857421 11.48142440
   7.63900928 13.51020147  3.81438624
   7.74509689 13.49296461 11.69464214
   3.78957939  1.92805203 15.32034488
   3.83182011  1.92644367  7.66446730
   3.76865680  9.66691303  7.78907278
  11.45934677  1.94128878  0.00827184
  11.73342939  9.64433300  0.03454397
  11.43576902  9.62392938  7.81462920
   3.99657956  1.95567810  3.91131266
   3.88778843  1.92759925 11.68671352
   3.85949230  9.62515150  3.72431347
  11.69617133  1.93980938  3.84636971
  11.49077696  9.63677108  3.81945612
  11.39679062  9.61570298 11.45813237
   3.83965566  5.80573903 15.38853527
   3.78680362 13.48402413  0.05062905
  11.55184279  5.78360265 15.23371023
  11.74657128  5.74770482  7.48442988
  11.51327034 13.49170149  0.13465776
  11.79374749 13.50130515  7.76502371
   3.91052853  5.80519922 11.66213794
   3.93354662 13.50993204  3.87257303
   3.79725930 13.48259536 11.51423184
  11.56082947  5.77217000  4.07689554
  11.65658465  5.76386423 11.76162713
  11.65521053 13.49401803  3.74682691
  11.59920930 13.48860925 11.47977752
 


--------------------------------------------------------------------------------------------------------


 k-point  1 :   0.2500 0.2500 0.2500  plane waves:   93161
 k-point  2 :  -0.2500 0.2500 0.2500  plane waves:   93161
 k-point  3 :   0.2500-0.2500 0.2500  plane waves:   93161
 k-point  4 :  -0.2500-0.2500 0.2500  plane waves:   93161

 maximum and minimum number of plane-waves per node :     11686    11606

 maximum number of plane-waves:     93161
 maximum index in each direction: 
   IXMAX=   28   IYMAX=   28   IZMAX=   27
   IXMIN=  -28   IYMIN=  -28   IZMIN=  -28


 real space projection operators:
  total allocation   :     105579.59 KBytes
  max/ min on nodes  :      13236.16      13164.88


 parallel 3D FFT for wavefunctions:
    minimum data exchange during FFTs selected (reduces bandwidth)
 parallel 3D FFT for charge:
    minimum data exchange during FFTs selected (reduces bandwidth)


 total amount of memory used by VASP MPI-rank0   291475. kBytes
=======================================================================

   base      :      30000. kBytes
   nonlr-proj:      49440. kBytes
   fftplans  :      27976. kBytes
   grid      :      34041. kBytes
   one-center:       1026. kBytes
   wavefun   :     148992. kBytes
 
     INWAV:  cpu time   58.5093: real time   60.8622
 Broyden mixing: mesh for mixing (old mesh)
   NGX = 57   NGY = 57   NGZ = 57
  (NGX  =240   NGY  =240   NGZ  =240)
  gives a total of 185193 points

 charge density for first step will be calculated from the start-wavefunctions


--------------------------------------------------------------------------------------------------------


 Maximum index for non-local projection operator          968
 Maximum index for augmentation-charges         3294 (set IRDMAX)


--------------------------------------------------------------------------------------------------------


 initial charge from wavefunction
 First call to EWALD:  gamma=   0.115
 Maximum number of real-space cells 3x 3x 3
 Maximum number of reciprocal cells 3x 3x 3

    FEWALD:  cpu time    0.0285: real time    0.0285


--------------------------------------- Iteration      1(   1)  ---------------------------------------


    POTLOK:  cpu time    0.3213: real time    0.3310
    SETDIJ:  cpu time    1.4261: real time    1.4445
     EDDAV:  cpu time  138.0304: real time  138.6806
       DOS:  cpu time    0.0020: real time    0.0020
    CHARGE:  cpu time    5.2739: real time    5.2776
    MIXING:  cpu time    0.0078: real time    0.0079
    --------------------------------------------
      LOOP:  cpu time  145.0616: real time  145.7437

 eigenvalue-minimisations  : 23712
 total energy-change (2. order) :-0.1757962E+04  (-0.9918971E-06)
 number of electron    1923.0000027 magnetization       1.0000000
 augmentation part      497.0100491 magnetization       0.5914563

 Broyden mixing:
  rms(total) = 0.66795E-03    rms(broyden)= 0.64986E-03
  rms(prec ) = 0.82324E-03
  weight for this iteration     100.00

 Free energy of the ion-electron system (eV)
  ---------------------------------------------------
  alpha Z        PSCENC =      6118.73324990
  Ewald energy   TEWEN  =   -103233.33984463
  -Hartree energ DENC   =    -65394.68155017
  -exchange      EXHF   =         0.00000000
  -V(xc)+E(xc)   XCENC  =      8970.77467221
  PAW double counting   =    198127.40977478  -199134.10030409
  entropy T*S    EENTRO =        -0.00000000
  eigenvalues    EBANDS =    -25790.01057988
  atomic energy  EATOM  =    178577.25249613
  Solvation  Ediel_sol  =         0.00000000
  ---------------------------------------------------
  free energy    TOTEN  =     -1757.96208574 eV

  energy without entropy =    -1757.96208574  energy(sigma->0) =    -1757.96208574


--------------------------------------------------------------------------------------------------------




--------------------------------------- Iteration      1(   2)  ---------------------------------------


    POTLOK:  cpu time    0.2607: real time    0.2632
    SETDIJ:  cpu time    1.3748: real time    1.3755
     EDDAV:  cpu time  141.9433: real time  143.0451
       DOS:  cpu time    0.0019: real time    0.0019
    CHARGE:  cpu time    5.2904: real time    5.2941
    MIXING:  cpu time    0.0125: real time    0.0125
    --------------------------------------------
      LOOP:  cpu time  148.8836: real time  149.9923

 eigenvalue-minimisations  : 24720
 total energy-change (2. order) :-0.5849870E-08  (-0.1288833E-05)
 number of electron    1923.0000027 magnetization       1.0000000
 augmentation part      497.0094037 magnetization       0.5914637

 Broyden mixing:
  rms(total) = 0.73529E-03    rms(broyden)= 0.71887E-03
  rms(prec ) = 0.82413E-03
  weight for this iteration     100.00

 eigenvalues of (default mixing * dielectric matrix)
  average eigenvalue GAMMA=   0.4694
  0.4694

 Free energy of the ion-electron system (eV)
  ---------------------------------------------------
  alpha Z        PSCENC =      6118.73324990
  Ewald energy   TEWEN  =   -103233.33984463
  -Hartree energ DENC   =    -65394.69534574
  -exchange      EXHF   =         0.00000000
  -V(xc)+E(xc)   XCENC  =      8970.77413532
  PAW double counting   =    198127.31851154  -199134.00658341
  entropy T*S    EENTRO =        -0.00000000
  eigenvalues    EBANDS =    -25789.99870485
  atomic energy  EATOM  =    178577.25249613
  Solvation  Ediel_sol  =         0.00000000
  ---------------------------------------------------
  free energy    TOTEN  =     -1757.96208574 eV

  energy without entropy =    -1757.96208574  energy(sigma->0) =    -1757.96208574


--------------------------------------------------------------------------------------------------------




--------------------------------------- Iteration      1(   3)  ---------------------------------------


    POTLOK:  cpu time    0.2689: real time    0.2720
    SETDIJ:  cpu time    1.4049: real time    1.4055
     EDDAV:  cpu time   88.8583: real time   89.5489
       DOS:  cpu time    0.0019: real time    0.0019
    --------------------------------------------
      LOOP:  cpu time   90.5339: real time   91.2282

 eigenvalue-minimisations  : 13164
 total energy-change (2. order) : 0.4356843E-06  (-0.1665453E-06)
 number of electron    1923.0000027 magnetization       1.0000000
 augmentation part      497.0094037 magnetization       0.5914637

 Free energy of the ion-electron system (eV)
  ---------------------------------------------------
  alpha Z        PSCENC =      6118.73324990
  Ewald energy   TEWEN  =   -103233.33984463
  -Hartree energ DENC   =    -65394.69787561
  -exchange      EXHF   =         0.00000000
  -V(xc)+E(xc)   XCENC  =      8970.77455637
  PAW double counting   =    198127.31763012  -199134.00647348
  entropy T*S    EENTRO =        -0.00000000
  eigenvalues    EBANDS =    -25789.99582411
  atomic energy  EATOM  =    178577.25249613
  Solvation  Ediel_sol  =         0.00000000
  ---------------------------------------------------
  free energy    TOTEN  =     -1757.96208531 eV

  energy without entropy =    -1757.96208531  energy(sigma->0) =    -1757.96208531


--------------------------------------------------------------------------------------------------------




 average (electrostatic) potential at core
  the test charge radii are     0.7079  1.0397  0.7215  0.7167
  (the norm of the test charge is              1.0000)
       1 -63.6488       2 -58.4321       3 -58.8044       4 -58.7776       5 -58.9804
       6 -58.7891       7 -58.9431       8 -58.4717       9 -58.6078      10 -58.8492
      11 -58.5958      12 -58.9422      13 -58.9702      14 -58.9925      15 -58.8944
      16 -58.7543      17 -58.6458      18 -58.8319      19 -59.4994      20 -58.5831
      21 -58.8596      22 -58.6140      23 -57.0659      24 -58.8097      25 -58.8425
      26 -59.1025      27 -58.6888      28 -58.6749      29 -58.8699      30 -58.9851
      31 -58.9705      32 -59.4368      33 -58.7939      34 -58.7809      35 -58.8255
      36 -58.6925      37 -58.4153      38 -58.6971      39 -59.0507      40 -58.7072
      41 -59.0436      42 -58.7990      43 -58.8524      44 -58.7366      45 -58.6106
      46 -59.0702      47 -58.8563      48 -58.8564      49 -58.9917      50 -58.7280
      51 -58.6703      52 -58.6710      53 -58.7917      54 -58.8654      55 -58.9363
      56 -58.8556      57 -59.0102      58 -58.7384      59 -58.7500      60 -58.7412
      61 -58.7079      62 -58.9411      63 -58.9495      64 -59.1344      65 -58.8833
      66 -74.2482      67 -73.9740      68 -73.8045      69 -73.8879      70 -73.8451
      71 -73.8499      72 -74.0022      73 -74.2146      74 -74.5597      75 -73.9287
      76 -73.9854      77 -73.9102      78 -74.0148      79 -74.0704      80 -74.1976
      81 -74.0253      82 -73.9017      83 -73.8809      84 -74.3039      85 -73.9154
      86 -73.8764      87 -74.2009      88 -74.0779      89 -73.8736      90 -73.8321
      91 -73.9914      92 -74.1652      93 -74.1358      94 -74.1403      95 -74.2396
      96 -73.9546      97 -73.9452      98 -74.3254      99 -74.0603     100 -74.3336
     101 -73.9198     102 -73.8303     103 -73.8366     104 -74.1198     105 -74.1991
     106 -73.9360     107 -74.0491     108 -74.2630     109 -73.8816     110 -74.0110
     111 -74.1859     112 -74.2997     113 -74.0465     114 -74.3466     115 -74.1195
     116 -73.9879     117 -73.9087     118 -73.7467     119 -74.2204     120 -73.8115
     121 -73.9540     122 -74.3084     123 -73.9988     124 -74.3613     125 -74.0117
     126 -74.2533     127 -73.8022     128 -73.9383     129 -74.0561     130 -78.3537
     131 -78.3517     132 -79.1363     133 -79.5227     134 -79.5969     135 -78.3580
     136 -78.3526     137 -79.0125     138 -78.9701     139 -79.6192     140 -79.4528
     141 -79.1351     142 -79.0992     143 -79.4117     144 -79.2084     145 -79.3766
     146 -79.1760     147 -78.3789     148 -78.3738     149 -79.2865     150 -79.4063
     151 -79.2191     152 -79.0762     153 -78.9989     154 -78.5426     155 -78.5466
     156 -78.3961     157 -78.3738     158 -78.7965     159 -78.7761     160 -78.4873
     161 -78.5055     162 -78.3718     163 -78.3166     164 -79.4167     165 -78.5342
     166 -78.5869     167 -78.3454     168 -78.3426     169 -79.1812     170 -79.1560
     171 -78.3241     172 -79.4295     173 -78.4691     174 -78.2765     175 -79.6224
     176 -78.4064     177 -78.9329     178 -78.4239     179 -78.9463     180 -79.0076
     181 -78.4488     182 -78.9563     183 -78.3783     184 -79.4186     185 -79.0272
     186 -79.1466     187 -78.3779     188 -79.2785     189 -78.9909     190 -79.0160
     191 -79.5261     192 -78.2940     193 -79.5158     194 -78.2504     195 -78.5228
     196 -79.0835     197 -78.4826     198 -79.1169     199 -79.0354     200 -78.9256
     201 -79.0120     202 -79.3361     203 -78.8749     204 -79.0253     205 -79.0511
     206 -78.4481     207 -78.5289     208 -79.1745     209 -79.2002     210 -78.5149
     211 -78.6205     212 -78.2875     213 -79.2936     214 -78.2914     215 -79.1477
     216 -78.3249     217 -78.3513     218 -79.2730     219 -79.0039     220 -79.0010
     221 -79.2353     222 -79.3598     223 -79.4630     224 -78.9338     225 -79.0534
     226 -79.0627     227 -79.1136     228 -78.9883     229 -79.0598     230 -78.5238
     231 -79.2660     232 -78.5267     233 -79.0321     234 -78.3152     235 -78.3357
     236 -79.3668     237 -79.3743     238 -79.3226     239 -78.9270     240 -79.0957
     241 -78.8919     242 -79.5619     243 -79.5603     244 -79.3139     245 -78.8223
     246 -78.8581     247 -79.3851     248 -79.1299     249 -79.3691     250 -79.1181
     251 -78.8949     252 -79.0841     253 -78.9156     254 -79.5555     255 -79.1095
     256 -79.5775     257 -79.0824
 
 
 
 E-fermi :  -0.7061     XC(G=0):  -9.0423     alpha+bet : -7.7421


 spin component 1

 k-point     1 :       0.2500    0.2500    0.2500
  band No.  band energies     occupation 
      1     -44.3035      1.00000
      2     -35.4864      1.00000
      3     -35.4747      1.00000
      4     -35.4211      1.00000
      5     -35.4044      1.00000
      6     -35.3317      1.00000
      7     -35.2102      1.00000
      8     -35.1885      1.00000
      9     -35.1225      1.00000
     10     -35.1056      1.00000
     11     -35.0976      1.00000
     12     -35.0919      1.00000
     13     -35.0660      1.00000
     14     -35.0621      1.00000
     15     -35.0405      1.00000
     16     -35.0306      1.00000
     17     -35.0273      1.00000
     18     -35.0215      1.00000
     19     -35.0175      1.00000
     20     -35.0130      1.00000
     21     -35.0087      1.00000
     22     -35.0030      1.00000
     23     -34.9993      1.00000
     24     -34.9930      1.00000
     25     -34.9758      1.00000
     26     -34.9722      1.00000
     27     -34.9557      1.00000
     28     -34.9542      1.00000
     29     -34.9483      1.00000
     30     -34.9470      1.00000
     31     -34.9415      1.00000
     32     -34.9370      1.00000
     33     -34.9284      1.00000
     34     -34.9248      1.00000
     35     -34.9101      1.00000
     36     -34.9094      1.00000
     37     -34.9077      1.00000
     38     -34.9072      1.00000
     39     -34.9070      1.00000
     40     -34.9063      1.00000
     41     -34.8995      1.00000
     42     -34.8942      1.00000
     43     -34.8935      1.00000
     44     -34.8849      1.00000
     45     -34.8808      1.00000
     46     -34.8746      1.00000
     47     -34.8739      1.00000
     48     -34.8706      1.00000
     49     -34.8664      1.00000
     50     -34.8662      1.00000
     51     -34.8658      1.00000
     52     -34.8648      1.00000
     53     -34.8554      1.00000
     54     -34.8534      1.00000
     55     -34.8512      1.00000
     56     -34.8512      1.00000
     57     -34.8485      1.00000
     58     -34.8472      1.00000
     59     -34.8456      1.00000
     60     -34.8405      1.00000
     61     -34.8389      1.00000
     62     -34.8371      1.00000
     63     -34.8362      1.00000
     64     -34.8352      1.00000
     65     -34.8324      1.00000
     66     -34.8311      1.00000
     67     -34.8269      1.00000
     68     -34.8227      1.00000
     69     -34.8221      1.00000
     70     -34.8217      1.00000
     71     -34.8207      1.00000
     72     -34.8159      1.00000
     73     -34.8064      1.00000
     74     -34.8015      1.00000
     75     -34.8002      1.00000
     76     -34.7985      1.00000
     77     -34.7980      1.00000
     78     -34.7885      1.00000
     79     -34.7878      1.00000
     80     -34.7768      1.00000
     81     -34.7767      1.00000
     82     -34.7751      1.00000
     83     -34.7723      1.00000
     84     -34.7712      1.00000
     85     -34.7703      1.00000
     86     -34.7670      1.00000
     87     -34.7595      1.00000
     88     -34.7580      1.00000
     89     -34.7553      1.00000
     90     -34.7516      1.00000
     91     -34.7490      1.00000
     92     -34.7437      1.00000
     93     -34.7431      1.00000
     94     -34.7421      1.00000
     95     -34.7411      1.00000
     96     -34.7387      1.00000
     97     -34.7370      1.00000
     98     -34.7327      1.00000
     99     -34.7279      1.00000
    100     -34.7200      1.00000
    101     -34.7144      1.00000
    102     -34.7131      1.00000
    103     -34.7125      1.00000
    104     -34.7115      1.00000
    105     -34.7099      1.00000
    106     -34.7074      1.00000
    107     -34.7060      1.00000
    108     -34.7021      1.00000
    109     -34.6999      1.00000
    110     -34.6985      1.00000
    111     -34.6912      1.00000
    112     -34.6884      1.00000
    113     -34.6861      1.00000
    114     -34.6853      1.00000
[...]
   81        1.574   3.460   0.000   5.034
   82        1.574   3.461   0.000   5.035
   83        1.574   3.459   0.000   5.032
   84        1.576   3.474   0.000   5.049
   85        1.575   3.463   0.000   5.038
   86        1.575   3.466   0.000   5.041
   87        1.575   3.462   0.000   5.038
   88        1.574   3.465   0.000   5.039
   89        1.575   3.462   0.000   5.036
   90        1.575   3.457   0.000   5.033
   91        1.574   3.460   0.000   5.034
   92        1.574   3.461   0.000   5.035
   93        1.570   3.484   0.000   5.054
   94        1.577   3.472   0.000   5.049
   95        1.576   3.473   0.000   5.049
   96        1.574   3.464   0.000   5.038
   97        1.575   3.465   0.000   5.040
   98        1.576   3.478   0.000   5.055
   99        1.568   3.464   0.000   5.032
  100        1.575   3.458   0.000   5.034
  101        1.574   3.459   0.000   5.033
  102        1.575   3.462   0.000   5.036
  103        1.576   3.459   0.000   5.035
  104        1.574   3.461   0.000   5.035
  105        1.576   3.471   0.000   5.048
  106        1.575   3.463   0.000   5.038
  107        1.575   3.463   0.000   5.038
  108        1.576   3.471   0.000   5.047
  109        1.574   3.462   0.000   5.036
  110        1.575   3.461   0.000   5.035
  111        1.576   3.473   0.000   5.049
  112        1.579   3.454   0.000   5.032
  113        1.576   3.474   0.000   5.051
  114        1.577   3.475   0.000   5.051
  115        1.574   3.464   0.000   5.038
  116        1.574   3.465   0.000   5.039
  117        1.575   3.461   0.000   5.036
  118        1.575   3.462   0.000   5.037
  119        1.576   3.476   0.000   5.052
  120        1.575   3.461   0.000   5.036
  121        1.575   3.464   0.000   5.038
  122        1.577   3.468   0.000   5.045
  123        1.577   3.474   0.000   5.051
  124        1.575   3.468   0.000   5.043
  125        1.576   3.474   0.000   5.050
  126        1.575   3.469   0.000   5.044
  127        1.574   3.458   0.000   5.033
  128        1.574   3.460   0.000   5.034
  129        1.576   3.470   0.000   5.046
  130        1.737   4.369   0.000   6.106
  131        1.737   4.370   0.000   6.107
  132        1.737   4.378   0.000   6.115
  133        1.738   4.387   0.000   6.126
  134        1.738   4.386   0.000   6.124
  135        1.737   4.370   0.000   6.107
  136        1.736   4.367   0.000   6.103
  137        1.738   4.380   0.000   6.118
  138        1.738   4.380   0.000   6.118
  139        1.739   4.390   0.000   6.129
  140        1.739   4.387   0.000   6.126
  141        1.738   4.380   0.000   6.118
  142        1.738   4.380   0.000   6.118
  143        1.738   4.387   0.000   6.126
  144        1.739   4.388   0.000   6.127
  145        1.738   4.383   0.000   6.121
  146        1.737   4.382   0.000   6.120
  147        1.737   4.369   0.000   6.106
  148        1.736   4.368   0.000   6.104
  149        1.739   4.387   0.000   6.126
  150        1.738   4.386   0.000   6.124
  151        1.738   4.376   0.000   6.114
  152        1.738   4.380   0.000   6.118
  153        1.737   4.381   0.000   6.118
  154        1.737   4.371   0.000   6.108
  155        1.737   4.372   0.000   6.110
  156        1.737   4.369   0.000   6.106
  157        1.737   4.368   0.000   6.105
  158        1.738   4.375   0.000   6.113
  159        1.738   4.375   0.000   6.113
  160        1.737   4.366   0.000   6.103
  161        1.736   4.368   0.000   6.105
  162        1.736   4.370   0.000   6.106
  163        1.736   4.367   0.000   6.103
  164        1.738   4.378   0.000   6.116
  165        1.737   4.369   0.000   6.106
  166        1.737   4.371   0.000   6.108
  167        1.737   4.370   0.000   6.106
  168        1.737   4.372   0.000   6.109
  169        1.738   4.377   0.000   6.115
  170        1.738   4.378   0.000   6.116
  171        1.737   4.370   0.000   6.107
  172        1.738   4.386   0.000   6.124
  173        1.738   4.372   0.000   6.109
  174        1.737   4.369   0.000   6.106
  175        1.739   4.382   0.000   6.121
  176        1.737   4.366   0.000   6.103
  177        1.738   4.380   0.000   6.117
  178        1.737   4.369   0.000   6.106
  179        1.738   4.376   0.000   6.113
  180        1.738   4.380   0.000   6.118
  181        1.736   4.369   0.000   6.106
  182        1.738   4.377   0.000   6.114
  183        1.737   4.369   0.000   6.106
  184        1.737   4.380   0.000   6.117
  185        1.737   4.382   0.000   6.120
  186        1.737   4.381   0.000   6.119
  187        1.737   4.372   0.000   6.109
  188        1.738   4.380   0.000   6.118
  189        1.738   4.382   0.000   6.120
  190        1.738   4.381   0.000   6.119
  191        1.738   4.388   0.000   6.126
  192        1.737   4.370   0.000   6.106
  193        1.738   4.386   0.000   6.125
  194        1.737   4.369   0.000   6.105
  195        1.737   4.371   0.000   6.108
  196        1.737   4.380   0.000   6.118
  197        1.737   4.370   0.000   6.107
  198        1.737   4.380   0.000   6.117
  199        1.738   4.387   0.000   6.124
  200        1.738   4.381   0.000   6.119
  201        1.738   4.379   0.000   6.117
  202        1.739   4.378   0.000   6.117
  203        1.738   4.381   0.000   6.119
  204        1.738   4.378   0.000   6.116
  205        1.737   4.379   0.000   6.116
  206        1.736   4.367   0.000   6.103
  207        1.737   4.369   0.000   6.106
  208        1.737   4.382   0.000   6.119
  209        1.738   4.379   0.000   6.116
  210        1.737   4.369   0.000   6.106
  211        1.737   4.371   0.000   6.108
  212        1.737   4.369   0.000   6.106
  213        1.739   4.376   0.000   6.115
  214        1.736   4.367   0.000   6.104
  215        1.739   4.380   0.000   6.119
  216        1.736   4.368   0.000   6.105
  217        1.737   4.368   0.000   6.105
  218        1.737   4.382   0.000   6.119
  219        1.738   4.379   0.000   6.117
  220        1.738   4.381   0.000   6.119
  221        1.738   4.381   0.000   6.119
  222        1.738   4.381   0.000   6.119
  223        1.737   4.381   0.000   6.118
  224        1.738   4.387   0.000   6.125
  225        1.739   4.380   0.000   6.119
  226        1.738   4.378   0.000   6.116
  227        1.737   4.380   0.000   6.117
  228        1.738   4.378   0.000   6.115
  229        1.738   4.379   0.000   6.117
  230        1.737   4.370   0.000   6.107
  231        1.738   4.377   0.000   6.115
  232        1.737   4.372   0.000   6.109
  233        1.738   4.381   0.000   6.119
  234        1.737   4.370   0.000   6.107
  235        1.737   4.370   0.000   6.107
  236        1.739   4.388   0.000   6.126
  237        1.739   4.387   0.000   6.126
  238        1.737   4.377   0.000   6.114
  239        1.738   4.378   0.000   6.116
  240        1.738   4.381   0.000   6.118
  241        1.738   4.378   0.000   6.116
  242        1.738   4.387   0.000   6.126
  243        1.738   4.388   0.000   6.126
  244        1.737   4.378   0.000   6.116
  245        1.738   4.379   0.000   6.117
  246        1.738   4.378   0.000   6.116
  247        1.738   4.385   0.000   6.124
  248        1.739   4.378   0.000   6.117
  249        1.738   4.386   0.000   6.124
  250        1.738   4.376   0.000   6.114
  251        1.738   4.380   0.000   6.118
  252        1.737   4.381   0.000   6.118
  253        1.738   4.379   0.000   6.117
  254        1.739   4.387   0.000   6.125
  255        1.739   4.378   0.000   6.117
  256        1.739   4.386   0.000   6.124
  257        1.738   4.380   0.000   6.118
--------------------------------------------------
tot        345.5321195.408 112.5371653.477
 


 magnetization (x)
 
# of ion       s       p       d       tot
------------------------------------------
    1       -0.000  -0.000   0.000  -0.000
    2        0.000   0.000   0.000   0.000
    3       -0.000  -0.000   0.000   0.000
    4        0.000   0.000  -0.000   0.000
    5       -0.000  -0.000   0.000   0.000
    6       -0.000  -0.000   0.000   0.000
    7        0.000   0.002   0.109   0.111
    8        0.000   0.000   0.000   0.000
    9        0.000   0.000   0.004   0.004
   10       -0.000  -0.000   0.000   0.000
   11       -0.000  -0.000  -0.000  -0.000
   12       -0.000  -0.000   0.000   0.000
   13        0.000  -0.000   0.000   0.000
   14        0.000   0.000   0.003   0.004
   15        0.000   0.000   0.004   0.004
   16        0.000   0.000   0.001   0.001
   17        0.000   0.000   0.000   0.000
   18        0.000   0.000   0.000   0.000
   19       -0.000  -0.000   0.000  -0.000
   20       -0.000   0.000   0.000   0.000
   21        0.000   0.000   0.000   0.000
   22        0.000   0.000   0.000   0.000
   23        0.005   0.007   0.866   0.877
   24        0.000   0.000   0.000   0.000
   25       -0.000  -0.000   0.000   0.000
   26        0.000  -0.000   0.000   0.000
   27        0.000  -0.000   0.000   0.000
   28       -0.000   0.000   0.000   0.000
   29       -0.000   0.000   0.000   0.000
   30        0.000   0.000   0.009   0.009
   31       -0.000   0.000   0.008   0.008
   32        0.000   0.000   0.000   0.000
   33        0.000   0.000   0.000   0.000
   34       -0.000   0.000   0.000   0.000
   35       -0.000  -0.000   0.000  -0.000
   36       -0.000  -0.000  -0.000  -0.000
   37       -0.000  -0.000   0.000   0.000
   38        0.000  -0.000   0.000   0.000
   39       -0.000  -0.000  -0.000  -0.000
   40       -0.000  -0.000   0.000   0.000
   41        0.000   0.000   0.000   0.000
   42       -0.000  -0.000   0.000   0.000
   43       -0.000  -0.000  -0.000  -0.000
   44       -0.000  -0.000  -0.000  -0.000
   45       -0.000  -0.000   0.000   0.000
   46       -0.000  -0.000  -0.000  -0.000
   47       -0.000  -0.000  -0.000  -0.000
   48       -0.000  -0.000   0.000   0.000
   49       -0.000  -0.000   0.000   0.000
   50       -0.000  -0.000   0.000   0.000
   51       -0.000  -0.000   0.000  -0.000
   52       -0.000   0.000   0.000   0.000
   53        0.000   0.000   0.000   0.000
   54        0.000  -0.000   0.000   0.000
   55       -0.000  -0.000   0.000  -0.000
   56       -0.000  -0.000   0.000   0.000
   57        0.000  -0.000   0.000   0.000
   58       -0.000  -0.000   0.000   0.000
   59       -0.000  -0.000   0.000   0.000
   60       -0.000   0.000   0.000   0.000
   61       -0.000  -0.000   0.000   0.000
   62       -0.000  -0.000   0.000   0.000
   63       -0.000  -0.000   0.000   0.000
   64       -0.000  -0.000   0.000  -0.000
   65       -0.000  -0.000   0.000   0.000
   66       -0.000  -0.000   0.000  -0.000
   67       -0.000  -0.000   0.000  -0.000
   68       -0.000  -0.000   0.000  -0.000
   69       -0.000  -0.000   0.000  -0.000
   70        0.000   0.000   0.000   0.000
   71       -0.000  -0.000   0.000  -0.000
   72       -0.000  -0.000   0.000  -0.000
   73       -0.000  -0.000   0.000  -0.000
   74       -0.000  -0.000   0.000  -0.000
   75       -0.000  -0.000   0.000  -0.000
   76       -0.000  -0.000   0.000  -0.000
   77       -0.000  -0.000   0.000  -0.000
   78       -0.000  -0.000   0.000  -0.000
   79       -0.000  -0.000   0.000  -0.000
   80       -0.000  -0.000   0.000  -0.000
   81       -0.000  -0.000   0.000  -0.000
   82       -0.000  -0.000   0.000  -0.000
   83       -0.000  -0.000   0.000  -0.000
   84       -0.000  -0.000   0.000  -0.000
   85       -0.000  -0.000   0.000  -0.000
   86       -0.000  -0.000   0.000  -0.000
   87       -0.000  -0.000   0.000  -0.000
   88       -0.000  -0.000   0.000  -0.000
   89       -0.000   0.000   0.000   0.000
   90       -0.000  -0.000   0.000  -0.000
   91       -0.000  -0.000   0.000  -0.000
   92       -0.000  -0.000   0.000  -0.000
   93       -0.001  -0.014   0.000  -0.015
   94       -0.000  -0.000   0.000  -0.000
   95       -0.000  -0.000   0.000  -0.000
   96       -0.000  -0.000   0.000  -0.000
   97       -0.000  -0.000   0.000  -0.000
   98       -0.000  -0.000   0.000  -0.000
   99       -0.000  -0.000   0.000  -0.000
  100       -0.000  -0.000   0.000  -0.000
  101       -0.000  -0.000   0.000  -0.000
  102       -0.000  -0.000   0.000  -0.000
  103       -0.000  -0.000   0.000  -0.000
  104       -0.000  -0.000   0.000  -0.000
  105       -0.000  -0.000   0.000  -0.000
  106       -0.000  -0.000   0.000  -0.000
  107       -0.000  -0.000   0.000  -0.000
  108       -0.000  -0.000   0.000  -0.000
  109       -0.000  -0.000   0.000  -0.000
  110       -0.000  -0.000   0.000  -0.000
  111        0.000  -0.000   0.000  -0.000
  112       -0.002  -0.050   0.000  -0.052
  113       -0.000   0.000   0.000  -0.000
  114       -0.000  -0.001   0.000  -0.002
  115       -0.000  -0.001   0.000  -0.001
  116        0.000  -0.000   0.000  -0.000
  117        0.000   0.000   0.000   0.000
  118       -0.000  -0.000   0.000  -0.000
  119        0.000  -0.000   0.000  -0.000
  120       -0.000  -0.000   0.000  -0.000
  121       -0.000  -0.000   0.000  -0.000
  122       -0.000  -0.000   0.000  -0.000
  123       -0.000   0.000   0.000   0.000
  124       -0.000  -0.000   0.000  -0.000
  125       -0.000   0.000   0.000   0.000
  126       -0.000  -0.000   0.000  -0.000
  127       -0.000  -0.000   0.000  -0.000
  128       -0.000  -0.000   0.000  -0.000
  129       -0.000  -0.000   0.000  -0.000
  130       -0.000  -0.000   0.000  -0.000
  131       -0.000  -0.000   0.000  -0.000
  132       -0.000   0.000   0.000  -0.000
  133       -0.000  -0.000   0.000  -0.000
  134       -0.000  -0.001   0.000  -0.001
  135       -0.000  -0.000   0.000  -0.000
  136        0.000   0.000   0.000   0.000
  137       -0.000  -0.000   0.000  -0.000
  138       -0.000  -0.000   0.000  -0.000
  139       -0.000  -0.000   0.000  -0.000
  140       -0.000  -0.000   0.000  -0.000
  141       -0.000  -0.000   0.000  -0.000
  142       -0.000  -0.000   0.000  -0.000
  143        0.000  -0.000   0.000  -0.000
  144       -0.000   0.002   0.000   0.001
  145        0.000   0.000   0.000   0.000
  146       -0.000  -0.000   0.000  -0.000
  147       -0.000  -0.000   0.000  -0.000
  148       -0.000  -0.000   0.000  -0.000
  149       -0.000   0.001   0.000   0.000
  150        0.000  -0.000   0.000  -0.000
  151        0.000  -0.000   0.000  -0.000
  152        0.000  -0.000   0.000  -0.000
  153       -0.000  -0.000   0.000  -0.000
  154       -0.000  -0.000   0.000  -0.000
  155       -0.000  -0.000   0.000  -0.000
  156       -0.000  -0.000   0.000  -0.000
  157       -0.000  -0.000   0.000  -0.000
  158       -0.000  -0.000   0.000  -0.000
  159       -0.000  -0.000   0.000  -0.000
  160       -0.000  -0.000   0.000  -0.000
  161        0.000  -0.000   0.000  -0.000
  162       -0.000  -0.000   0.000  -0.000
  163       -0.000  -0.000   0.000  -0.000
  164       -0.000  -0.000   0.000  -0.000
  165       -0.000  -0.000   0.000  -0.000
  166       -0.000  -0.000   0.000  -0.000
  167       -0.000  -0.000   0.000  -0.000
  168       -0.000  -0.000   0.000  -0.000
  169       -0.000  -0.000   0.000  -0.000
  170       -0.000  -0.000   0.000  -0.000
  171       -0.000  -0.000   0.000  -0.000
  172       -0.000  -0.000   0.000  -0.000
  173       -0.000  -0.000   0.000  -0.000
  174       -0.000  -0.000   0.000  -0.000
  175       -0.000  -0.001   0.000  -0.001
  176       -0.000  -0.000   0.000  -0.000
  177       -0.000  -0.000   0.000  -0.000
  178       -0.000  -0.000   0.000  -0.000
  179       -0.000  -0.000   0.000  -0.000
  180       -0.000  -0.000   0.000  -0.000
  181       -0.000  -0.000   0.000  -0.000
  182        0.000  -0.000   0.000  -0.000
  183       -0.000  -0.000   0.000  -0.000
  184       -0.000  -0.000   0.000  -0.000
  185        0.000  -0.000   0.000  -0.000
  186       -0.000  -0.000   0.000  -0.000
  187       -0.000  -0.000   0.000  -0.000
  188       -0.000  -0.000   0.000  -0.000
  189       -0.000  -0.000   0.000  -0.000
  190       -0.000  -0.000   0.000  -0.000
  191       -0.000  -0.001   0.000  -0.001
  192       -0.000  -0.000   0.000  -0.000
  193       -0.000  -0.000   0.000  -0.000
  194       -0.000  -0.000   0.000  -0.000
  195       -0.000  -0.000   0.000  -0.000
  196       -0.000  -0.000   0.000  -0.000
  197       -0.000  -0.000   0.000  -0.000
  198       -0.000  -0.000   0.000  -0.000
  199       -0.000  -0.005   0.000  -0.005
  200       -0.000  -0.000   0.000  -0.000
  201       -0.000  -0.000   0.000  -0.000
  202       -0.000  -0.000   0.000  -0.000
  203       -0.000  -0.000   0.000  -0.000
  204       -0.000  -0.000   0.000  -0.000
  205       -0.000  -0.000   0.000  -0.000
  206       -0.000  -0.000   0.000  -0.000
  207       -0.000  -0.000   0.000  -0.000
  208       -0.000  -0.000   0.000  -0.000
  209        0.000  -0.000   0.000  -0.000
  210        0.000  -0.000   0.000  -0.000
  211       -0.000  -0.000   0.000  -0.000
  212       -0.000  -0.000   0.000  -0.000
  213        0.000  -0.000   0.000  -0.000
  214       -0.000  -0.000   0.000  -0.000
  215       -0.000  -0.000   0.000  -0.000
  216       -0.000  -0.000   0.000  -0.000
  217        0.000   0.000   0.000   0.000
  218        0.000  -0.000   0.000  -0.000
  219       -0.000  -0.000   0.000  -0.000
  220       -0.000  -0.000   0.000  -0.000
  221       -0.000   0.000   0.000   0.000
  222       -0.000   0.000   0.000   0.000
  223       -0.000  -0.000   0.000  -0.000
  224       -0.000   0.002   0.000   0.001
  225       -0.000  -0.000   0.000  -0.001
  226       -0.000  -0.000   0.000  -0.000
  227        0.000   0.000   0.000   0.000
  228       -0.000  -0.000   0.000  -0.000
  229        0.000  -0.000   0.000  -0.000
  230        0.000   0.000   0.000   0.000
  231        0.000   0.000   0.000   0.000
  232       -0.000  -0.000   0.000  -0.000
  233       -0.000  -0.000   0.000  -0.000
  234       -0.000  -0.000   0.000  -0.000
  235       -0.000  -0.000   0.000  -0.000
  236       -0.000  -0.000   0.000  -0.000
  237       -0.000  -0.000   0.000  -0.000
  238       -0.000  -0.000   0.000  -0.000
  239       -0.000  -0.000   0.000  -0.000
  240       -0.000  -0.000   0.000  -0.000
  241       -0.000  -0.000   0.000  -0.000
  242       -0.000  -0.000   0.000  -0.000
  243       -0.000  -0.000   0.000  -0.000
  244        0.000   0.000   0.000   0.000
  245       -0.000  -0.000   0.000  -0.000
  246       -0.000  -0.000   0.000  -0.000
  247       -0.000  -0.000   0.000  -0.000
  248       -0.000  -0.000   0.000  -0.000
  249       -0.000  -0.000   0.000  -0.000
  250       -0.000  -0.000   0.000  -0.000
  251       -0.000  -0.000   0.000  -0.000
  252        0.000  -0.000   0.000  -0.000
  253       -0.000  -0.000   0.000  -0.000
  254       -0.000  -0.000   0.000  -0.000
  255       -0.000  -0.000   0.000  -0.000
  256       -0.000  -0.000   0.000  -0.000
  257        0.000  -0.000   0.000  -0.000
--------------------------------------------------
tot          0.001  -0.066   1.006   0.941
 

 total amount of memory used by VASP MPI-rank0   291475. kBytes
=======================================================================

   base      :      30000. kBytes
   nonlr-proj:      49440. kBytes
   fftplans  :      27976. kBytes
   grid      :      34041. kBytes
   one-center:       1026. kBytes
   wavefun   :     148992. kBytes
 
  
  
 General timing and accounting informations for this job:
 ========================================================
  
                  Total CPU time used (sec):     1005.371
                            User time (sec):      670.189
                          System time (sec):      335.182
                         Elapsed time (sec):     1036.315
  
                   Maximum memory used (kb):      621088.
                   Average memory used (kb):           0.
  
                          Minor page faults:        91616
                          Major page faults:            0
                 Voluntary context switches:        16975
