 vasp.5.4.4.18Apr17-6-g9f103f2a35 (build Jul 16 2019 12:12:28) complex          
  
 executed on             LinuxIFC date 2020.01.06  13:49:51
 running on   96 total cores
 distrk:  each k-point on   96 cores,    1 groups
 distr:  one band on NCORES_PER_BAND=   8 cores,   12 groups


--------------------------------------------------------------------------------------------------------


 INCAR:
 POTCAR:    PAW_PBE Li_sv 10Sep2004               
 POTCAR:    PAW_PBE Ti_pv 07Sep2000               
 POTCAR:    PAW_PBE O 08Apr2002                   
 POTCAR:    PAW_PBE F 08Apr2002                   
 POTCAR:    PAW_PBE Li_sv 10Sep2004               
   VRHFIN =Li: 1s2s2p                                                           
   LEXCH  = PE                                                                  
   EATOM  =   202.7858 eV,   14.9043 Ry                                         
                                                                                
   TITEL  = PAW_PBE Li_sv 10Sep2004                                             
   LULTRA =        F    use ultrasoft PP ?                                      
   IUNSCR =        0    unscreen: 0-lin 1-nonlin 2-no                           
   RPACOR =    0.000    partial core radius                                     
   POMASS =    7.010; ZVAL   =    3.000    mass and valenz                      
   RCORE  =    1.700    outmost cutoff radius                                   
   RWIGS  =    2.050; RWIGS  =    1.085    wigner-seitz radius (au A)           
   ENMAX  =  499.034; ENMIN  =  374.276 eV                                      
   ICORE  =        2    local potential                                         
   LCOR   =        T    correct aug charges                                     
   LPAW   =        T    paw PP                                                  
   EAUG   =  628.945                                                            
   RMAX   =    1.732    core radius for proj-oper                               
   RAUG   =    1.300    factor for augmentation sphere                          
   RDEP   =    1.728    radius for radial grids                                 
   RDEPT  =    1.329    core radius for aug-charge                              
                                                                                
   Atomic configuration                                                         
    4 entries                                                                   
     n  l   j            E        occ.                                          
     1  0  0.50       -51.8549   2.0000                                         
     2  0  0.50        -2.8742   1.0000                                         
     2  1  0.50        -1.3606   0.0000                                         
     3  2  1.50        -1.3606   0.0000                                         
   Description                                                                  
     l       E           TYP  RCUT    TYP  RCUT                                 
     0    -51.8548813     23  1.400                                             
     0     -2.8742052     23  1.700                                             
     1     -1.3605826     23  1.400                                             
     2     -1.3605826     23  1.400                                             
  local pseudopotential read in
  atomic valenz-charges read in
  non local Contribution for L=           0  read in
    real space projection operators read in
  non local Contribution for L=           0  read in
    real space projection operators read in
  non local Contribution for L=           1  read in
    real space projection operators read in
    PAW grid and wavefunctions read in
 
   number of l-projection  operators is LMAX  =           3
   number of lm-projection operators is LMMAX =           5
 
 POTCAR:    PAW_PBE Ti_pv 07Sep2000               
   VRHFIN =Ti: d3 s1                                                            
   LEXCH  = PE                                                                  
   EATOM  =  1042.5995 eV,   76.6289 Ry                                         
                                                                                
   TITEL  = PAW_PBE Ti_pv 07Sep2000                                             
   LULTRA =        F    use ultrasoft PP ?                                      
   IUNSCR =        1    unscreen: 0-lin 1-nonlin 2-no                           
   RPACOR =    2.200    partial core radius                                     
   POMASS =   47.880; ZVAL   =   10.000    mass and valenz                      
   RCORE  =    2.500    outmost cutoff radius                                   
   RWIGS  =    2.500; RWIGS  =    1.323    wigner-seitz radius (au A)           
   ENMAX  =  222.335; ENMIN  =  166.751 eV                                      
   RCLOC  =    1.701    cutoff for local pot                                    
   LCOR   =        T    correct aug charges                                     
   LPAW   =        T    paw PP                                                  
   EAUG   =  482.848                                                            
   DEXC   =    0.000                                                            
   RMAX   =    2.564    core radius for proj-oper                               
   RAUG   =    1.300    factor for augmentation sphere                          
   RDEP   =    2.538    radius for radial grids                                 
   RDEPT  =    1.952    core radius for aug-charge                              
                                                                                
   Atomic configuration                                                         
    8 entries                                                                   
     n  l   j            E        occ.                                          
     1  0  0.50     -4865.3608   2.0000                                         
     2  0  0.50      -533.1368   2.0000                                         
     2  1  1.50      -440.5031   6.0000                                         
     3  0  0.50       -59.3186   2.0000                                         
     3  1  1.50       -35.7012   6.0000                                         
     3  2  2.50        -1.9157   3.0000                                         
     4  0  0.50        -3.7291   1.0000                                         
     4  3  2.50        -1.3606   0.0000                                         
   Description                                                                  
     l       E           TYP  RCUT    TYP  RCUT                                 
     1    -35.7012140     23  2.300                                             
     1     -1.3605826     23  2.300                                             
     2     -1.9156996     23  2.500                                             
     2     -0.4063033     23  2.500                                             
     0     -3.7290856     23  2.500                                             
     0     20.4087390     23  2.500                                             
  local pseudopotential read in
  partial core-charges read in
  partial kinetic energy density read in
  atomic valenz-charges read in
  non local Contribution for L=           1  read in
    real space projection operators read in
  non local Contribution for L=           1  read in
    real space projection operators read in
  non local Contribution for L=           2  read in
    real space projection operators read in
  non local Contribution for L=           2  read in
    real space projection operators read in
  non local Contribution for L=           0  read in
    real space projection operators read in
  non local Contribution for L=           0  read in
    real space projection operators read in
    PAW grid and wavefunctions read in
 
   number of l-projection  operators is LMAX  =           6
   number of lm-projection operators is LMMAX =          18
 
 POTCAR:    PAW_PBE O 08Apr2002                   
   VRHFIN =O: s2p4                                                              
   LEXCH  = PE                                                                  
   EATOM  =   432.3788 eV,   31.7789 Ry                                         
                                                                                
   TITEL  = PAW_PBE O 08Apr2002                                                 
   LULTRA =        F    use ultrasoft PP ?                                      
   IUNSCR =        1    unscreen: 0-lin 1-nonlin 2-no                           
   RPACOR =    1.200    partial core radius                                     
   POMASS =   16.000; ZVAL   =    6.000    mass and valenz                      
   RCORE  =    1.520    outmost cutoff radius                                   
   RWIGS  =    1.550; RWIGS  =    0.820    wigner-seitz radius (au A)           
   ENMAX  =  400.000; ENMIN  =  300.000 eV                                      
   ICORE  =        2    local potential                                         
   LCOR   =        T    correct aug charges                                     
   LPAW   =        T    paw PP                                                  
   EAUG   =  605.392                                                            
   DEXC   =    0.000                                                            
   RMAX   =    1.553    core radius for proj-oper                               
   RAUG   =    1.300    factor for augmentation sphere                          
   RDEP   =    1.550    radius for radial grids                                 
   RDEPT  =    1.329    core radius for aug-charge                              
                                                                                
   Atomic configuration                                                         
    4 entries                                                                   
     n  l   j            E        occ.                                          
     1  0  0.50      -514.6923   2.0000                                         
     2  0  0.50       -23.9615   2.0000                                         
     2  1  0.50        -9.0305   4.0000                                         
     3  2  1.50        -9.5241   0.0000                                         
   Description                                                                  
     l       E           TYP  RCUT    TYP  RCUT                                 
     0    -23.9615318     23  1.200                                             
     0     -9.5240782     23  1.200                                             
     1     -9.0304911     23  1.520                                             
     1      8.1634956     23  1.520                                             
     2     -9.5240782      7  1.500                                             
  local pseudopotential read in
  partial core-charges read in
  partial kinetic energy density read in
  kinetic energy density of atom read in
  atomic valenz-charges read in
  non local Contribution for L=           0  read in
    real space projection operators read in
  non local Contribution for L=           0  read in
    real space projection operators read in
  non local Contribution for L=           1  read in
    real space projection operators read in
  non local Contribution for L=           1  read in
    real space projection operators read in
    PAW grid and wavefunctions read in
 
   number of l-projection  operators is LMAX  =           4
   number of lm-projection operators is LMMAX =           8
 
 POTCAR:    PAW_PBE F 08Apr2002                   
   VRHFIN =F: s2p5                                                              
   LEXCH  = PE                                                                  
   EATOM  =   659.6475 eV,   48.4827 Ry                                         
                                                                                
   TITEL  = PAW_PBE F 08Apr2002                                                 
   LULTRA =        F    use ultrasoft PP ?                                      
   IUNSCR =        1    unscreen: 0-lin 1-nonlin 2-no                           
   RPACOR =    1.200    partial core radius                                     
   POMASS =   18.998; ZVAL   =    7.000    mass and valenz                      
   RCORE  =    1.520    outmost cutoff radius                                   
   RWIGS  =    1.500; RWIGS  =    0.794    wigner-seitz radius (au A)           
   ENMAX  =  400.000; ENMIN  =  300.000 eV                                      
   ICORE  =        2    local potential                                         
   LCOR   =        T    correct aug charges                                     
   LPAW   =        T    paw PP                                                  
   EAUG   =  613.614                                                            
   RMAX   =    1.555    core radius for proj-oper                               
   RAUG   =    1.300    factor for augmentation sphere                          
   RDEP   =    1.539    radius for radial grids                                 
   RDEPT  =    1.299    core radius for aug-charge                              
                                                                                
   Atomic configuration                                                         
    4 entries                                                                   
     n  l   j            E        occ.                                          
     1  0  0.50      -663.3661   2.0000                                         
     2  0  0.50       -29.8995   2.0000                                         
     2  1  0.50       -11.1114   5.0000                                         
     3  2  1.50       -10.8847   0.0000                                         
   Description                                                                  
     l       E           TYP  RCUT    TYP  RCUT                                 
     0    -29.8995018     23  1.200                                             
     0     -9.5240782     23  1.200                                             
     1    -11.1113914     23  1.520                                             
     1      1.3605826     23  1.520                                             
     2    -10.8846608      7  1.500                                             
  local pseudopotential read in
  partial core-charges read in
  partial kinetic energy density read in
  atomic valenz-charges read in
  non local Contribution for L=           0  read in
    real space projection operators read in
  non local Contribution for L=           0  read in
    real space projection operators read in
  non local Contribution for L=           1  read in
    real space projection operators read in
  non local Contribution for L=           1  read in
    real space projection operators read in
    PAW grid and wavefunctions read in
 
   number of l-projection  operators is LMAX  =           4
   number of lm-projection operators is LMMAX =           8
 
 Optimization of the real space projectors (new method)

 maximal supplied QI-value         = 22.11
 optimisation between [QCUT,QGAM] = [ 11.28, 22.77] = [ 35.61,145.23] Ry 
 Optimized for a Real-space Cutoff    1.31 Angstroem

   l    n(q)    QCUT    max X(q) W(low)/X(q) W(high)/X(q)  e(spline) 
   0      9    11.276    10.506    0.19E-04    0.17E-04    0.32E-07
   0      9    11.276     8.367    0.38E-04    0.40E-04    0.65E-07
   1      8    11.276     8.983    0.55E-04    0.98E-04    0.20E-06
 Optimization of the real space projectors (new method)

 maximal supplied QI-value         = 15.12
 optimisation between [QCUT,QGAM] = [ 11.34, 22.83] = [ 36.00,145.93] Ry 
 Optimized for a Real-space Cutoff    1.56 Angstroem

   l    n(q)    QCUT    max X(q) W(low)/X(q) W(high)/X(q)  e(spline) 
   1     10    11.338     4.216    0.27E-04    0.12E-04    0.66E-07
   1     10    11.338     5.422    0.81E-04    0.24E-04    0.19E-06
   2     10    11.338    72.084    0.64E-04    0.21E-03    0.51E-06
   2     10    11.338    65.965    0.63E-04    0.21E-03    0.50E-06
   0     11    11.338    41.531    0.33E-04    0.54E-04    0.13E-06
   0     11    11.338    16.290    0.26E-04    0.41E-04    0.11E-06
 Optimization of the real space projectors (new method)

 maximal supplied QI-value         = 24.76
 optimisation between [QCUT,QGAM] = [ 11.39, 22.77] = [ 36.31,145.25] Ry 
 Optimized for a Real-space Cutoff    1.20 Angstroem

   l    n(q)    QCUT    max X(q) W(low)/X(q) W(high)/X(q)  e(spline) 
   0      8    11.387    20.381    0.89E-04    0.31E-03    0.27E-06
   0      8    11.387    15.268    0.93E-04    0.32E-03    0.29E-06
   1      8    11.387     5.964    0.53E-04    0.28E-03    0.29E-06
   1      8    11.387     5.382    0.37E-04    0.22E-03    0.26E-06
 Optimization of the real space projectors (new method)

 maximal supplied QI-value         = 24.76
 optimisation between [QCUT,QGAM] = [ 11.39, 22.77] = [ 36.31,145.25] Ry 
 Optimized for a Real-space Cutoff    1.20 Angstroem

   l    n(q)    QCUT    max X(q) W(low)/X(q) W(high)/X(q)  e(spline) 
   0      8    11.387    14.049    0.69E-04    0.23E-03    0.18E-06
   0      8    11.387     8.945    0.88E-04    0.30E-03    0.26E-06
   1      8    11.387     7.086    0.62E-04    0.27E-03    0.27E-06
   1      8    11.387     6.747    0.46E-04    0.23E-03    0.25E-06

 ----------------------------------------------------------------------------- 
|                                                                             |
|  ADVICE TO THIS USER RUNNING 'VASP/VAMP'   (HEAR YOUR MASTER'S VOICE ...):  |
|                                                                             |
|      You enforced a specific xc-type in the INCAR file,                     |
|      a different type was found on the POTCAR file                          |
|          I HOPE YOU KNOW, WHAT YOU ARE  DOING                               |
|                                                                             |
 ----------------------------------------------------------------------------- 

  PAW_PBE Li_sv 10Sep2004               :
 energy of atom  1       EATOM= -202.7858
 kinetic energy error for atom=    0.0143 (will be added to EATOM!!)
  PAW_PBE Ti_pv 07Sep2000               :
 energy of atom  2       EATOM=-1042.5995
 kinetic energy error for atom=    0.0024 (will be added to EATOM!!)
  PAW_PBE O 08Apr2002                   :
 energy of atom  3       EATOM= -432.3788
 kinetic energy error for atom=    0.0224 (will be added to EATOM!!)
  PAW_PBE F 08Apr2002                   :
 energy of atom  4       EATOM= -659.6475
 kinetic energy error for atom=    0.0354 (will be added to EATOM!!)
 
 
 POSCAR: config 05                               
  positions in direct lattice
  velocities in cartesian coordinates
 exchange correlation table for  LEXCH =       14
   RHO(1)=    0.500       N(1)  =     2000
   RHO(2)=  100.500       N(2)  =     4000

 VTST: version 3.2, (02/03/18)

 CHAIN: initializing optimizer
 
 OPT: Using VASP QUASI-newton optimizer
 CHAIN: Read ICHAIN            0
 
 POSCAR: config 05                               
  positions in direct lattice
  velocities in cartesian coordinates
 


--------------------------------------------------------------------------------------------------------


 ion  position               nearest neighbor table
   1  0.107  0.350  0.121- 122 2.09 141 2.13 117 2.15  82 2.29
   2  0.995  0.993  0.994- 118 1.86  68 1.88 103 1.90 171 2.03 130 2.04 212 2.09
   3  0.999  0.991  0.494- 119 1.82  67 1.83 172 1.96 193 1.97 131 2.02 213 2.06
   4  0.007  0.495  0.997-  89 1.84 117 1.89 138 1.93 132 1.99 214 2.02 194 2.02
   5  0.995  0.504  0.506-  66 1.84 104 1.84 215 1.94 223 1.99 173 2.02 137 2.05
   6  0.494  0.993  0.000- 101 1.84 121 1.85 140 1.96 133 1.97 174 2.03 216 2.03
   7  0.502  0.009  0.499- 112 1.77 191 1.92 134 1.92 139 1.93 175 1.94 225 2.04
   8  0.505  0.496  0.997-  90 1.88  70 1.88 120 1.89 135 2.04 192 2.05 217 2.05
   9  0.493  0.500  0.496- 102 1.81  69 1.86 224 1.99 218 2.00 136 2.01 176 2.07
  10  0.006  0.001  0.255-  91 1.84  67 1.86 219 1.96 227 1.97 130 2.01 197 2.07
  11  0.002  0.007  0.757-  68 1.80 113 1.84 177 1.95 198 1.98 228 2.06 131 2.06
  12  0.996  0.489  0.249- 122 1.83 107 1.85 137 1.94 132 1.99 178 2.04 220 2.06
  13  0.994  0.501  0.740- 108 1.82  66 1.82 226 1.93 221 1.97 179 2.04 138 2.06
  14  0.504  0.009  0.250- 114 1.82  92 1.84 133 1.93 139 1.98 195 2.01 231 2.07
  15  0.493  0.006  0.753- 105 1.81 115 1.84 140 1.94 134 2.00 232 2.01 180 2.04
  16  0.494  0.496  0.258-  69 1.82 106 1.86 229 1.96 222 2.01 135 2.03 181 2.03
  17  0.502  0.504  0.759-  70 1.80 116 1.87 182 1.95 196 1.97 230 2.03 136 2.08
  18  0.993  0.257  0.000- 110 1.85 117 1.87 146 1.95 141 1.96 212 2.00 183 2.05
  19  0.998  0.249  0.491-  74 1.73 213 1.94 223 1.97 184 1.97 202 1.98 142 2.05
  20  0.998  0.757  0.007- 118 1.81  71 1.85 203 1.95 185 1.98 148 2.05 214 2.07
  21  0.997  0.756  0.506- 119 1.83  72 1.84 204 1.95 186 1.98 147 2.03 215 2.04
  22  0.495  0.258  0.003- 120 1.80 109 1.87 150 1.96 143 1.98 187 2.05 216 2.07
  23  0.510  0.246  0.498-  93 1.80 112 1.91 144 1.94 149 1.95 224 1.98 199 2.02
  24  0.507  0.756  0.999-  94 1.83 121 1.84 152 1.94 145 1.99 217 2.02 200 2.03
  25  0.508  0.754  0.509-  73 1.79  95 1.84 225 1.97 218 1.97 201 2.02 151 2.07
  26  0.998  0.257  0.254- 122 1.94  74 1.96 219 2.02 209 2.04 188 2.07 141 2.09
  27  0.008  0.243  0.748- 113 1.81  96 1.84 142 1.93 146 2.00 226 2.05 210 2.06
  28  0.006  0.745  0.243-  71 1.82  97 1.84 220 1.95 227 2.00 147 2.05 211 2.06
  29  0.993  0.750  0.742- 111 1.83  72 1.85 228 1.94 221 1.98 189 2.02 148 2.03
  30  0.507  0.241  0.253-  98 1.82 114 1.83 143 1.94 149 1.97 229 2.03 205 2.06
  31  0.508  0.244  0.753-  99 1.84 115 1.84 150 1.94 144 1.99 230 2.02 206 2.02
  32  0.506  0.751  0.252- 100 1.79 151 1.93 231 1.94 145 1.94 222 1.95 207 2.01
  33  0.503  0.742  0.744- 116 1.81  73 1.84 190 1.93 208 1.97 152 2.03 232 2.06
  34  0.256  0.997  0.005-  75 1.84 101 1.86 246 1.94 233 1.98 171 2.03 157 2.04
  35  0.252  0.993  0.505- 128 1.83  76 1.85 172 1.95 191 2.00 156 2.03 234 2.03
  36  0.245  0.510  0.998- 123 1.81  89 1.85 159 1.93 153 2.00 192 2.01 245 2.06
  37  0.256  0.494  0.506-  77 1.86 127 1.88 102 1.88 173 2.04 158 2.05 235 2.06
  38  0.756  1.000  0.994- 103 1.79  81 1.87 249 1.96 236 1.97 154 2.05 174 2.06
  39  0.749  0.008  0.495-  80 1.83 124 1.84 193 1.94 155 2.00 175 2.00 250 2.05
  40  0.742  0.500  0.005-  90 1.81  78 1.86 237 1.96 247 1.97 161 2.03 194 2.08
  41  0.757  0.498  0.506-  79 1.84 104 1.85 248 1.96 238 1.99 176 2.02 160 2.03
  42  0.244  0.003  0.243-  75 1.83  91 1.85 239 1.95 252 1.97 156 2.04 195 2.07
  43  0.259  0.998  0.744- 105 1.84  76 1.84 253 1.93 240 1.97 177 2.02 157 2.03
  44  0.256  0.493  0.253- 106 1.83 129 1.84 158 1.93 153 2.00 241 2.04 178 2.05
  45  0.248  0.506  0.740-  77 1.79 125 1.84 179 1.95 196 1.98 251 2.03 159 2.07
  46  0.743  0.002  0.256-  92 1.85  80 1.86 256 1.95 242 1.97 154 2.00 197 2.01
  47  0.748  0.007  0.756-  81 1.82 126 1.83 180 1.95 198 1.97 257 2.04 155 2.07
  48  0.757  0.497  0.243-  78 1.83 107 1.84 243 1.97 254 1.97 160 2.05 181 2.06
  49  0.759  0.498  0.743- 108 1.83  79 1.84 255 1.94 244 1.98 182 2.04 161 2.04
  50  0.257  0.253  0.007- 109 1.82  82 1.89 245 1.95 233 1.96 168 2.01 183 2.07
  51  0.253  0.257  0.505- 127 1.81  83 1.86 199 1.98 184 1.99 167 2.05 234 2.06
  52  0.252  0.742  0.994- 123 1.83  86 1.83 200 1.94 185 1.97 246 2.04 162 2.04
  53  0.253  0.755  0.492-  85 1.83 128 1.87 201 1.96 186 1.98 235 2.01 163 2.05
  54  0.755  0.252  0.009- 110 1.84  84 1.84 236 1.94 247 1.94 187 2.04 170 2.04
  55  0.743  0.243  0.498- 124 1.82  93 1.86 169 1.94 164 1.97 202 2.03 248 2.03
  56  0.742  0.748  0.994-  94 1.82  88 1.83 237 1.95 249 1.96 203 2.02 165 2.04
  57  0.742  0.753  0.494-  95 1.82  87 1.86 250 1.95 238 1.97 166 2.01 204 2.04
  58  0.250  0.259  0.245- 129 1.83  82 1.88 188 1.94 205 1.97 167 2.03 239 2.05
  59  0.244  0.253  0.744-  83 1.83  96 1.84 251 1.94 240 1.98 206 2.05 168 2.06
  60  0.243  0.747  0.256-  97 1.83  85 1.85 241 1.95 252 1.98 162 2.03 207 2.07
  61  0.248  0.741  0.756- 125 1.81  86 1.85 189 1.94 208 1.98 163 2.04 253 2.04
  62  0.741  0.251  0.243-  84 1.82  98 1.85 254 1.94 242 1.96 209 1.97 169 2.08
  63  0.745  0.243  0.752- 126 1.82  99 1.84 170 1.95 164 2.00 210 2.02 255 2.04
  64  0.745  0.749  0.257-  87 1.81 100 1.90 243 1.95 256 1.96 211 1.98 165 2.03
  65  0.758  0.750  0.757- 111 1.82  88 1.84 257 1.94 244 1.97 190 2.03 166 2.05
  66  0.011  0.513  0.624-  13 1.82   5 1.84
  67  0.999  0.997  0.375-   3 1.83  10 1.86
  68  0.004  0.993  0.873-  11 1.80   2 1.88
  69  0.498  0.489  0.376-  16 1.82   9 1.86
  70  0.493  0.493  0.875-  17 1.80   8 1.88
  71  0.000  0.738  0.125-  28 1.82  20 1.85
  72  0.005  0.738  0.624-  21 1.84  29 1.85
  73  0.506  0.747  0.624-  25 1.79  33 1.84
  74  0.984  0.258  0.380-  19 1.73  26 1.96
  75  0.257  0.995  0.125-  42 1.83  34 1.84
  76  0.260  0.999  0.625-  43 1.84  35 1.85
  77  0.239  0.490  0.626-  45 1.79  37 1.86
  78  0.748  0.488  0.125-  48 1.83  40 1.86
  79  0.746  0.491  0.625-  49 1.84  41 1.84
  80  0.746  0.004  0.376-  39 1.83  46 1.86
  81  0.742  0.004  0.874-  47 1.82  38 1.87
  82  0.228  0.265  0.125-  58 1.88  50 1.89   1 2.29
  83  0.244  0.256  0.625-  59 1.83  51 1.86
  84  0.732  0.261  0.126-  62 1.82  54 1.84
  85  0.256  0.742  0.374-  53 1.83  60 1.85
  86  0.254  0.745  0.875-  52 1.83  61 1.85
  87  0.754  0.746  0.374-  64 1.81  57 1.86
  88  0.752  0.746  0.876-  56 1.83  65 1.84
  89  0.125  0.511  0.993-   4 1.84  36 1.85
  90  0.626  0.512  0.997-  40 1.81   8 1.88
  91  0.125  0.011  0.248-  10 1.84  42 1.85
  92  0.624  0.011  0.247-  14 1.84  46 1.85
  93  0.625  0.264  0.486-  23 1.80  55 1.86
  94  0.624  0.735  1.000-  56 1.82  24 1.83
  95  0.625  0.768  0.493-  57 1.82  25 1.84
  96  0.126  0.255  0.760-  27 1.84  59 1.84
  97  0.125  0.741  0.254-  60 1.83  28 1.84
  98  0.624  0.236  0.268-  30 1.82  62 1.85
  99  0.626  0.256  0.761-  31 1.84  63 1.84
 100  0.622  0.742  0.253-  32 1.79  64 1.90
 101  0.376  0.993  0.990-   6 1.84  34 1.86
 102  0.377  0.511  0.507-   9 1.81  37 1.88
 103  0.872  0.993  0.996-  38 1.79   2 1.90
 104  0.876  0.510  0.501-   5 1.84  41 1.85
 105  0.376  1.000  0.761-  15 1.81  43 1.84
 106  0.374  0.489  0.246-  44 1.83  16 1.86
 107  0.876  0.484  0.249-  48 1.84  12 1.85
 108  0.877  0.511  0.745-  13 1.82  49 1.83
 109  0.375  0.256  0.016-  50 1.82  22 1.87
 110  0.874  0.259  0.014-  54 1.84  18 1.85
 111  0.875  0.741  0.746-  65 1.82  29 1.83
 112  0.516  0.123  0.490-   7 1.77  23 1.91
 113  0.000  0.127  0.756-  27 1.81  11 1.84
 114  0.485  0.125  0.266-  14 1.82  30 1.83
 115  0.504  0.124  0.755-  15 1.84  31 1.84
 116  0.505  0.625  0.755-  33 1.81  17 1.87
 117  0.015  0.375  0.019-  18 1.87   4 1.89   1 2.15
 118  0.009  0.874  0.008-  20 1.81   2 1.86
 119  0.986  0.875  0.507-   3 1.82  21 1.83
 120  0.509  0.374  0.011-  22 1.80   8 1.89
 121  0.510  0.875  0.009-  24 1.84   6 1.85
 122  0.024  0.376  0.226-  12 1.83  26 1.94   1 2.09
 123  0.262  0.626  0.011-  36 1.81  52 1.83
 124  0.734  0.125  0.508-  55 1.82  39 1.84
 125  0.245  0.625  0.743-  61 1.81  45 1.84
 126  0.748  0.125  0.741-  63 1.82  47 1.83
 127  0.261  0.374  0.490-  51 1.81  37 1.88
 128  0.262  0.876  0.494-  35 1.83  53 1.87
 129  0.235  0.376  0.262-  58 1.83  44 1.84
 130  0.995  0.009  0.126-  10 2.01   2 2.04
 131  0.999  0.006  0.624-   3 2.02  11 2.06
 132  0.003  0.518  0.124-   4 1.99  12 1.99
 133  0.489  0.012  0.126-  14 1.93   6 1.97
 134  0.492  0.005  0.623-   7 1.92  15 2.00
 135  0.503  0.511  0.128-  16 2.03   8 2.04
 136  0.512  0.505  0.625-   9 2.01  17 2.08
 137  0.001  0.483  0.375-  12 1.94   5 2.05
 138  0.995  0.486  0.873-   4 1.93  13 2.06
 139  0.508  0.984  0.376-   7 1.93  14 1.98
 140  0.518  0.993  0.875-  15 1.94   6 1.96
 141  0.024  0.239  0.122-  18 1.96  26 2.09   1 2.13
 142  0.011  0.246  0.623-  27 1.93  19 2.05
 143  0.516  0.234  0.127-  30 1.94  22 1.98
 144  0.512  0.242  0.624-  23 1.94  31 1.99
 145  0.498  0.739  0.127-  32 1.94  24 1.99
 146  0.986  0.265  0.874-  18 1.95  27 2.00
 147  0.992  0.757  0.375-  21 2.03  28 2.05
 148  0.998  0.757  0.874-  29 2.03  20 2.05
 149  0.483  0.265  0.376-  23 1.95  30 1.97
 150  0.488  0.259  0.876-  31 1.94  22 1.96
 151  0.491  0.761  0.376-  32 1.93  25 2.07
 152  0.495  0.758  0.874-  24 1.94  33 2.03
 153  0.238  0.485  0.125-  44 2.00  36 2.00
 154  0.751  0.997  0.126-  46 2.00  38 2.05
 155  0.752  0.992  0.623-  39 2.00  47 2.07
 156  0.249  0.008  0.375-  35 2.03  42 2.04
 157  0.240  0.002  0.874-  43 2.03  34 2.04
 158  0.253  0.516  0.375-  44 1.93  37 2.05
 159  0.262  0.507  0.874-  36 1.93  45 2.07
 160  0.750  0.509  0.375-  41 2.03  48 2.05
 161  0.756  0.510  0.875-  40 2.03  49 2.04
 162  0.248  0.761  0.125-  60 2.03  52 2.04
 163  0.247  0.757  0.625-  61 2.04  53 2.05
 164  0.739  0.264  0.624-  55 1.97  63 2.00
 165  0.748  0.753  0.126-  64 2.03  56 2.04
 166  0.745  0.754  0.624-  57 2.01  65 2.05
 167  0.266  0.240  0.374-  58 2.03  51 2.05
 168  0.262  0.246  0.877-  50 2.01  59 2.06
 169  0.766  0.240  0.375-  55 1.94  62 2.08
 170  0.763  0.241  0.877-  63 1.95  54 2.04
 171  0.125  0.009  0.005-  34 2.03   2 2.03
 172  0.125  0.990  0.503-  35 1.95   3 1.96
 173  0.125  0.493  0.490-   5 2.02  37 2.04
 174  0.624  0.010  0.011-   6 2.03  38 2.06
 175  0.624  0.979  0.507-   7 1.94  39 2.00
 176  0.627  0.487  0.496-  41 2.02   9 2.07
 177  0.127  0.998  0.742-  11 1.95  43 2.02
 178  0.125  0.517  0.252-  12 2.04  44 2.05
 179  0.124  0.491  0.763-  45 1.95  13 2.04
 180  0.624  0.993  0.736-  47 1.95  15 2.04
 181  0.625  0.510  0.252-  16 2.03  48 2.06
 182  0.628  0.491  0.758-  17 1.95  49 2.04
 183  0.125  0.245  0.985-  18 2.05  50 2.07
 184  0.125  0.257  0.488-  19 1.97  51 1.99
 185  0.125  0.737  0.997-  52 1.97  20 1.98
 186  0.124  0.761  0.493-  21 1.98  53 1.98
 187  0.626  0.242  0.987-  54 2.04  22 2.05
 188  0.129  0.232  0.267-  58 1.94  26 2.07
 189  0.124  0.757  0.754-  61 1.94  29 2.02
 190  0.627  0.758  0.754-  33 1.93  65 2.03
 191  0.378  0.016  0.489-   7 1.92  35 2.00
 192  0.373  0.489  0.010-  36 2.01   8 2.05
 193  0.874  0.017  0.502-  39 1.94   3 1.97
 194  0.876  0.488  0.001-   4 2.02  40 2.08
 195  0.376  0.988  0.259-  14 2.01  42 2.07
 196  0.376  0.502  0.739-  17 1.97  45 1.98
 197  0.872  0.990  0.250-  46 2.01  10 2.07
 198  0.874  0.998  0.748-  47 1.97  11 1.98
 199  0.380  0.235  0.510-  51 1.98  23 2.02
 200  0.376  0.764  0.004-  52 1.94  24 2.03
 201  0.378  0.737  0.505-  53 1.96  25 2.02
 202  0.872  0.239  0.517-  19 1.98  55 2.03
 203  0.872  0.762  0.002-  20 1.95  56 2.02
 204  0.872  0.735  0.505-  21 1.95  57 2.04
 205  0.377  0.264  0.235-  58 1.97  30 2.06
 206  0.377  0.248  0.742-  31 2.02  59 2.05
 207  0.376  0.758  0.245-  32 2.01  60 2.07
 208  0.375  0.751  0.745-  33 1.97  61 1.98
 209  0.867  0.268  0.238-  62 1.97  26 2.04
 210  0.875  0.251  0.739-  63 2.02  27 2.06
 211  0.873  0.759  0.246-  64 1.98  28 2.06
 212  0.994  0.128  0.992-  18 2.00   2 2.09
 213  0.010  0.124  0.498-  19 1.94   3 2.06
 214  0.986  0.624  0.987-   4 2.02  20 2.07
 215  0.011  0.627  0.483-   5 1.94  21 2.04
 216  0.496  0.125  0.992-   6 2.03  22 2.07
 217  0.484  0.627  0.995-  24 2.02   8 2.05
 218  0.515  0.627  0.491-  25 1.97   9 2.00
 219  0.983  0.126  0.253-  10 1.96  26 2.02
 220  0.988  0.622  0.263-  28 1.95  12 2.06
 221  0.013  0.625  0.764-  13 1.97  29 1.98
 222  0.489  0.626  0.261-  32 1.95  16 2.01
 223  0.993  0.375  0.513-  19 1.97   5 1.99
 224  0.488  0.372  0.512-  23 1.98   9 1.99
 225  0.483  0.879  0.506-  25 1.97   7 2.04
 226  0.995  0.375  0.738-  13 1.93  27 2.05
 227  0.006  0.874  0.242-  10 1.97  28 2.00
 228  0.997  0.875  0.739-  29 1.94  11 2.06
 229  0.513  0.371  0.239-  16 1.96  30 2.03
 230  0.496  0.374  0.740-  31 2.02  17 2.03
 231  0.507  0.876  0.240-  32 1.94  14 2.07
 232  0.500  0.876  0.746-  15 2.01  33 2.06
 233  0.254  0.126  0.004-  50 1.96  34 1.98
 234  0.241  0.125  0.501-  35 2.03  51 2.06
 235  0.240  0.627  0.509-  53 2.01  37 2.06
 236  0.755  0.126  0.009-  54 1.94  38 1.97
 237  0.767  0.625  0.009-  56 1.95  40 1.96
 238  0.736  0.626  0.506-  57 1.97  41 1.99
 239  0.266  0.127  0.242-  42 1.95  58 2.05
 240  0.249  0.125  0.752-  43 1.97  59 1.98
 241  0.261  0.624  0.235-  60 1.95  44 2.04
 242  0.766  0.126  0.243-  62 1.96  46 1.97
 243  0.761  0.624  0.242-  64 1.95  48 1.97
 244  0.737  0.625  0.743-  65 1.97  49 1.98
 245  0.239  0.377  0.990-  50 1.95  36 2.06
 246  0.237  0.874  0.995-  34 1.94  52 2.04
 247  0.739  0.375  0.984-  54 1.94  40 1.97
 248  0.764  0.372  0.489-  41 1.96  55 2.03
 249  0.735  0.874  0.001-  56 1.96  38 1.96
 250  0.768  0.877  0.498-  57 1.95  39 2.05
 251  0.258  0.377  0.763-  59 1.94  45 2.03
 252  0.243  0.876  0.257-  42 1.97  60 1.98
 253  0.250  0.874  0.752-  43 1.93  61 2.04
 254  0.732  0.374  0.267-  62 1.94  48 1.97
 255  0.759  0.374  0.762-  49 1.94  63 2.04
 256  0.740  0.875  0.251-  46 1.95  64 1.96
 257  0.754  0.875  0.750-  65 1.94  47 2.04
 

IMPORTANT INFORMATION: All symmetrisations will be switched off!
NOSYMM: (Re-)initialisation of all symmetry stuff for point group C_1.

 
 
 KPOINTS: Title                                   

Automatic generation of k-mesh.
Space group operators:
 irot       det(A)        alpha          n_x          n_y          n_z        tau_x        tau_y        tau_z
    1     1.000000     0.000001     1.000000     0.000000     0.000000     0.000000     0.000000     0.000000
 
 Subroutine IBZKPT returns following result:
 ===========================================
 
 Found      4 irreducible k-points:
 
 Following reciprocal coordinates:
            Coordinates               Weight
  0.250000  0.250000  0.250000      2.000000
 -0.250000  0.250000  0.250000      2.000000
  0.250000 -0.250000  0.250000      2.000000
 -0.250000 -0.250000  0.250000      2.000000
 
 Following cartesian coordinates:
            Coordinates               Weight
  0.016206  0.016206  0.016206      2.000000
 -0.016206  0.016206  0.016206      2.000000
  0.016206 -0.016206  0.016206      2.000000
 -0.016206 -0.016206  0.016206      2.000000
 


--------------------------------------------------------------------------------------------------------




 Dimension of arrays:
   k-points           NKPTS =      4   k-points in BZ     NKDIM =      4   number of bands    NBANDS=   1164
   number of dos      NEDOS =   3001   number of ions     NIONS =    257
   non local maximal  LDIM  =      6   non local SUM 2l+1 LMDIM =     18
   total plane-waves  NPLWV = ******
   max r-space proj   IRMAX =   7595   max aug-charges    IRDMAX= 146383
   dimension x,y,z NGX =   120 NGY =  120 NGZ =  120
   dimension x,y,z NGXF=   240 NGYF=  240 NGZF=  240
   support grid    NGXF=   480 NGYF=  480 NGZF=  480
   ions per type =               1  64  64 128
   NGX,Y,Z   is equivalent  to a cutoff of  12.93, 12.93, 12.93 a.u.
   NGXF,Y,Z  is equivalent  to a cutoff of  25.86, 25.86, 25.86 a.u.

 SYSTEM =  LTO                                     
 POSCAR =  config 05                               

 Startparameter for this run:
   NWRITE =      2    write-flag & timer
   PREC   = accura    normal or accurate (medium, high low for compatibility)
   ISTART =      1    job   : 0-new  1-cont  2-samecut
   ICHARG =      0    charge: 1-file 2-atom 10-const
   ISPIN  =      2    spin polarized calculation?
   LNONCOLLINEAR =      F non collinear calculations
   LSORBIT =      F    spin-orbit coupling
   INIWAV =      1    electr: 0-lowe 1-rand  2-diag
   LASPH  =      T    aspherical Exc in radial PAW
   METAGGA=      F    non-selfconsistent MetaGGA calc.

 Electronic Relaxation 1
   ENCUT  =  500.0 eV  36.75 Ry    6.06 a.u.  28.13 28.13 28.13*2*pi/ulx,y,z
   ENINI  =  500.0     initial cutoff
   ENAUG  =  628.9 eV  augmentation charge cutoff
   NELM   =     60;   NELMIN=  2; NELMDL=  0     # of ELM steps 
   EDIFF  = 0.1E-05   stopping-criterion for ELM
   LREAL  =      T    real-space projection
   NLSPLINE    = F    spline interpolate recip. space projectors
   LCOMPAT=      F    compatible to vasp.4.4
   GGA_COMPAT  = T    GGA compatible to vasp.4.4-vasp.4.6
   LMAXPAW     = -100 max onsite density
   LMAXMIX     =    4 max onsite mixed and CHGCAR
   VOSKOWN=      0    Vosko Wilk Nusair interpolation
   ROPT   =   -0.00010  -0.00010  -0.00010  -0.00010
 Ionic relaxation
   EDIFFG = -.5E-01   stopping-criterion for IOM
   NSW    =    100    number of steps for IOM
   NBLOCK =      1;   KBLOCK =    100    inner block; outer block 
   IBRION =      1    ionic relax: 0-MD 1-quasi-New 2-CG
   NFREE  =      0    steps in history (QN), initial steepest desc. (CG)
   ISIF   =      2    stress and relaxation
   IWAVPR =     11    prediction:  0-non 1-charg 2-wave 3-comb
   ISYM   =      0    0-nonsym 1-usesym 2-fastsym
   LCORR  =      T    Harris-Foulkes like correction to forces

   POTIM  = 0.5000    time-step for ionic-motion
   TEIN   =    0.0    initial temperature
   TEBEG  =    0.0;   TEEND  =   0.0 temperature during run
   SMASS  =  -3.00    Nose mass-parameter (am)
   estimated Nose-frequenzy (Omega)   =  0.10E-29 period in steps =****** mass=  -0.544E-26a.u.
   SCALEE = 1.0000    scale energy and forces
   NPACO  =    256;   APACO  = 16.0  distance and # of slots for P.C.
   PSTRESS=    0.0 pullay stress

  Mass of Ions in am
   POMASS =   7.01 47.88 16.00 19.00
  Ionic Valenz
   ZVAL   =   3.00 10.00  6.00  7.00
  Atomic Wigner-Seitz radii
   RWIGS  =  -1.00 -1.00 -1.00 -1.00
  virtual crystal weights 
   VCA    =   1.00  1.00  1.00  1.00
   NELECT =    1923.0000    total number of electrons
   NUPDOWN=       1.0000    fix difference up-down

 DOS related values:
   EMIN   =  10.00;   EMAX   =-10.00  energy-range for DOS
   EFERMI =   0.00
   ISMEAR =     0;   SIGMA  =   0.01  broadening in eV -4-tet -1-fermi 0-gaus

 Electronic relaxation 2 (details)
   IALGO  =     38    algorithm
   LDIAG  =      T    sub-space diagonalisation (order eigenvalues)
   LSUBROT=      F    optimize rotation matrix (better conditioning)
   TURBO    =      0    0=normal 1=particle mesh
   IRESTART =      0    0=no restart 2=restart with 2 vectors
   NREBOOT  =      0    no. of reboots
   NMIN     =      0    reboot dimension
   EREF     =   0.00    reference energy to select bands
   IMIX   =      4    mixing-type and parameters
     AMIX     =   0.40;   BMIX     =  1.00
     AMIX_MAG =   1.60;   BMIX_MAG =  1.00
     AMIN     =   0.10
     WC   =   100.;   INIMIX=   1;  MIXPRE=   1;  MAXMIX= -45

 Intra band minimization:
   WEIMIN = 0.0010     energy-eigenvalue tresh-hold
   EBREAK =  0.21E-09  absolut break condition
   DEPER  =   0.30     relativ break condition  

   TIME   =   0.40     timestep for ELM

  volume/ion in A,a.u.               =      14.28        96.39
  Fermi-wavevector in a.u.,A,eV,Ry     =   1.319690  2.493853 23.695660  1.741582
  Thomas-Fermi vector in A             =   2.449570
 
 Write flags
   LWAVE        =      T    write WAVECAR
   LDOWNSAMPLE  =      F    k-point downsampling of WAVECAR
   LCHARG       =      T    write CHGCAR
   LVTOT        =      F    write LOCPOT, total local potential
   LVHAR        =      F    write LOCPOT, Hartree potential only
   LELF         =      F    write electronic localiz. function (ELF)
   LORBIT       =     11    0 simple, 1 ext, 2 COOP (PROOUT), +10 PAW based schemes


 Dipole corrections
   LMONO  =      F    monopole corrections only (constant potential shift)
   LDIPOL =      F    correct potential (dipole corrections)
   IDIPOL =      0    1-x, 2-y, 3-z, 4-all directions 
   EPSILON=  1.0000000 bulk dielectric constant

 LDA+U is selected, type is set to LDAUTYPE =  2
   angular momentum for each species LDAUL =    -1    2   -1   -1
   U (eV)           for each species LDAUU =   0.0  4.2  0.0  0.0
   J (eV)           for each species LDAUJ =   0.0  0.0  0.0  0.0
 Exchange correlation treatment:
   GGA     =    PS    GGA type
   LEXCH   =    14    internal setting for exchange type
   VOSKOWN=      0    Vosko Wilk Nusair interpolation
   LHFCALC =     F    Hartree Fock is set to
   LHFONE  =     F    Hartree Fock one center treatment
   AEXX    =    0.0000 exact exchange contribution

 Linear response parameters
   LEPSILON=     F    determine dielectric tensor
   LRPA    =     F    only Hartree local field effects (RPA)
   LNABLA  =     F    use nabla operator in PAW spheres
   LVEL    =     F    velocity operator in full k-point grid
   LINTERFAST=   F  fast interpolation
   KINTER  =     0    interpolate to denser k-point grid
   CSHIFT  =0.1000    complex shift for real part using Kramers Kronig
   OMEGAMAX=  -1.0    maximum frequency
   DEG_THRESHOLD= 0.2000000E-02 threshold for treating states as degnerate
   RTIME   =   -0.100 relaxation time in fs
  (WPLASMAI=    0.000 imaginary part of plasma frequency in eV, 0.658/RTIME)
   DFIELD  = 0.0000000 0.0000000 0.0000000 field for delta impulse in time
 
 Orbital magnetization related:
   ORBITALMAG=     F  switch on orbital magnetization
   LCHIMAG   =     F  perturbation theory with respect to B field
   DQ        =  0.001000  dq finite difference perturbation B field
   LLRAUG    =     F  two centre corrections for induced B field



--------------------------------------------------------------------------------------------------------


 quasi-Newton-method for relaxation of ions
 charge density and potential will be updated during run
 spin polarized calculation
 Variant of blocked Davidson
 Davidson routine will perform the subspace rotation
 perform sub-space diagonalisation
    after iterative eigenvector-optimisation
 modified Broyden-mixing scheme, WC =      100.0
 initial mixing is a Kerker type mixing with AMIX =  0.4000 and BMIX =      1.0000
 Hartree-type preconditioning will be used
 using additional bands          202
 real space projection scheme for non local part
 use partial core corrections
 calculate Harris-corrections to forces 
   (improved forces if not selfconsistent)
 use gradient corrections 
 use of overlap-Matrix (Vanderbilt PP)
 Gauss-broadening in eV      SIGMA  =   0.01


--------------------------------------------------------------------------------------------------------


  energy-cutoff  :      500.00
  volume of cell :     3671.03
      direct lattice vectors                 reciprocal lattice vectors
    15.426331000  0.000000000  0.000000000     0.064824228  0.000000000  0.000000000
     0.000000000 15.426331000  0.000000000     0.000000000  0.064824228  0.000000000
     0.000000000  0.000000000 15.426331000     0.000000000  0.000000000  0.064824228

  length of vectors
    15.426331000 15.426331000 15.426331000     0.064824228  0.064824228  0.064824228


 
 old parameters found on file WAVECAR:
  energy-cutoff  :      500.00
  volume of cell :     3671.03
      direct lattice vectors                 reciprocal lattice vectors
    15.426331000  0.000000000  0.000000000     0.064824228  0.000000000  0.000000000
     0.000000000 15.426331000  0.000000000     0.000000000  0.064824228  0.000000000
     0.000000000  0.000000000 15.426331000     0.000000000  0.000000000  0.064824228

  length of vectors

 
 k-points in units of 2pi/SCALE and weight: Title                                   
   0.01620606  0.01620606  0.01620606       0.250
  -0.01620606  0.01620606  0.01620606       0.250
   0.01620606 -0.01620606  0.01620606       0.250
  -0.01620606 -0.01620606  0.01620606       0.250
 
 k-points in reciprocal lattice and weights: Title                                   
   0.25000000  0.25000000  0.25000000       0.250
  -0.25000000  0.25000000  0.25000000       0.250
   0.25000000 -0.25000000  0.25000000       0.250
  -0.25000000 -0.25000000  0.25000000       0.250
 
 position of ions in fractional coordinates (direct lattice) 
   0.10663307  0.34950363  0.12145556
   0.99548055  0.99278105  0.99447922
   0.99884947  0.99120024  0.49377093
   0.00669782  0.49541730  0.99738553
   0.99524474  0.50393234  0.50632964
   0.49417234  0.99327355  0.00000937
   0.50173686  0.00935911  0.49877112
   0.50493467  0.49553169  0.99665717
   0.49297166  0.49970548  0.49599976
   0.00611508  0.00149369  0.25530980
   0.00227977  0.00730200  0.75748518
   0.99575484  0.48890075  0.24929297
   0.99416496  0.50060816  0.74035992
   0.50448578  0.00941114  0.25044029
   0.49315459  0.00591542  0.75274870
   0.49390082  0.49594407  0.25784321
   0.50223113  0.50405168  0.75926110
   0.99326320  0.25717485  0.00014628
   0.99755158  0.24932021  0.49112030
   0.99813979  0.75651115  0.00653758
   0.99706538  0.75625338  0.50608321
   0.49469062  0.25847283  0.00308093
   0.50973180  0.24640143  0.49839681
   0.50734996  0.75589221  0.99945122
   0.50772097  0.75360799  0.50857471
   0.99765999  0.25650060  0.25394647
   0.00777627  0.24329700  0.74843002
   0.00604257  0.74490282  0.24304632
   0.99332440  0.74984712  0.74232524
   0.50732658  0.24086903  0.25275049
   0.50781585  0.24386749  0.75251982
   0.50619845  0.75069414  0.25207101
   0.50273628  0.74188705  0.74380921
   0.25612806  0.99736007  0.00541232
   0.25169429  0.99338477  0.50532665
   0.24499460  0.50991290  0.99785696
   0.25601935  0.49427514  0.50641974
   0.75644924  0.99954172  0.99376677
   0.74932865  0.00818036  0.49465608
   0.74186373  0.50040685  0.00548695
   0.75671286  0.49831529  0.50583024
   0.24389463  0.00279186  0.24278813
   0.25852585  0.99842885  0.74381909
   0.25622174  0.49274689  0.25252838
   0.24780986  0.50592667  0.74017104
   0.74296958  0.00161833  0.25557126
   0.74750609  0.00749360  0.75584853
   0.75730998  0.49687033  0.24288877
   0.75864405  0.49845919  0.74285645
   0.25677470  0.25291940  0.00669387
   0.25330792  0.25748485  0.50539275
   0.25218542  0.74244679  0.99396458
   0.25286660  0.75526714  0.49213743
   0.75523875  0.25203911  0.00902952
   0.74258399  0.24309153  0.49833347
   0.74150840  0.74785404  0.99380607
   0.74181921  0.75276668  0.49382465
   0.24963722  0.25918642  0.24484771
   0.24419386  0.25311638  0.74427772
   0.24322678  0.74726308  0.25550287
   0.24823272  0.74139630  0.75581522
   0.74051205  0.25087097  0.24294249
   0.74461344  0.24283742  0.75235080
   0.74524775  0.74854341  0.25696536
   0.75817211  0.75007430  0.75656539
   0.01091843  0.51283316  0.62397578
   0.99909476  0.99651622  0.37540786
   0.00429561  0.99297439  0.87305219
   0.49762458  0.48935243  0.37571199
   0.49272052  0.49283470  0.87533833
   0.00000454  0.73784184  0.12512152
   0.00473177  0.73848478  0.62376917
   0.50586790  0.74700363  0.62444044
   0.98411710  0.25825687  0.38045764
   0.25665213  0.99498309  0.12478088
   0.25998007  0.99939046  0.62450405
   0.23909122  0.48981042  0.62555394
   0.74777576  0.48811256  0.12526213
   0.74624174  0.49062150  0.62462299
   0.74604573  0.00435397  0.37594830
   0.74179205  0.00400973  0.87361970
   0.22821661  0.26497622  0.12517222
   0.24424871  0.25551998  0.62540254
   0.73211082  0.26055544  0.12596677
   0.25622373  0.74173700  0.37429341
   0.25433897  0.74490552  0.87524194
   0.75388704  0.74619219  0.37424858
   0.75190179  0.74591333  0.87556882
   0.12483984  0.51103429  0.99333692
   0.62569457  0.51231958  0.99667655
   0.12460758  0.01087123  0.24770158
   0.62363937  0.01149124  0.24651191
   0.62462399  0.26350563  0.48587043
   0.62404262  0.73505490  0.99957461
   0.62480386  0.76839299  0.49345353
   0.12566632  0.25493005  0.75972418
   0.12478419  0.74067274  0.25352459
   0.62396938  0.23570419  0.26791363
   0.62612881  0.25562311  0.76108083
   0.62215656  0.74229133  0.25343537
   0.37556501  0.99260676  0.98990478
   0.37689651  0.51100768  0.50695755
   0.87245776  0.99283425  0.99615000
   0.87615869  0.51010169  0.50115047
   0.37642275  0.99996871  0.76101822
   0.37432061  0.48850181  0.24580957
   0.87580986  0.48393581  0.24908926
   0.87654881  0.51087635  0.74501595
   0.37450743  0.25577605  0.01593312
   0.87399059  0.25916357  0.01421815
   0.87520724  0.74089974  0.74590432
   0.51618492  0.12305765  0.48969709
   0.00010831  0.12655399  0.75638646
   0.48536051  0.12483613  0.26583446
   0.50432840  0.12444300  0.75543508
   0.50507790  0.62533703  0.75523048
   0.01532609  0.37507374  0.01907167
   0.00864494  0.87359338  0.00807480
   0.98603867  0.87454026  0.50654010
   0.50895780  0.37373798  0.01136347
   0.51031812  0.87488841  0.00943473
   0.02409742  0.37640689  0.22589357
   0.26232757  0.62551660  0.01087214
   0.73380257  0.12549398  0.50768366
   0.24498017  0.62481496  0.74286570
   0.74787242  0.12544935  0.74086216
   0.26098632  0.37367575  0.49016398
   0.26209870  0.87590399  0.49442411
   0.23531898  0.37552716  0.26201920
   0.99505341  0.00873675  0.12584595
   0.99934355  0.00629026  0.62371380
   0.00271960  0.51848880  0.12398691
   0.48910713  0.01216087  0.12619734
   0.49173342  0.00492396  0.62281680
   0.50331464  0.51083933  0.12770660
   0.51157514  0.50492224  0.62478626
   0.00113247  0.48305593  0.37512320
   0.99478037  0.48552904  0.87301036
   0.50782870  0.98403256  0.37647520
   0.51816685  0.99257749  0.87525604
   0.02354780  0.23925868  0.12200036
   0.01137869  0.24584578  0.62337663
   0.51607606  0.23412162  0.12722264
   0.51200931  0.24187592  0.62374072
   0.49785276  0.73934486  0.12688668
   0.98586857  0.26523504  0.87398739
   0.99212045  0.75689994  0.37465807
   0.99802572  0.75715697  0.87371036
   0.48275231  0.26480563  0.37601487
   0.48753077  0.25890123  0.87596000
   0.49055632  0.76126212  0.37552883
   0.49524792  0.75811167  0.87418806
   0.23791282  0.48471838  0.12473642
   0.75149597  0.99693074  0.12624703
   0.75202424  0.99186735  0.62296223
   0.24859911  0.00769330  0.37462888
   0.24014220  0.00172022  0.87434947
   0.25274130  0.51634106  0.37534233
   0.26184418  0.50689404  0.87384806
   0.74983995  0.50865969  0.37472993
   0.75565742  0.50974927  0.87475128
   0.24790017  0.76066887  0.12476535
   0.24684801  0.75676785  0.62464868
   0.73935598  0.26405335  0.62434516
   0.74837995  0.75296662  0.12580397
   0.74500418  0.75383553  0.62434677
   0.26586786  0.24046241  0.37388067
   0.26223507  0.24633173  0.87650372
   0.76603804  0.24047056  0.37498716
   0.76283177  0.24068550  0.87729862
   0.12536831  0.00948160  0.00503765
   0.12527141  0.99023046  0.50291119
   0.12468505  0.49279274  0.48977181
   0.62423768  0.01000891  0.01063021
   0.62365531  0.97931804  0.50725910
   0.62655315  0.48700785  0.49572873
   0.12741134  0.99800240  0.74204212
   0.12529536  0.51650279  0.25227061
   0.12433032  0.49125423  0.76348055
   0.62355114  0.99283221  0.73641474
   0.62478462  0.51036197  0.25209998
   0.62780051  0.49057411  0.75840228
   0.12464346  0.24496538  0.98503983
   0.12530028  0.25711245  0.48815974
   0.12461606  0.73652584  0.99703795
   0.12443195  0.76068096  0.49343777
   0.62550087  0.24172844  0.98662572
   0.12871047  0.23238164  0.26742209
   0.12366116  0.75703703  0.75385052
   0.62668667  0.75763661  0.75444533
   0.37804505  0.01593042  0.48904650
   0.37277375  0.48858794  0.01035814
   0.87433707  0.01749474  0.50231527
   0.87575074  0.48804530  0.00119566
   0.37634792  0.98799813  0.25884452
   0.37587370  0.50201369  0.73877311
   0.87245408  0.98985772  0.25022407
   0.87434147  0.99807233  0.74793253
   0.37982342  0.23527984  0.50974510
   0.37593483  0.76394898  0.00428372
   0.37786449  0.73704050  0.50451932
   0.87247696  0.23911750  0.51693022
   0.87165993  0.76182590  0.00228783
   0.87229977  0.73480904  0.50534002
   0.37702382  0.26361237  0.23491561
   0.37723368  0.24799223  0.74202236
   0.37624921  0.75838603  0.24497029
   0.37547592  0.75126113  0.74540888
   0.86710151  0.26752849  0.23751549
   0.87468202  0.25130650  0.73881697
   0.87297588  0.75876523  0.24630696
   0.99382927  0.12808098  0.99186099
   0.00956858  0.12442492  0.49833384
   0.98644712  0.62408461  0.98669974
   0.01082815  0.62657296  0.48313159
   0.49568050  0.12469689  0.99177089
   0.48382977  0.62698239  0.99514911
   0.51490697  0.62712725  0.49066511
   0.98309160  0.12616993  0.25317693
   0.98765076  0.62174707  0.26305017
   0.01319166  0.62462511  0.76411539
   0.48904522  0.62610700  0.26144462
   0.99283430  0.37505813  0.51277239
   0.48772281  0.37186755  0.51208262
   0.48266140  0.87896002  0.50574945
   0.99452710  0.37530984  0.73805209
   0.00584728  0.87446418  0.24233290
   0.99694977  0.87537086  0.73903834
   0.51271208  0.37135927  0.23915600
   0.49589178  0.37378151  0.74003057
   0.50676737  0.87587788  0.23962712
   0.49961721  0.87568510  0.74624681
   0.25364879  0.12561070  0.00387867
   0.24114871  0.12472790  0.50102566
   0.23984122  0.62689959  0.50906723
   0.75457050  0.12619307  0.00881935
   0.76747166  0.62483040  0.00924991
   0.73550126  0.62565374  0.50585204
   0.26594925  0.12739357  0.24220859
   0.24935454  0.12540502  0.75165325
   0.26079576  0.62376053  0.23495577
   0.76573633  0.12631858  0.24253772
   0.76050829  0.62425057  0.24222048
   0.73691605  0.62489508  0.74269147
   0.23925942  0.37703135  0.98999830
   0.23672127  0.87355470  0.99540615
   0.73910014  0.37455977  0.98421873
   0.76396405  0.37240224  0.48879239
   0.73507270  0.87430478  0.00074515
   0.76766938  0.87674018  0.49750275
   0.25823510  0.37688130  0.76258298
   0.24282114  0.87567686  0.25746196
   0.25019933  0.87381514  0.75243284
   0.73216854  0.37430359  0.26717564
   0.75919361  0.37423734  0.76195054
   0.73961990  0.87503182  0.25066246
   0.75431983  0.87536330  0.75041001
 
 position of ions in cartesian coordinates  (Angst):
   1.64495703  5.39155861  1.87361366
  15.35661246 15.31496913 15.34116557
  15.40858258 15.29058301  7.61707383
   0.10332271  7.64247132 15.38599937
  15.35297477  7.77382703  7.81080870
   7.62326613 15.32256650  0.00014460
   7.73995890  0.14437677  7.69420845
   7.78928939  7.64423586 15.37476338
   7.60474396  7.70862220  7.65145640
   0.09433324  0.02304221  3.93849342
   0.03516854  0.11264309 11.68521717
  15.36084382  7.54194472  3.84567580
  15.33631775  7.72254720 11.42103720
   7.78236463  0.14517931  3.86337479
   7.60756588  0.09125319 11.61215065
   7.61907746  7.65059739  3.97757471
   7.74758361  7.77566805 11.71261300
  15.32240689  3.96726443  0.00225661
  15.38856081  3.84609614  7.57618432
  15.39763475 11.67019140  0.10085083
  15.38106064 11.66621497  7.80700713
   7.63126128  3.98728742  0.04752749
   7.86329154  3.80107010  7.68843420
   7.82654847 11.66064348 15.41786537
   7.83227167 11.62540631  7.84544186
  15.39023317  3.95686321  3.91746232
   0.11995934  3.75318006 11.54552929
   0.09321465 11.49111748  3.74931301
  15.32335098 11.56738984 11.45135481
   7.82618770  3.71572546  3.89901264
   7.83373539  3.76198058 11.60861990
   7.80878491 11.58045624  3.88853079
   7.75537631 11.44459522 11.47424714
   3.95111623 15.38560663  0.08349220
   3.88271940 15.32428235  7.79533618
   3.77936775  7.86608517 15.39327179
   3.94943931  7.62485197  7.81219853
  11.66923640 15.41926138 15.33017516
  11.55939176  0.12619301  7.63072848
  11.44423543  7.71944171  0.08464347
  11.67330304  7.68717665  7.80310478
   3.76239934  0.04306813  3.74533013
   3.98810533 15.40209394 11.47439948
   3.95256129  7.60127656  3.89558637
   3.82279695  7.80459222 11.41812347
  11.46129464  0.02496483  3.94252682
  11.53127631  0.11559877 11.65996964
  11.68251441  7.66488619  3.74688249
  11.70309427  7.68939642 11.45954945
   3.96109148  3.90161832  0.10326192
   3.90761179  3.97204659  7.79635586
   3.89029574 11.45322998 15.33322666
   3.90080385 11.65100092  7.59187492
  11.65056287  3.88803870  0.13929239
  11.45534648  3.75001035  7.68745706
  11.43875402 11.53664393 15.33078132
  11.44354869 11.61242803  7.61790244
   3.85098639  3.99829546  3.77710179
   3.76701528  3.90465707 11.48147449
   3.75209678 11.52752754  3.94147183
   3.82932011 11.43702474 11.65945575
  11.42338399  3.87001855  3.74771122
  11.48665345  3.74609047 11.60601242
  11.49643844 11.54727837  3.96403275
  11.69581389 11.57089436 11.67102816
   0.16843135  7.91113411  9.62565686
  15.41236646 15.37258899  5.79116585
   0.06626548 15.31795162 13.46799214
   7.67652151  7.54891249  5.79585753
   7.60086988  7.60263124 13.50325885
   0.00007006 11.38219244  1.93016601
   0.07299385 11.39211064  9.62246976
   7.80368568 11.52352519  9.63282485
  15.18131611  3.98395601  5.86906543
   3.95920077 15.34893843  1.92491114
   4.01053856 15.41692797  9.63380612
   3.68830023  7.55597760  9.65000208
  11.53543640  7.52978590  1.93233502
  11.51177205  7.56848961  9.63564095
  11.50874839  0.06716574  5.79950288
  11.44312969  0.06185546 13.47674673
   3.52054494  4.08761081  1.93094803
   3.76786144  3.94173580  9.64766652
  11.29378381  4.01941450  1.94320509
   3.95259212 11.44228051  5.77397398
   3.92351708 11.49115907 13.50177192
  11.62971095 11.51100776  5.77328243
  11.59908590 11.50670591 13.50681444
   1.92582076  7.88338404 15.32354410
   9.65217152  7.90321137 15.37506243
   1.92223770  0.16770317  3.82112659
   9.62046728  0.17726762  3.80277436
   9.63565645  4.06492506  7.49519802
   9.62668795 11.33920015 15.41976883
   9.63843119 11.85348466  7.61217752
   1.93857017  3.93263530 11.71975673
   1.92496216 11.42586291  3.91095420
   9.62555812  3.63605079  4.13292432
   9.65887034  3.94332669 11.74068485
   9.59759303 11.45083181  3.90957796
   5.79359023 15.31228048 15.27059887
   5.81413036  7.88297360  7.82049500
  13.45882216 15.31578980 15.36693966
  13.51591398  7.86899748  7.73091300
   5.80682197 15.42584833 11.73971902
   5.77439367  7.53579055  3.79193983
  13.51053285  7.46535391  3.84253332
  13.52193203  7.88094765 11.49286262
   5.77727557  3.94568594  0.24578954
  13.48246820  3.99794309  0.21933389
  13.50123653 11.42936466 11.50656693
   7.96283938  1.89832808  7.55422937
   0.00167089  1.95226381 11.66826787
   7.48733189  1.92576351  4.10085042
   7.77993677  1.91969898 11.65359162
   7.79149881  9.64665596 11.65043539
   0.23642532  5.78601166  0.29420596
   0.13335963 13.47634063  0.12456456
  15.21095884 13.49094750  7.81405524
   7.85135144  5.76540584  0.17529660
   7.87233630 13.49631813  0.14554332
   0.37173478  5.80657722  3.48470902
   4.04675188  9.64942608  0.16771726
  11.31988128  1.93591164  7.83169622
   3.77914517  9.63860237 11.45969225
  11.53692754  1.93522314 11.42878492
   4.02606133  5.76444585  7.56143177
   4.04322136 13.51198487  7.62715001
   3.63010841  5.79300624  4.04199495
  15.35002329  0.13477596  1.94134134
  15.41620435  0.09703564  9.62161550
   0.04195347  7.99837982  1.91266313
   7.54512850  0.18759756  1.94676192
   7.58564257  0.07595862  9.60777811
   7.76429825  7.88037661  1.97004424
   7.89172743  7.78909759  9.63815967
   0.01746988  7.45178069  5.78677467
  15.34581120  7.48993167 13.46734681
   7.83393359 15.18001197  5.80763102
   7.99341329 15.31182890 13.50198934
   0.36325613  3.69088364  1.88201789
   0.17553137  3.79249841  9.61641420
   7.96116019  3.61163765  1.96257857
   7.89842511  3.73125795  9.62203074
   7.68004152 11.40537850  1.95739596
  15.20833493  4.09160355 13.48241876
  15.30477841 11.67618899  5.77959937
  15.39587508 11.68015410 13.47814528
   7.44709693  4.08497925  5.80052989
   7.52081096  3.99389610 13.51284898
   7.56748416 11.74348152  5.79303196
   7.63985839 11.69488158 13.48551439
   3.67012193  7.47742610  1.92422538
  11.59282564 15.37898354  1.94752853
  11.60097491 15.30087406  9.61002150
   3.83497220  0.11867944  5.77914906
   3.70451312  0.02653663 13.48800433
   3.89887094  7.96524812  5.79015502
   4.03929492  7.81951519 13.48026949
  11.56727930  7.84675267  5.78070795
  11.65702150  7.86356095 13.49420277
   3.82419009 11.73432978  1.92467157
   3.80795905 11.67415136  9.63603726
  11.40555000  4.07337439  9.63135504
  11.54475685 11.61551227  1.94069363
  11.49268103 11.62891636  9.63137997
   4.10136564  3.70945274  5.76760698
   4.04532497  3.79999481 13.52123651
  11.81715631  3.70957838  5.78467606
  11.76769531  3.71289414 13.53349882
   1.93397304  0.14626634  0.07771251
   1.93247817 15.27562292  7.75807449
   1.92343289  7.60198390  7.55538211
   9.62969712  0.15440069  0.16398510
   9.62071325 15.10728420  7.82514681
   9.66541626  7.51274436  7.64727551
   1.96548957 15.39551542 11.44698733
   1.93284771  7.96774302  3.89160989
   1.91796066  7.57825036 11.77770373
   9.61910631 15.31575824 11.36017759
   9.63813440  7.87301268  3.88897770
   9.68465851  7.56775868 11.69936467
   1.92279129  3.77891699 15.19555046
   1.93292357  3.96630183  7.53051379
   1.92236863 11.36189138 15.38063740
   1.91952840 11.73451623  7.61193444
   9.64918346  3.72898300 15.22001496
   1.98553028  3.58479610  4.12534170
   1.90763800 11.67830387 11.62914767
   9.66747599 11.68755308 11.63832336
   5.83184813  0.24574799  7.54419322
   5.75053129  7.53711931  0.15978810
  13.48781311  0.26987960  7.74888165
  13.50962072  7.52874828  0.01844460
   5.80566758 15.24118617  3.99302121
   5.79835206  7.74422940 11.39655857
  13.45876544 15.26987285  3.86003934
  13.48788094 15.39659405 11.53785478
   5.85928186  3.62950465  7.86349663
   5.79929516 11.78492991  0.06608212
   5.82906276 11.36983067  7.78288201
  13.45911837  3.68870575  7.97433670
  13.44651461 11.75217852  0.03529279
  13.45638497 11.33540754  7.79554245
   5.81609428  4.06657163  3.62388600
   5.81933162  3.82561030 11.44668256
   5.80414478 11.69911392  3.77899273
   5.79221584 11.58920286 11.49892404
  13.37619496  4.12698299  3.66399255
  13.49313430  3.87673718 11.39723513
  13.46681483 11.70496353  3.79961262
  15.33113928  1.97581952 15.30077588
   0.14760806  1.91942006  7.68746272
  15.21725986  9.62733580 15.22115685
   0.16703868  9.66572188  7.45294783
   7.64653140  1.92361558 15.29938608
   7.46371825  9.67203794 15.35149960
   7.94312533  9.67427259  7.56916247
  15.16549639  1.94633910  3.90559114
  15.23582758  9.59127608  4.05789893
   0.20349886  9.63567371 11.78749692
   7.54417341  9.65853377  4.03313129
  15.31579058  5.78577089  7.91019660
   7.52377352  5.73655190  7.89955599
   7.44569445 13.55912826  7.80185836
  15.34190417  5.78965389 11.38543585
   0.09020208 13.48977395  3.73830745
  15.37927712 13.50376057 11.40065008
   7.90926621  5.72871099  3.68929967
   7.64979080  5.76607736 11.41595651
   7.81756123 13.51158216  3.69656735
   7.70726046 13.50860822 11.51185023
   3.91287014  1.93771221  0.05983366
   3.72003974  1.92409380  7.72898772
   3.69986997  9.67076061  7.85303959
  11.64025422  1.94669602  0.13605025
  11.83927179  9.63884053  0.14269222
  11.34608587  9.65154174  7.80344108
   4.10262118  1.96521533  3.73638994
   3.84662567  1.93453930 11.59525186
   4.02312167  9.62233644  3.62450551
  11.81250201  1.94863218  3.74146713
  11.73185268  9.62989588  3.73657326
  11.36791090  9.63983840 11.45700449
   3.69089507  5.81621034 15.27204146
   3.65174073 13.47574391 15.35546469
  11.40160344  5.77808299 15.18288385
  11.78516227  5.74480029  7.54027321
  11.33947477 13.48731495  0.01149486
  11.84232189 13.52488424  7.67464215
   3.98362010  5.81389561 11.76385745
   3.74583935 13.50848108  3.97169347
   3.85965762 13.47976161 11.60727802
  11.29467427  5.77413113  4.12153991
  11.71157197  5.77310912 11.75410119
  11.40962139 13.49853055  3.86680213
  11.63638731 13.50364403 11.57607314
 


--------------------------------------------------------------------------------------------------------


 k-point  1 :   0.2500 0.2500 0.2500  plane waves:   93161
 k-point  2 :  -0.2500 0.2500 0.2500  plane waves:   93161
 k-point  3 :   0.2500-0.2500 0.2500  plane waves:   93161
 k-point  4 :  -0.2500-0.2500 0.2500  plane waves:   93161

 maximum and minimum number of plane-waves per node :     11686    11606

 maximum number of plane-waves:     93161
 maximum index in each direction: 
   IXMAX=   28   IYMAX=   28   IZMAX=   27
   IXMIN=  -28   IYMIN=  -28   IZMIN=  -28


 real space projection operators:
  total allocation   :     105623.79 KBytes
  max/ min on nodes  :      13243.60      13165.51


 parallel 3D FFT for wavefunctions:
    minimum data exchange during FFTs selected (reduces bandwidth)
 parallel 3D FFT for charge:
    minimum data exchange during FFTs selected (reduces bandwidth)


 total amount of memory used by VASP MPI-rank0   291528. kBytes
=======================================================================

   base      :      30000. kBytes
   nonlr-proj:      49493. kBytes
   fftplans  :      27976. kBytes
   grid      :      34041. kBytes
   one-center:       1026. kBytes
   wavefun   :     148992. kBytes
 
     INWAV:  cpu time   61.9795: real time   62.5181
 Broyden mixing: mesh for mixing (old mesh)
   NGX = 57   NGY = 57   NGZ = 57
  (NGX  =240   NGY  =240   NGZ  =240)
  gives a total of 185193 points

 charge density for first step will be calculated from the start-wavefunctions


--------------------------------------------------------------------------------------------------------


 Maximum index for non-local projection operator          966
 Maximum index for augmentation-charges         3291 (set IRDMAX)


--------------------------------------------------------------------------------------------------------


 initial charge from wavefunction
 First call to EWALD:  gamma=   0.115
 Maximum number of real-space cells 3x 3x 3
 Maximum number of reciprocal cells 3x 3x 3

    FEWALD:  cpu time    0.0384: real time    0.0391


--------------------------------------- Iteration      1(   1)  ---------------------------------------


    POTLOK:  cpu time    0.3039: real time    0.3206
    SETDIJ:  cpu time    1.4328: real time    1.4537
     EDDAV:  cpu time  137.5134: real time  138.4607
       DOS:  cpu time    0.0021: real time    0.0021
    CHARGE:  cpu time    5.2983: real time    5.3014
    MIXING:  cpu time    0.0103: real time    0.0103
    --------------------------------------------
      LOOP:  cpu time  144.5608: real time  145.5490

 eigenvalue-minimisations  : 23292
 total energy-change (2. order) :-0.1758051E+04  (-0.7713458E-06)
 number of electron    1923.0000026 magnetization       1.0000000
 augmentation part      496.7415731 magnetization       0.5893172

 Broyden mixing:
  rms(total) = 0.53684E-03    rms(broyden)= 0.51426E-03
  rms(prec ) = 0.64609E-03
  weight for this iteration     100.00

 Free energy of the ion-electron system (eV)
  ---------------------------------------------------
  alpha Z        PSCENC =      6118.73324990
  Ewald energy   TEWEN  =   -103947.32367971
  -Hartree energ DENC   =    -64694.92365484
  -exchange      EXHF   =         0.00000000
  -V(xc)+E(xc)   XCENC  =      8965.18242219
  PAW double counting   =    196275.86764903  -197279.26532119
  entropy T*S    EENTRO =        -0.00000000
  eigenvalues    EBANDS =    -25773.57435371
  atomic energy  EATOM  =    178577.25249613
  Solvation  Ediel_sol  =         0.00000000
  ---------------------------------------------------
  free energy    TOTEN  =     -1758.05119219 eV

  energy without entropy =    -1758.05119219  energy(sigma->0) =    -1758.05119219


--------------------------------------------------------------------------------------------------------




--------------------------------------- Iteration      1(   2)  ---------------------------------------


    POTLOK:  cpu time    0.2677: real time    0.2702
    SETDIJ:  cpu time    1.3990: real time    1.3995
     EDDAV:  cpu time  121.9778: real time  122.6915
       DOS:  cpu time    0.0019: real time    0.0019
    --------------------------------------------
      LOOP:  cpu time  123.6463: real time  124.3630

 eigenvalue-minimisations  : 20232
 total energy-change (2. order) : 0.3726745E-06  (-0.6338820E-06)
 number of electron    1923.0000026 magnetization       1.0000000
 augmentation part      496.7415731 magnetization       0.5893172

 Free energy of the ion-electron system (eV)
  ---------------------------------------------------
  alpha Z        PSCENC =      6118.73324990
  Ewald energy   TEWEN  =   -103947.32367971
  -Hartree energ DENC   =    -64694.92632516
  -exchange      EXHF   =         0.00000000
  -V(xc)+E(xc)   XCENC  =      8965.18274048
  PAW double counting   =    196275.87165381  -197279.26989550
  entropy T*S    EENTRO =        -0.00000000
  eigenvalues    EBANDS =    -25773.57143178
  atomic energy  EATOM  =    178577.25249613
  Solvation  Ediel_sol  =         0.00000000
  ---------------------------------------------------
  free energy    TOTEN  =     -1758.05119182 eV

  energy without entropy =    -1758.05119182  energy(sigma->0) =    -1758.05119182


--------------------------------------------------------------------------------------------------------




 average (electrostatic) potential at core
  the test charge radii are     0.7079  1.0397  0.7215  0.7167
  (the norm of the test charge is              1.0000)
       1 -63.0735       2 -58.4862       3 -58.8652       4 -58.9268       5 -58.8922
       6 -58.8780       7 -59.7722       8 -58.5491       9 -58.7468      10 -58.8937
      11 -58.6388      12 -58.7676      13 -58.8389      14 -59.0936      15 -58.9269
      16 -58.8254      17 -58.7339      18 -58.9905      19 -58.8069      20 -58.6465
      21 -58.9008      22 -58.7584      23 -59.4292      24 -58.8926      25 -58.9182
      26 -56.9283      27 -58.7115      28 -58.7281      29 -58.8864      30 -59.1039
      31 -58.9871      32 -59.4690      33 -58.8316      34 -58.8589      35 -58.8823
      36 -58.7740      37 -58.4727      38 -58.7302      39 -59.1517      40 -58.7333
      41 -58.9290      42 -58.8561      43 -58.8997      44 -58.7932      45 -58.6441
      46 -59.1623      47 -58.8408      48 -58.8180      49 -58.8729      50 -58.8628
      51 -58.7138      52 -58.7701      53 -58.8618      54 -59.0583      55 -59.2425
      56 -58.8921      57 -59.0686      58 -58.9119      59 -58.7638      60 -58.7965
      61 -58.7700      62 -59.0738      63 -58.9323      64 -59.1627      65 -58.9033
      66 -74.1238      67 -73.9949      68 -73.8316      69 -73.9032      70 -73.8460
      71 -73.8597      72 -73.9995      73 -74.2545      74 -74.0724      75 -73.9710
      76 -74.0281      77 -73.9519      78 -73.9490      79 -73.9982      80 -74.2584
      81 -74.0263      82 -73.9554      83 -73.8942      84 -74.3572      85 -73.9504
      86 -73.9282      87 -74.2215      88 -74.0919      89 -73.9383      90 -73.8552
      91 -74.0145      92 -74.2145      93 -74.5383      94 -74.1621      95 -74.2618
      96 -73.9369      97 -73.9657      98 -74.3098      99 -74.0647     100 -74.3415
     101 -73.9633     102 -73.8375     103 -73.8545     104 -73.9683     105 -74.2252
     106 -73.9518     107 -73.9433     108 -74.1211     109 -73.9927     110 -74.1412
     111 -74.1884     112 -74.8009     113 -74.0392     114 -74.3997     115 -74.0995
     116 -74.0030     117 -73.9652     118 -73.8008     119 -74.1792     120 -73.8922
     121 -73.9962     122 -73.8482     123 -74.0808     124 -74.4431     125 -74.0465
     126 -74.1843     127 -73.8239     128 -73.9661     129 -74.1236     130 -78.3762
     131 -78.3452     132 -79.0595     133 -79.5647     134 -79.8039     135 -78.3282
     136 -78.2968     137 -78.8894     138 -78.9151     139 -79.8412     140 -79.4939
     141 -79.0563     142 -78.8941     143 -79.4775     144 -79.5837     145 -79.3799
     146 -79.2492     147 -78.3572     148 -78.3328     149 -79.6613     150 -79.3929
     151 -79.2261     152 -79.0890     153 -79.0927     154 -78.5744     155 -78.5856
     156 -78.4389     157 -78.3954     158 -78.8641     159 -78.8319     160 -78.3927
     161 -78.3906     162 -78.3944     163 -78.3337     164 -79.2714     165 -78.5550
     166 -78.5972     167 -78.3642     168 -78.3580     169 -79.1317     170 -79.0512
     171 -78.3247     172 -79.4532     173 -78.3375     174 -78.2771     175 -79.7951
     176 -78.2840     177 -78.9422     178 -78.3508     179 -78.8961     180 -79.0092
     181 -78.3239     182 -78.8681     183 -78.3555     184 -79.0874     185 -79.0125
     186 -79.1028     187 -78.4380     188 -78.7977     189 -78.9912     190 -79.0150
     191 -79.7295     192 -78.3597     193 -79.5438     194 -78.2684     195 -78.5312
     196 -79.0270     197 -78.4726     198 -79.1010     199 -79.0003     200 -78.9199
     201 -79.0070     202 -79.1110     203 -78.8537     204 -78.9916     205 -78.9484
     206 -78.4163     207 -78.5020     208 -79.1825     209 -78.7340     210 -78.4325
     211 -78.5994     212 -78.3711     213 -78.9898     214 -78.3147     215 -78.9960
     216 -78.3164     217 -78.3715     218 -79.1919     219 -78.9372     220 -78.7938
     221 -79.1560     222 -79.3095     223 -79.1859     224 -79.1753     225 -79.1776
     226 -78.9517     227 -79.0093     228 -78.9153     229 -79.0797     230 -78.5192
     231 -79.2262     232 -78.4727     233 -79.0991     234 -78.2975     235 -78.3229
     236 -79.3763     237 -79.3391     238 -79.2036     239 -78.9080     240 -79.0987
     241 -78.9004     242 -79.5172     243 -79.4686     244 -79.2099     245 -78.9040
     246 -78.9044     247 -79.3890     248 -79.0630     249 -79.3255     250 -79.1219
     251 -78.9071     252 -79.0411     253 -78.9263     254 -79.4718     255 -79.0004
     256 -79.5080     257 -79.0243
 
 
 
 E-fermi :  -0.6921     XC(G=0):  -9.0653     alpha+bet : -7.7421


 spin component 1

 k-point     1 :       0.2500    0.2500    0.2500
  band No.  band energies     occupation 
      1     -43.7378      1.00000
      2     -35.7837      1.00000
      3     -35.7597      1.00000
      4     -35.5814      1.00000
      5     -35.4444      1.00000
      6     -35.4364      1.00000
      7     -35.4269      1.00000
      8     -35.3003      1.00000
      9     -35.2661      1.00000
     10     -35.2294      1.00000
     11     -35.2149      1.00000
     12     -35.2058      1.00000
     13     -35.1764      1.00000
     14     -35.1568      1.00000
     15     -35.1421      1.00000
     16     -35.1369      1.00000
     17     -35.1209      1.00000
     18     -35.1035      1.00000
     19     -35.0996      1.00000
     20     -35.0843      1.00000
     21     -35.0690      1.00000
     22     -35.0275      1.00000
     23     -35.0228      1.00000
     24     -35.0221      1.00000
     25     -35.0074      1.00000
     26     -35.0013      1.00000
     27     -34.9975      1.00000
     28     -34.9912      1.00000
     29     -34.9906      1.00000
     30     -34.9856      1.00000
     31     -34.9811      1.00000
     32     -34.9804      1.00000
     33     -34.9574      1.00000
     34     -34.9534      1.00000
     35     -34.9486      1.00000
     36     -34.9467      1.00000
     37     -34.9398      1.00000
     38     -34.9334      1.00000
     39     -34.9300      1.00000
     40     -34.9238      1.00000
     41     -34.9192      1.00000
     42     -34.9178      1.00000
     43     -34.9164      1.00000
     44     -34.9147      1.00000
     45     -34.9076      1.00000
     46     -34.9067      1.00000
     47     -34.9022      1.00000
     48     -34.9011      1.00000
     49     -34.8983      1.00000
     50     -34.8970      1.00000
     51     -34.8908      1.00000
     52     -34.8893      1.00000
     53     -34.8863      1.00000
     54     -34.8837      1.00000
     55     -34.8770      1.00000
     56     -34.8759      1.00000
     57     -34.8750      1.00000
     58     -34.8748      1.00000
     59     -34.8698      1.00000
     60     -34.8647      1.00000
     61     -34.8602      1.00000
     62     -34.8590      1.00000
     63     -34.8554      1.00000
     64     -34.8542      1.00000
     65     -34.8513      1.00000
     66     -34.8415      1.00000
     67     -34.8387      1.00000
     68     -34.8284      1.00000
     69     -34.8263      1.00000
     70     -34.8241      1.00000
     71     -34.8221      1.00000
     72     -34.8197      1.00000
     73     -34.8173      1.00000
     74     -34.8166      1.00000
     75     -34.8088      1.00000
     76     -34.8076      1.00000
     77     -34.8021      1.00000
     78     -34.8009      1.00000
     79     -34.8008      1.00000
     80     -34.7953      1.00000
     81     -34.7947      1.00000
     82     -34.7935      1.00000
     83     -34.7879      1.00000
     84     -34.7856      1.00000
     85     -34.7804      1.00000
     86     -34.7798      1.00000
     87     -34.7773      1.00000
     88     -34.7751      1.00000
     89     -34.7749      1.00000
     90     -34.7680      1.00000
     91     -34.7653      1.00000
     92     -34.7616      1.00000
     93     -34.7600      1.00000
     94     -34.7578      1.00000
     95     -34.7544      1.00000
     96     -34.7537      1.00000
     97     -34.7536      1.00000
     98     -34.7526      1.00000
     99     -34.7521      1.00000
    100     -34.7500      1.00000
    101     -34.7496      1.00000
    102     -34.7478      1.00000
    103     -34.7460      1.00000
    104     -34.7460      1.00000
    105     -34.7440      1.00000
    106     -34.7433      1.00000
    107     -34.7371      1.00000
    108     -34.7364      1.00000
    109     -34.7312      1.00000
    110     -34.7305      1.00000
    111     -34.7291      1.00000
    112     -34.7276      1.00000
    113     -34.7252      1.00000
    114     -34.7231      1.00000
    115     -34.7222      1.00000
    116     -34.7183      1.00000
    117     -34.7164      1.00000
    118     -34.7119      1.00000
    119     -34.7091      1.00000
    120     -34.7084      1.00000
    121     -34.7043      1.00000
    122     -34.7029      1.00000
    123     -34.6986      1.00000
    124     -34.6956      1.00000
    125     -34.6944      1.00000
    126     -34.6910      1.00000
    127     -34.6899      1.00000
    128     -34.6898      1.00000
    129     -34.6884      1.00000
    130     -34.6861      1.00000
    131     -34.6831      1.00000
    132     -34.6808      1.00000
    133     -34.6796      1.00000
    134     -34.6790      1.00000
    135     -34.6784      1.00000
    136     -34.6780      1.00000
    137     -34.6728      1.00000
    138     -34.6680      1.00000
    139     -34.6676      1.00000
    140     -34.6665      1.00000
    141     -34.6647      1.00000
    142     -34.6574      1.00000
    143     -34.6560      1.00000
    144     -34.6553      1.00000
    145     -34.6502      1.00000
    146     -34.6477      1.00000
    147     -34.6453      1.00000
    148     -34.6426      1.00000
    149     -34.6410      1.00000
    150     -34.6382      1.00000
    151     -34.6333      1.00000
    152     -34.6275      1.00000
    153     -34.6238      1.00000
    154     -34.6219      1.00000
    155     -34.6129      1.00000
    156     -34.6101      1.00000
    157     -34.6084      1.00000
    158     -34.6062      1.00000
    159     -34.6006      1.00000
    160     -34.5976      1.00000
    161     -34.5957      1.00000
    162     -34.5864      1.00000
    163     -34.5861      1.00000
    164     -34.5828      1.00000
    165     -34.5800      1.00000
    166     -34.5765      1.00000
    167     -34.5738      1.00000
[...]
   81        1.574   3.459   0.000   5.033
   82        1.568   3.461   0.000   5.029
   83        1.574   3.456   0.000   5.030
   84        1.576   3.465   0.000   5.041
   85        1.575   3.459   0.000   5.035
   86        1.574   3.463   0.000   5.038
   87        1.576   3.462   0.000   5.037
   88        1.575   3.464   0.000   5.039
   89        1.574   3.459   0.000   5.033
   90        1.575   3.455   0.000   5.030
   91        1.574   3.457   0.000   5.031
   92        1.574   3.457   0.000   5.032
   93        1.578   3.462   0.000   5.040
   94        1.577   3.467   0.000   5.044
   95        1.576   3.469   0.000   5.045
   96        1.575   3.460   0.000   5.035
   97        1.575   3.462   0.000   5.037
   98        1.576   3.464   0.000   5.040
   99        1.575   3.460   0.000   5.035
  100        1.575   3.454   0.000   5.030
  101        1.574   3.454   0.000   5.028
  102        1.575   3.456   0.000   5.031
  103        1.575   3.456   0.000   5.031
  104        1.574   3.457   0.000   5.031
  105        1.577   3.470   0.000   5.047
  106        1.575   3.459   0.000   5.033
  107        1.574   3.457   0.000   5.031
  108        1.576   3.470   0.000   5.046
  109        1.574   3.457   0.000   5.032
  110        1.574   3.456   0.000   5.030
  111        1.576   3.471   0.000   5.047
  112        1.577   3.457   0.000   5.034
  113        1.576   3.471   0.000   5.047
  114        1.577   3.468   0.000   5.045
  115        1.574   3.463   0.000   5.037
  116        1.575   3.461   0.000   5.036
  117        1.568   3.468   0.000   5.036
  118        1.575   3.459   0.000   5.034
  119        1.576   3.468   0.000   5.044
  120        1.575   3.455   0.000   5.030
  121        1.574   3.458   0.000   5.032
  122        1.568   3.482   0.000   5.050
  123        1.577   3.469   0.000   5.047
  124        1.576   3.465   0.000   5.041
  125        1.576   3.473   0.000   5.049
  126        1.576   3.468   0.000   5.044
  127        1.575   3.455   0.000   5.030
  128        1.574   3.457   0.000   5.031
  129        1.576   3.465   0.000   5.040
  130        1.737   4.368   0.000   6.104
  131        1.736   4.368   0.000   6.104
  132        1.738   4.374   0.000   6.112
  133        1.738   4.384   0.000   6.122
  134        1.738   4.382   0.000   6.120
  135        1.737   4.366   0.000   6.103
  136        1.736   4.364   0.000   6.101
  137        1.737   4.374   0.000   6.111
  138        1.738   4.374   0.000   6.112
  139        1.739   4.382   0.000   6.121
  140        1.739   4.383   0.000   6.122
  141        1.738   4.379   0.000   6.117
  142        1.738   4.379   0.000   6.117
  143        1.738   4.381   0.000   6.119
  144        1.738   4.382   0.000   6.120
  145        1.738   4.380   0.000   6.118
  146        1.737   4.377   0.000   6.115
  147        1.736   4.366   0.000   6.102
  148        1.736   4.365   0.000   6.101
  149        1.739   4.377   0.000   6.116
  150        1.738   4.382   0.000   6.120
  151        1.738   4.373   0.000   6.111
  152        1.737   4.377   0.000   6.115
  153        1.737   4.376   0.000   6.113
  154        1.737   4.370   0.000   6.107
  155        1.737   4.369   0.000   6.106
  156        1.736   4.367   0.000   6.104
  157        1.737   4.365   0.000   6.102
  158        1.738   4.373   0.000   6.111
  159        1.738   4.373   0.000   6.111
  160        1.736   4.366   0.000   6.102
  161        1.736   4.367   0.000   6.103
  162        1.736   4.367   0.000   6.104
  163        1.736   4.365   0.000   6.101
  164        1.737   4.374   0.000   6.111
  165        1.737   4.368   0.000   6.105
  166        1.736   4.368   0.000   6.104
  167        1.736   4.364   0.000   6.101
  168        1.736   4.365   0.000   6.102
  169        1.738   4.369   0.000   6.107
  170        1.737   4.374   0.000   6.111
  171        1.737   4.367   0.000   6.103
  172        1.737   4.385   0.000   6.122
  173        1.737   4.366   0.000   6.103
  174        1.737   4.365   0.000   6.102
  175        1.739   4.377   0.000   6.116
  176        1.736   4.363   0.000   6.100
  177        1.737   4.378   0.000   6.115
  178        1.737   4.364   0.000   6.101
  179        1.738   4.374   0.000   6.111
  180        1.738   4.377   0.000   6.115
  181        1.736   4.364   0.000   6.100
  182        1.738   4.375   0.000   6.112
  183        1.737   4.363   0.000   6.100
  184        1.736   4.377   0.000   6.113
  185        1.737   4.378   0.000   6.115
  186        1.737   4.377   0.000   6.114
  187        1.736   4.364   0.000   6.100
  188        1.737   4.371   0.000   6.109
  189        1.738   4.379   0.000   6.117
  190        1.738   4.379   0.000   6.117
  191        1.739   4.381   0.000   6.120
  192        1.737   4.366   0.000   6.102
  193        1.738   4.384   0.000   6.122
  194        1.736   4.363   0.000   6.099
  195        1.737   4.365   0.000   6.102
  196        1.737   4.379   0.000   6.116
  197        1.737   4.365   0.000   6.101
  198        1.737   4.380   0.000   6.117
  199        1.737   4.373   0.000   6.110
  200        1.738   4.376   0.000   6.114
  201        1.738   4.375   0.000   6.113
  202        1.737   4.373   0.000   6.110
  203        1.737   4.377   0.000   6.114
  204        1.738   4.373   0.000   6.111
  205        1.737   4.369   0.000   6.106
  206        1.736   4.366   0.000   6.102
  207        1.737   4.366   0.000   6.103
  208        1.737   4.380   0.000   6.118
  209        1.736   4.374   0.000   6.111
  210        1.736   4.366   0.000   6.102
  211        1.737   4.368   0.000   6.105
  212        1.736   4.363   0.000   6.099
  213        1.737   4.375   0.000   6.113
  214        1.736   4.363   0.000   6.099
  215        1.738   4.373   0.000   6.111
  216        1.736   4.364   0.000   6.100
  217        1.736   4.363   0.000   6.100
  218        1.737   4.375   0.000   6.111
  219        1.737   4.379   0.000   6.117
  220        1.738   4.371   0.000   6.108
  221        1.738   4.376   0.000   6.114
  222        1.737   4.376   0.000   6.113
  223        1.737   4.379   0.000   6.116
  224        1.738   4.375   0.000   6.113
  225        1.737   4.374   0.000   6.111
  226        1.738   4.376   0.000   6.114
  227        1.737   4.375   0.000   6.112
  228        1.737   4.374   0.000   6.111
  229        1.737   4.373   0.000   6.111
  230        1.737   4.368   0.000   6.104
  231        1.738   4.372   0.000   6.110
  232        1.736   4.368   0.000   6.104
  233        1.737   4.379   0.000   6.116
  234        1.736   4.365   0.000   6.101
  235        1.737   4.365   0.000   6.101
  236        1.738   4.385   0.000   6.123
  237        1.739   4.381   0.000   6.120
  238        1.737   4.375   0.000   6.112
  239        1.737   4.372   0.000   6.109
  240        1.737   4.380   0.000   6.117
  241        1.738   4.373   0.000   6.110
  242        1.738   4.380   0.000   6.119
  243        1.738   4.383   0.000   6.121
  244        1.738   4.378   0.000   6.115
  245        1.738   4.374   0.000   6.112
  246        1.738   4.375   0.000   6.113
  247        1.739   4.381   0.000   6.120
  248        1.738   4.373   0.000   6.111
  249        1.738   4.383   0.000   6.120
  250        1.738   4.372   0.000   6.109
  251        1.738   4.377   0.000   6.115
  252        1.737   4.377   0.000   6.114
  253        1.738   4.377   0.000   6.115
  254        1.739   4.381   0.000   6.120
  255        1.738   4.375   0.000   6.113
  256        1.738   4.383   0.000   6.121
  257        1.738   4.377   0.000   6.115
--------------------------------------------------
tot        345.2501194.072 111.6881651.010
 


 magnetization (x)
 
# of ion       s       p       d       tot
------------------------------------------
    1       -0.000  -0.000   0.000  -0.000
    2       -0.000  -0.000   0.000   0.000
    3       -0.000  -0.000  -0.000  -0.000
    4       -0.000  -0.000  -0.000  -0.000
    5       -0.000  -0.000  -0.000  -0.000
    6       -0.000  -0.000   0.000   0.000
    7       -0.000  -0.000   0.000   0.000
    8       -0.000  -0.000  -0.000  -0.000
    9       -0.000  -0.000  -0.000  -0.000
   10       -0.000  -0.000   0.000   0.000
   11       -0.000  -0.000   0.000  -0.000
   12       -0.000  -0.000  -0.002  -0.003
   13        0.000  -0.000   0.000   0.000
   14       -0.000  -0.000   0.000   0.000
   15       -0.000  -0.000   0.000  -0.000
   16        0.000   0.000   0.000   0.000
   17        0.000  -0.000  -0.000  -0.000
   18        0.000   0.000   0.005   0.005
   19        0.000   0.001   0.087   0.089
   20       -0.000  -0.000   0.000  -0.000
   21       -0.000  -0.000  -0.000  -0.000
   22        0.000   0.000   0.000   0.000
   23        0.000   0.000   0.000   0.000
   24       -0.000  -0.000   0.000   0.000
   25       -0.000   0.000  -0.000  -0.000
   26        0.005   0.006   0.886   0.898
   27       -0.000   0.000   0.001   0.001
   28       -0.000  -0.000  -0.000  -0.000
   29       -0.000  -0.000  -0.000  -0.000
   30       -0.000  -0.000   0.000   0.000
   31        0.000   0.000   0.000   0.000
   32        0.000   0.000   0.000   0.000
   33       -0.000   0.000   0.000   0.000
   34       -0.000  -0.000   0.000   0.000
   35       -0.000  -0.000   0.000   0.000
   36       -0.000  -0.000   0.000   0.000
   37       -0.000  -0.000   0.000  -0.000
   38       -0.000  -0.000   0.000   0.000
   39       -0.000  -0.000  -0.000  -0.000
   40       -0.000  -0.000   0.000  -0.000
   41       -0.000  -0.000  -0.000  -0.000
   42        0.000   0.000   0.000   0.000
   43       -0.000  -0.000  -0.000  -0.000
   44       -0.000   0.000   0.000   0.000
   45       -0.000  -0.000  -0.000  -0.000
   46        0.000  -0.000   0.000   0.000
   47       -0.000  -0.000  -0.000  -0.000
   48        0.000  -0.000  -0.000  -0.000
   49       -0.000  -0.000   0.000   0.000
   50        0.000   0.000   0.001   0.001
   51       -0.000  -0.000   0.001   0.001
   52       -0.000  -0.000  -0.000  -0.000
   53       -0.000  -0.000   0.000  -0.000
   54        0.000   0.000   0.002   0.002
   55        0.000   0.000   0.002   0.002
   56        0.000   0.000   0.000   0.000
   57       -0.000  -0.000   0.000   0.000
   58       -0.000  -0.000   0.004   0.004
   59        0.000   0.000   0.000   0.000
   60       -0.000   0.000   0.000   0.000
   61       -0.000  -0.000  -0.000  -0.000
   62       -0.000  -0.000   0.007   0.007
   63        0.000   0.000   0.000   0.000
   64        0.000   0.000   0.000   0.000
   65       -0.000  -0.000   0.000   0.000
   66       -0.000  -0.000   0.000  -0.000
   67       -0.000  -0.000   0.000  -0.000
   68       -0.000  -0.000   0.000  -0.000
   69       -0.000  -0.000   0.000  -0.000
   70       -0.000  -0.000   0.000  -0.000
   71        0.000  -0.000   0.000  -0.000
   72       -0.000  -0.000   0.000  -0.000
   73        0.000  -0.000   0.000  -0.000
   74       -0.002  -0.043   0.000  -0.045
   75       -0.000  -0.000   0.000  -0.000
   76       -0.000  -0.000   0.000  -0.000
   77       -0.000  -0.000   0.000  -0.000
   78        0.000   0.000   0.000   0.000
   79       -0.000  -0.000   0.000  -0.000
   80       -0.000  -0.000   0.000  -0.000
   81       -0.000  -0.000   0.000  -0.000
   82       -0.000  -0.000   0.000  -0.000
   83       -0.000  -0.000   0.000  -0.000
   84       -0.000  -0.001   0.000  -0.001
   85       -0.000  -0.000   0.000  -0.000
   86        0.000  -0.000   0.000  -0.000
   87       -0.000  -0.000   0.000  -0.000
   88       -0.000  -0.000   0.000  -0.000
   89       -0.000  -0.000   0.000  -0.000
   90       -0.000  -0.000   0.000  -0.000
   91       -0.000  -0.000   0.000  -0.000
   92       -0.000  -0.000   0.000  -0.000
   93       -0.000  -0.000   0.000  -0.000
   94       -0.000  -0.000   0.000  -0.000
   95       -0.000  -0.000   0.000  -0.000
   96       -0.000  -0.000   0.000  -0.000
   97       -0.000  -0.000   0.000  -0.000
   98       -0.000  -0.001   0.000  -0.001
   99       -0.000  -0.000   0.000  -0.000
  100       -0.000  -0.000   0.000  -0.000
  101        0.000  -0.000   0.000  -0.000
  102       -0.000  -0.000   0.000  -0.000
  103       -0.000  -0.000   0.000  -0.000
  104       -0.000  -0.000   0.000  -0.000
  105        0.000  -0.000   0.000  -0.000
  106       -0.000  -0.000   0.000  -0.000
  107        0.000  -0.000   0.000  -0.000
  108       -0.000  -0.000   0.000  -0.000
  109       -0.000  -0.000   0.000  -0.000
  110       -0.000  -0.001   0.000  -0.001
  111       -0.000  -0.000   0.000  -0.000
  112       -0.000  -0.000   0.000  -0.000
  113       -0.000  -0.000   0.000  -0.000
  114       -0.000  -0.000   0.000  -0.000
  115       -0.000  -0.000   0.000  -0.000
  116       -0.000  -0.000   0.000  -0.000
  117       -0.000  -0.000   0.000  -0.000
  118       -0.000  -0.000   0.000  -0.000
  119       -0.000  -0.000   0.000  -0.000
  120       -0.000  -0.000   0.000  -0.000
  121       -0.000  -0.000   0.000  -0.000
  122       -0.001  -0.015   0.000  -0.016
  123       -0.000  -0.000   0.000  -0.000
  124       -0.000  -0.000   0.000  -0.000
  125       -0.000  -0.000   0.000  -0.000
  126       -0.000  -0.000   0.000  -0.000
  127       -0.000  -0.000   0.000  -0.000
  128       -0.000  -0.000   0.000  -0.000
  129       -0.000  -0.000   0.000  -0.000
  130       -0.000  -0.000   0.000  -0.000
  131       -0.000  -0.000   0.000  -0.000
  132       -0.000  -0.000   0.000  -0.000
  133       -0.000  -0.000   0.000  -0.000
  134        0.000  -0.000   0.000  -0.000
  135       -0.000  -0.000   0.000  -0.000
  136       -0.000  -0.000   0.000  -0.000
  137        0.000  -0.000   0.000  -0.000
  138       -0.000  -0.000   0.000  -0.000
  139       -0.000  -0.000   0.000  -0.000
  140        0.000  -0.000   0.000  -0.000
  141       -0.000   0.001   0.000   0.000
  142       -0.000  -0.000   0.000  -0.000
  143       -0.000  -0.000   0.000  -0.000
  144       -0.000  -0.000   0.000  -0.000
  145       -0.000  -0.000   0.000  -0.000
  146        0.000  -0.000   0.000   0.000
  147        0.000  -0.000   0.000  -0.000
  148       -0.000  -0.000   0.000  -0.000
  149       -0.000  -0.000   0.000  -0.000
  150       -0.000  -0.000   0.000  -0.000
  151       -0.000   0.000   0.000   0.000
  152       -0.000  -0.000   0.000  -0.000
  153       -0.000  -0.000   0.000  -0.000
  154       -0.000  -0.000   0.000  -0.000
  155        0.000  -0.000   0.000  -0.000
  156        0.000  -0.000   0.000  -0.000
  157       -0.000  -0.000   0.000  -0.000
  158       -0.000  -0.000   0.000  -0.000
  159       -0.000  -0.000   0.000  -0.000
  160       -0.000  -0.000   0.000  -0.000
  161       -0.000  -0.000   0.000  -0.000
  162        0.000  -0.000   0.000  -0.000
  163       -0.000   0.000   0.000  -0.000
  164        0.000   0.000   0.000   0.000
  165       -0.000  -0.000   0.000  -0.000
  166       -0.000  -0.000   0.000  -0.000
  167        0.000  -0.000   0.000  -0.000
  168        0.000   0.000   0.000   0.000
  169        0.000  -0.000   0.000  -0.000
  170       -0.000  -0.000   0.000  -0.000
  171       -0.000  -0.000   0.000  -0.000
  172       -0.000  -0.000   0.000  -0.000
  173       -0.000  -0.000   0.000  -0.000
  174        0.000  -0.000   0.000  -0.000
  175       -0.000  -0.000   0.000  -0.000
  176       -0.000  -0.000   0.000  -0.000
  177       -0.000  -0.000   0.000  -0.000
  178       -0.000  -0.000   0.000  -0.000
  179       -0.000   0.000   0.000   0.000
  180       -0.000  -0.000   0.000  -0.000
  181        0.000  -0.000   0.000  -0.000
  182        0.000   0.000   0.000   0.000
  183        0.000  -0.000   0.000  -0.000
  184       -0.000   0.000   0.000  -0.000
  185        0.000  -0.000   0.000  -0.000
  186       -0.000  -0.000   0.000  -0.000
  187       -0.000  -0.000   0.000  -0.000
  188       -0.000   0.002   0.000   0.002
  189        0.000   0.000   0.000   0.000
  190       -0.000  -0.000   0.000  -0.000
  191       -0.000  -0.000   0.000  -0.000
  192       -0.000  -0.000   0.000  -0.000
  193       -0.000  -0.000   0.000  -0.000
  194       -0.000  -0.000   0.000  -0.000
  195       -0.000  -0.000   0.000  -0.000
  196        0.000  -0.000   0.000  -0.000
  197       -0.000  -0.000   0.000  -0.000
  198       -0.000  -0.000   0.000  -0.000
  199       -0.000  -0.000   0.000  -0.000
  200        0.000  -0.000   0.000  -0.000
  201       -0.000  -0.000   0.000  -0.000
  202       -0.000   0.000   0.000   0.000
  203        0.000   0.000   0.000   0.000
  204       -0.000  -0.000   0.000  -0.000
  205       -0.000  -0.000   0.000  -0.000
  206       -0.000   0.000   0.000   0.000
  207       -0.000  -0.000   0.000  -0.000
  208       -0.000  -0.000   0.000  -0.000
  209       -0.000   0.002   0.000   0.002
  210        0.000  -0.000   0.000   0.000
  211       -0.000  -0.000   0.000  -0.000
  212       -0.000  -0.000   0.000  -0.000
  213       -0.000  -0.001   0.000  -0.001
  214       -0.000  -0.000   0.000  -0.000
  215       -0.000  -0.000   0.000  -0.000
  216       -0.000  -0.000   0.000  -0.000
  217       -0.000  -0.000   0.000  -0.000
  218        0.000   0.000   0.000   0.000
  219       -0.000  -0.005   0.000  -0.005
  220       -0.000  -0.000   0.000  -0.000
  221        0.000  -0.000   0.000  -0.000
  222       -0.000  -0.000   0.000  -0.000
  223       -0.000  -0.001   0.000  -0.001
  224       -0.000  -0.000   0.000  -0.000
  225       -0.000  -0.000   0.000  -0.000
  226       -0.000  -0.000   0.000  -0.000
  227       -0.000  -0.000   0.000  -0.000
  228       -0.000  -0.000   0.000  -0.000
  229       -0.000  -0.000   0.000  -0.000
  230       -0.000  -0.000   0.000  -0.000
  231       -0.000  -0.000   0.000  -0.000
  232       -0.000  -0.000   0.000  -0.000
  233       -0.000  -0.000   0.000  -0.000
  234       -0.000  -0.000   0.000  -0.000
  235       -0.000  -0.000   0.000  -0.000
  236       -0.000  -0.000   0.000  -0.000
  237       -0.000  -0.000   0.000  -0.000
  238       -0.000  -0.000   0.000  -0.000
  239       -0.000  -0.000   0.000  -0.000
  240       -0.000  -0.000   0.000  -0.000
  241       -0.000  -0.000   0.000  -0.000
  242       -0.000  -0.000   0.000  -0.000
  243       -0.000  -0.000   0.000  -0.000
  244       -0.000  -0.000   0.000  -0.000
  245       -0.000  -0.000   0.000  -0.000
  246       -0.000  -0.000   0.000  -0.000
  247       -0.000  -0.000   0.000  -0.000
  248       -0.000  -0.000   0.000  -0.000
  249        0.000  -0.000   0.000  -0.000
  250       -0.000  -0.000   0.000  -0.000
  251       -0.000  -0.000   0.000  -0.000
  252       -0.000  -0.000   0.000  -0.000
  253       -0.000  -0.000   0.000  -0.000
  254       -0.000  -0.000   0.000  -0.000
  255        0.000  -0.000   0.000  -0.000
  256        0.000  -0.000   0.000  -0.000
  257       -0.000  -0.000   0.000  -0.000
--------------------------------------------------
tot          0.002  -0.058   0.996   0.940
 

 total amount of memory used by VASP MPI-rank0   291528. kBytes
=======================================================================

   base      :      30000. kBytes
   nonlr-proj:      49493. kBytes
   fftplans  :      27976. kBytes
   grid      :      34041. kBytes
   one-center:       1026. kBytes
   wavefun   :     148992. kBytes
 
  
  
 General timing and accounting informations for this job:
 ========================================================
  
                  Total CPU time used (sec):      895.320
                            User time (sec):      564.172
                          System time (sec):      331.148
                         Elapsed time (sec):      920.516
  
                   Maximum memory used (kb):      620988.
                   Average memory used (kb):           0.
  
                          Minor page faults:        90741
                          Major page faults:            3
                 Voluntary context switches:        16778
