 vasp.5.4.4.18Apr17-6-g9f103f2a35 (build Jul 16 2019 12:12:28) complex          
  
 executed on             LinuxIFC date 2020.01.06  12:33:00
 running on   96 total cores
 distrk:  each k-point on   96 cores,    1 groups
 distr:  one band on NCORES_PER_BAND=   8 cores,   12 groups


--------------------------------------------------------------------------------------------------------


 INCAR:
 POTCAR:    PAW_PBE Li_sv 10Sep2004               
 POTCAR:    PAW_PBE Ti_pv 07Sep2000               
 POTCAR:    PAW_PBE O 08Apr2002                   
 POTCAR:    PAW_PBE F 08Apr2002                   
 POTCAR:    PAW_PBE Li_sv 10Sep2004               
   VRHFIN =Li: 1s2s2p                                                           
   LEXCH  = PE                                                                  
   EATOM  =   202.7858 eV,   14.9043 Ry                                         
                                                                                
   TITEL  = PAW_PBE Li_sv 10Sep2004                                             
   LULTRA =        F    use ultrasoft PP ?                                      
   IUNSCR =        0    unscreen: 0-lin 1-nonlin 2-no                           
   RPACOR =    0.000    partial core radius                                     
   POMASS =    7.010; ZVAL   =    3.000    mass and valenz                      
   RCORE  =    1.700    outmost cutoff radius                                   
   RWIGS  =    2.050; RWIGS  =    1.085    wigner-seitz radius (au A)           
   ENMAX  =  499.034; ENMIN  =  374.276 eV                                      
   ICORE  =        2    local potential                                         
   LCOR   =        T    correct aug charges                                     
   LPAW   =        T    paw PP                                                  
   EAUG   =  628.945                                                            
   RMAX   =    1.732    core radius for proj-oper                               
   RAUG   =    1.300    factor for augmentation sphere                          
   RDEP   =    1.728    radius for radial grids                                 
   RDEPT  =    1.329    core radius for aug-charge                              
                                                                                
   Atomic configuration                                                         
    4 entries                                                                   
     n  l   j            E        occ.                                          
     1  0  0.50       -51.8549   2.0000                                         
     2  0  0.50        -2.8742   1.0000                                         
     2  1  0.50        -1.3606   0.0000                                         
     3  2  1.50        -1.3606   0.0000                                         
   Description                                                                  
     l       E           TYP  RCUT    TYP  RCUT                                 
     0    -51.8548813     23  1.400                                             
     0     -2.8742052     23  1.700                                             
     1     -1.3605826     23  1.400                                             
     2     -1.3605826     23  1.400                                             
  local pseudopotential read in
  atomic valenz-charges read in
  non local Contribution for L=           0  read in
    real space projection operators read in
  non local Contribution for L=           0  read in
    real space projection operators read in
  non local Contribution for L=           1  read in
    real space projection operators read in
    PAW grid and wavefunctions read in
 
   number of l-projection  operators is LMAX  =           3
   number of lm-projection operators is LMMAX =           5
 
 POTCAR:    PAW_PBE Ti_pv 07Sep2000               
   VRHFIN =Ti: d3 s1                                                            
   LEXCH  = PE                                                                  
   EATOM  =  1042.5995 eV,   76.6289 Ry                                         
                                                                                
   TITEL  = PAW_PBE Ti_pv 07Sep2000                                             
   LULTRA =        F    use ultrasoft PP ?                                      
   IUNSCR =        1    unscreen: 0-lin 1-nonlin 2-no                           
   RPACOR =    2.200    partial core radius                                     
   POMASS =   47.880; ZVAL   =   10.000    mass and valenz                      
   RCORE  =    2.500    outmost cutoff radius                                   
   RWIGS  =    2.500; RWIGS  =    1.323    wigner-seitz radius (au A)           
   ENMAX  =  222.335; ENMIN  =  166.751 eV                                      
   RCLOC  =    1.701    cutoff for local pot                                    
   LCOR   =        T    correct aug charges                                     
   LPAW   =        T    paw PP                                                  
   EAUG   =  482.848                                                            
   DEXC   =    0.000                                                            
   RMAX   =    2.564    core radius for proj-oper                               
   RAUG   =    1.300    factor for augmentation sphere                          
   RDEP   =    2.538    radius for radial grids                                 
   RDEPT  =    1.952    core radius for aug-charge                              
                                                                                
   Atomic configuration                                                         
    8 entries                                                                   
     n  l   j            E        occ.                                          
     1  0  0.50     -4865.3608   2.0000                                         
     2  0  0.50      -533.1368   2.0000                                         
     2  1  1.50      -440.5031   6.0000                                         
     3  0  0.50       -59.3186   2.0000                                         
     3  1  1.50       -35.7012   6.0000                                         
     3  2  2.50        -1.9157   3.0000                                         
     4  0  0.50        -3.7291   1.0000                                         
     4  3  2.50        -1.3606   0.0000                                         
   Description                                                                  
     l       E           TYP  RCUT    TYP  RCUT                                 
     1    -35.7012140     23  2.300                                             
     1     -1.3605826     23  2.300                                             
     2     -1.9156996     23  2.500                                             
     2     -0.4063033     23  2.500                                             
     0     -3.7290856     23  2.500                                             
     0     20.4087390     23  2.500                                             
  local pseudopotential read in
  partial core-charges read in
  partial kinetic energy density read in
  atomic valenz-charges read in
  non local Contribution for L=           1  read in
    real space projection operators read in
  non local Contribution for L=           1  read in
    real space projection operators read in
  non local Contribution for L=           2  read in
    real space projection operators read in
  non local Contribution for L=           2  read in
    real space projection operators read in
  non local Contribution for L=           0  read in
    real space projection operators read in
  non local Contribution for L=           0  read in
    real space projection operators read in
    PAW grid and wavefunctions read in
 
   number of l-projection  operators is LMAX  =           6
   number of lm-projection operators is LMMAX =          18
 
 POTCAR:    PAW_PBE O 08Apr2002                   
   VRHFIN =O: s2p4                                                              
   LEXCH  = PE                                                                  
   EATOM  =   432.3788 eV,   31.7789 Ry                                         
                                                                                
   TITEL  = PAW_PBE O 08Apr2002                                                 
   LULTRA =        F    use ultrasoft PP ?                                      
   IUNSCR =        1    unscreen: 0-lin 1-nonlin 2-no                           
   RPACOR =    1.200    partial core radius                                     
   POMASS =   16.000; ZVAL   =    6.000    mass and valenz                      
   RCORE  =    1.520    outmost cutoff radius                                   
   RWIGS  =    1.550; RWIGS  =    0.820    wigner-seitz radius (au A)           
   ENMAX  =  400.000; ENMIN  =  300.000 eV                                      
   ICORE  =        2    local potential                                         
   LCOR   =        T    correct aug charges                                     
   LPAW   =        T    paw PP                                                  
   EAUG   =  605.392                                                            
   DEXC   =    0.000                                                            
   RMAX   =    1.553    core radius for proj-oper                               
   RAUG   =    1.300    factor for augmentation sphere                          
   RDEP   =    1.550    radius for radial grids                                 
   RDEPT  =    1.329    core radius for aug-charge                              
                                                                                
   Atomic configuration                                                         
    4 entries                                                                   
     n  l   j            E        occ.                                          
     1  0  0.50      -514.6923   2.0000                                         
     2  0  0.50       -23.9615   2.0000                                         
     2  1  0.50        -9.0305   4.0000                                         
     3  2  1.50        -9.5241   0.0000                                         
   Description                                                                  
     l       E           TYP  RCUT    TYP  RCUT                                 
     0    -23.9615318     23  1.200                                             
     0     -9.5240782     23  1.200                                             
     1     -9.0304911     23  1.520                                             
     1      8.1634956     23  1.520                                             
     2     -9.5240782      7  1.500                                             
  local pseudopotential read in
  partial core-charges read in
  partial kinetic energy density read in
  kinetic energy density of atom read in
  atomic valenz-charges read in
  non local Contribution for L=           0  read in
    real space projection operators read in
  non local Contribution for L=           0  read in
    real space projection operators read in
  non local Contribution for L=           1  read in
    real space projection operators read in
  non local Contribution for L=           1  read in
    real space projection operators read in
    PAW grid and wavefunctions read in
 
   number of l-projection  operators is LMAX  =           4
   number of lm-projection operators is LMMAX =           8
 
 POTCAR:    PAW_PBE F 08Apr2002                   
   VRHFIN =F: s2p5                                                              
   LEXCH  = PE                                                                  
   EATOM  =   659.6475 eV,   48.4827 Ry                                         
                                                                                
   TITEL  = PAW_PBE F 08Apr2002                                                 
   LULTRA =        F    use ultrasoft PP ?                                      
   IUNSCR =        1    unscreen: 0-lin 1-nonlin 2-no                           
   RPACOR =    1.200    partial core radius                                     
   POMASS =   18.998; ZVAL   =    7.000    mass and valenz                      
   RCORE  =    1.520    outmost cutoff radius                                   
   RWIGS  =    1.500; RWIGS  =    0.794    wigner-seitz radius (au A)           
   ENMAX  =  400.000; ENMIN  =  300.000 eV                                      
   ICORE  =        2    local potential                                         
   LCOR   =        T    correct aug charges                                     
   LPAW   =        T    paw PP                                                  
   EAUG   =  613.614                                                            
   RMAX   =    1.555    core radius for proj-oper                               
   RAUG   =    1.300    factor for augmentation sphere                          
   RDEP   =    1.539    radius for radial grids                                 
   RDEPT  =    1.299    core radius for aug-charge                              
                                                                                
   Atomic configuration                                                         
    4 entries                                                                   
     n  l   j            E        occ.                                          
     1  0  0.50      -663.3661   2.0000                                         
     2  0  0.50       -29.8995   2.0000                                         
     2  1  0.50       -11.1114   5.0000                                         
     3  2  1.50       -10.8847   0.0000                                         
   Description                                                                  
     l       E           TYP  RCUT    TYP  RCUT                                 
     0    -29.8995018     23  1.200                                             
     0     -9.5240782     23  1.200                                             
     1    -11.1113914     23  1.520                                             
     1      1.3605826     23  1.520                                             
     2    -10.8846608      7  1.500                                             
  local pseudopotential read in
  partial core-charges read in
  partial kinetic energy density read in
  atomic valenz-charges read in
  non local Contribution for L=           0  read in
    real space projection operators read in
  non local Contribution for L=           0  read in
    real space projection operators read in
  non local Contribution for L=           1  read in
    real space projection operators read in
  non local Contribution for L=           1  read in
    real space projection operators read in
    PAW grid and wavefunctions read in
 
   number of l-projection  operators is LMAX  =           4
   number of lm-projection operators is LMMAX =           8
 
 Optimization of the real space projectors (new method)

 maximal supplied QI-value         = 22.11
 optimisation between [QCUT,QGAM] = [ 11.28, 22.77] = [ 35.61,145.23] Ry 
 Optimized for a Real-space Cutoff    1.31 Angstroem

   l    n(q)    QCUT    max X(q) W(low)/X(q) W(high)/X(q)  e(spline) 
   0      9    11.276    10.506    0.19E-04    0.17E-04    0.32E-07
   0      9    11.276     8.367    0.38E-04    0.40E-04    0.65E-07
   1      8    11.276     8.983    0.55E-04    0.98E-04    0.20E-06
 Optimization of the real space projectors (new method)

 maximal supplied QI-value         = 15.12
 optimisation between [QCUT,QGAM] = [ 11.34, 22.83] = [ 36.00,145.93] Ry 
 Optimized for a Real-space Cutoff    1.56 Angstroem

   l    n(q)    QCUT    max X(q) W(low)/X(q) W(high)/X(q)  e(spline) 
   1     10    11.338     4.216    0.27E-04    0.12E-04    0.66E-07
   1     10    11.338     5.422    0.81E-04    0.24E-04    0.19E-06
   2     10    11.338    72.084    0.64E-04    0.21E-03    0.51E-06
   2     10    11.338    65.965    0.63E-04    0.21E-03    0.50E-06
   0     11    11.338    41.531    0.33E-04    0.54E-04    0.13E-06
   0     11    11.338    16.290    0.26E-04    0.41E-04    0.11E-06
 Optimization of the real space projectors (new method)

 maximal supplied QI-value         = 24.76
 optimisation between [QCUT,QGAM] = [ 11.39, 22.77] = [ 36.31,145.25] Ry 
 Optimized for a Real-space Cutoff    1.20 Angstroem

   l    n(q)    QCUT    max X(q) W(low)/X(q) W(high)/X(q)  e(spline) 
   0      8    11.387    20.381    0.89E-04    0.31E-03    0.27E-06
   0      8    11.387    15.268    0.93E-04    0.32E-03    0.29E-06
   1      8    11.387     5.964    0.53E-04    0.28E-03    0.29E-06
   1      8    11.387     5.382    0.37E-04    0.22E-03    0.26E-06
 Optimization of the real space projectors (new method)

 maximal supplied QI-value         = 24.76
 optimisation between [QCUT,QGAM] = [ 11.39, 22.77] = [ 36.31,145.25] Ry 
 Optimized for a Real-space Cutoff    1.20 Angstroem

   l    n(q)    QCUT    max X(q) W(low)/X(q) W(high)/X(q)  e(spline) 
   0      8    11.387    14.049    0.69E-04    0.23E-03    0.18E-06
   0      8    11.387     8.945    0.88E-04    0.30E-03    0.26E-06
   1      8    11.387     7.086    0.62E-04    0.27E-03    0.27E-06
   1      8    11.387     6.747    0.46E-04    0.23E-03    0.25E-06

 ----------------------------------------------------------------------------- 
|                                                                             |
|  ADVICE TO THIS USER RUNNING 'VASP/VAMP'   (HEAR YOUR MASTER'S VOICE ...):  |
|                                                                             |
|      You enforced a specific xc-type in the INCAR file,                     |
|      a different type was found on the POTCAR file                          |
|          I HOPE YOU KNOW, WHAT YOU ARE  DOING                               |
|                                                                             |
 ----------------------------------------------------------------------------- 

  PAW_PBE Li_sv 10Sep2004               :
 energy of atom  1       EATOM= -202.7858
 kinetic energy error for atom=    0.0143 (will be added to EATOM!!)
  PAW_PBE Ti_pv 07Sep2000               :
 energy of atom  2       EATOM=-1042.5995
 kinetic energy error for atom=    0.0024 (will be added to EATOM!!)
  PAW_PBE O 08Apr2002                   :
 energy of atom  3       EATOM= -432.3788
 kinetic energy error for atom=    0.0224 (will be added to EATOM!!)
  PAW_PBE F 08Apr2002                   :
 energy of atom  4       EATOM= -659.6475
 kinetic energy error for atom=    0.0354 (will be added to EATOM!!)
 
 
 POSCAR: config 19                               
  positions in direct lattice
  velocities in cartesian coordinates
 exchange correlation table for  LEXCH =       14
   RHO(1)=    0.500       N(1)  =     2000
   RHO(2)=  100.500       N(2)  =     4000

 VTST: version 3.2, (02/03/18)

 CHAIN: initializing optimizer
 
 OPT: Using VASP QUASI-newton optimizer
 CHAIN: Read ICHAIN            0
 
 POSCAR: config 19                               
  positions in direct lattice
  velocities in cartesian coordinates
 


--------------------------------------------------------------------------------------------------------


 ion  position               nearest neighbor table
   1  0.317  0.129  0.615-  83 1.93  76 1.93 234 2.06  51 2.83  35 2.88
   2  0.996  0.995  0.995- 118 1.86  68 1.89 103 1.89 171 2.03 212 2.04 130 2.04
   3  1.000  0.992  0.494- 119 1.81  67 1.83 193 1.95 172 1.96 131 2.01 213 2.08
   4  0.006  0.496  0.998-  89 1.84 117 1.86 138 1.93 132 1.98 214 2.02 194 2.03
   5  0.994  0.504  0.508-  66 1.83 104 1.84 215 1.93 223 2.00 173 2.02 137 2.03
   6  0.495  0.994  0.998- 101 1.84 121 1.85 140 1.96 133 1.96 216 2.02 174 2.03
   7  0.503  0.004  0.501- 112 1.90 139 2.00 134 2.01 191 2.01 175 2.01 225 2.03
   8  0.504  0.496  0.995-  70 1.88 120 1.88  90 1.89 192 2.04 135 2.04 217 2.05
   9  0.492  0.498  0.495- 102 1.82  69 1.86 224 1.94 218 2.00 136 2.02 176 2.06
  10  0.008  0.003  0.256-  91 1.83  67 1.86 219 1.95 227 1.97 130 2.01 197 2.06
  11  0.002  0.007  0.757-  68 1.79 113 1.85 177 1.96 198 1.99 228 2.03 131 2.06
  12  0.994  0.493  0.251- 107 1.82 122 1.86 137 1.93 132 1.97 220 2.01 178 2.03
  13  0.993  0.498  0.742- 108 1.82  66 1.82 226 1.93 221 1.97 138 2.02 179 2.05
  14  0.507  0.008  0.249- 114 1.83  92 1.84 139 1.91 133 1.94 195 2.04 231 2.05
  15  0.492  0.004  0.751- 105 1.84 115 1.85 134 1.93 140 1.95 232 2.02 180 2.04
  16  0.493  0.497  0.257-  69 1.82 106 1.85 229 1.95 222 2.00 135 2.02 181 2.05
  17  0.500  0.505  0.758-  70 1.80 116 1.87 182 1.95 196 1.98 230 2.04 136 2.06
  18  0.995  0.258  0.002- 117 1.82 110 1.87 141 1.96 146 1.97 183 2.01 212 2.02
  19  0.998  0.248  0.492-  74 1.77 213 1.91 202 1.91 223 1.95 184 1.95 142 2.02
  20  0.999  0.758  0.006- 118 1.81  71 1.85 203 1.95 185 1.98 148 2.04 214 2.06
  21  0.998  0.757  0.506- 119 1.83  72 1.83 204 1.94 186 1.97 147 2.02 215 2.03
  22  0.495  0.258  1.000- 120 1.80 109 1.85 150 1.96 143 1.96 187 2.03 216 2.07
  23  0.509  0.242  0.501- 112 1.79  93 1.83 144 1.95 149 1.95 224 2.04 199 2.04
  24  0.508  0.756  0.998-  94 1.83 121 1.84 152 1.94 145 1.99 217 2.02 200 2.03
  25  0.508  0.752  0.508-  73 1.80  95 1.83 225 1.95 218 1.96 201 2.03 151 2.07
  26  0.000  0.258  0.256- 122 1.79  74 1.88 209 1.94 188 1.96 141 1.99 219 2.03
  27  0.004  0.241  0.748- 113 1.79  96 1.85 142 1.95 146 1.96 210 2.03 226 2.05
  28  0.008  0.748  0.243-  71 1.81  97 1.84 220 1.95 227 1.98 147 2.05 211 2.05
  29  0.993  0.752  0.743- 111 1.82  72 1.84 228 1.94 221 1.97 148 2.02 189 2.03
  30  0.508  0.241  0.251- 114 1.81  98 1.83 143 1.93 149 1.95 229 2.02 205 2.04
  31  0.506  0.242  0.749-  99 1.83 115 1.86 150 1.93 144 1.96 230 2.02 206 2.03
  32  0.507  0.750  0.252- 100 1.79 151 1.92 231 1.93 222 1.94 145 1.94 207 2.01
  33  0.501  0.743  0.742- 116 1.81  73 1.84 190 1.93 208 1.97 152 2.03 232 2.06
  34  0.258  0.999  0.006-  75 1.85 101 1.85 246 1.94 233 1.97 171 2.02 157 2.07
  35  0.252  0.991  0.506- 128 1.80  76 1.91 191 1.93 172 1.95 156 2.00 234 2.08   1 2.88
  36  0.244  0.508  0.996- 123 1.83  89 1.84 159 1.94 153 1.98 192 2.02 245 2.05
  37  0.255  0.499  0.508-  77 1.85 102 1.86 127 1.90 235 2.01 173 2.04 158 2.05
  38  0.757  0.000  0.993- 103 1.80  81 1.87 236 1.96 249 1.96 154 2.04 174 2.06
  39  0.749  0.007  0.495- 124 1.83  80 1.85 175 1.92 193 1.96 155 2.02 250 2.06
  40  0.742  0.500  0.005-  90 1.80  78 1.87 237 1.96 247 1.96 161 2.03 194 2.06
  41  0.756  0.498  0.505-  79 1.84 104 1.86 248 1.95 238 1.99 176 2.02 160 2.03
  42  0.246  0.004  0.243-  75 1.83  91 1.85 239 1.94 252 1.97 195 2.04 156 2.08
  43  0.259  0.996  0.747- 105 1.82  76 1.88 253 1.91 157 2.00 240 2.00 177 2.03
  44  0.255  0.492  0.251- 106 1.83 129 1.84 158 1.93 153 1.97 178 2.04 241 2.04
  45  0.247  0.509  0.743-  77 1.80 125 1.83 179 1.95 196 1.97 251 2.04 159 2.06
  46  0.745  0.001  0.255-  92 1.85  80 1.85 256 1.95 242 1.96 154 2.01 197 2.02
  47  0.749  0.007  0.756-  81 1.82 126 1.84 180 1.96 198 1.98 257 2.03 155 2.05
  48  0.756  0.498  0.242-  78 1.81 107 1.86 243 1.96 254 1.96 181 2.02 160 2.05
  49  0.757  0.497  0.742- 108 1.83  79 1.83 255 1.94 244 1.98 182 2.03 161 2.04
  50  0.257  0.251  0.007- 109 1.82  82 1.85 245 1.94 233 1.97 168 2.04 183 2.04
  51  0.252  0.261  0.505- 127 1.77  83 1.90 199 1.96 184 1.98 167 1.99 234 2.09   1 2.83
  52  0.253  0.744  0.992- 123 1.82  86 1.84 200 1.94 185 1.96 162 2.04 246 2.05
  53  0.253  0.755  0.493-  85 1.82 128 1.87 201 1.95 186 1.97 235 1.98 163 2.05
  54  0.757  0.252  0.007- 110 1.81  84 1.85 236 1.94 247 1.95 187 2.03 170 2.04
  55  0.741  0.243  0.499-  93 1.81 124 1.83 169 1.94 164 1.97 248 2.04 202 2.06
  56  0.742  0.748  0.994-  94 1.82  88 1.83 237 1.95 249 1.95 203 2.02 165 2.04
  57  0.743  0.752  0.493-  95 1.82  87 1.86 250 1.94 238 1.97 166 2.01 204 2.04
  58  0.251  0.257  0.243- 129 1.82  82 1.82 205 1.95 188 1.99 239 2.04 167 2.07
  59  0.242  0.253  0.745-  96 1.82  83 1.87 251 1.92 168 2.00 240 2.00 206 2.05
  60  0.245  0.749  0.256-  97 1.82  85 1.85 241 1.94 252 1.98 162 2.03 207 2.05
  61  0.249  0.743  0.758- 125 1.81  86 1.84 189 1.93 208 1.97 163 2.04 253 2.05
  62  0.742  0.250  0.242-  84 1.80  98 1.82 254 1.94 242 1.95 209 2.05 169 2.05
  63  0.744  0.241  0.750- 126 1.81  99 1.84 170 1.94 164 1.99 210 2.03 255 2.04
  64  0.746  0.749  0.257-  87 1.81 100 1.90 243 1.94 256 1.94 211 1.98 165 2.03
  65  0.758  0.751  0.756- 111 1.82  88 1.84 257 1.93 244 1.97 190 2.03 166 2.05
  66  0.011  0.503  0.625-  13 1.82   5 1.83
  67  0.006  0.005  0.377-   3 1.83  10 1.86
  68  0.009  0.002  0.873-  11 1.79   2 1.89
  69  0.497  0.502  0.375-  16 1.82   9 1.86
  70  0.492  0.505  0.874-  17 1.80   8 1.88
  71  0.002  0.746  0.126-  28 1.81  20 1.85
  72  0.004  0.746  0.624-  21 1.83  29 1.84
  73  0.504  0.761  0.624-  25 1.80  33 1.84
  74  0.998  0.248  0.377-  19 1.77  26 1.88
  75  0.262  0.010  0.125-  42 1.83  34 1.85
  76  0.268  0.014  0.627-  43 1.88  35 1.91   1 1.93
  77  0.237  0.509  0.627-  45 1.80  37 1.85
  78  0.748  0.488  0.125-  48 1.81  40 1.87
  79  0.743  0.491  0.624-  49 1.83  41 1.84
  80  0.744  0.003  0.375-  39 1.85  46 1.85
  81  0.741  0.003  0.873-  47 1.82  38 1.87
  82  0.249  0.241  0.126-  58 1.82  50 1.85
  83  0.258  0.238  0.626-  59 1.87  51 1.90   1 1.93
  84  0.745  0.262  0.126-  62 1.80  54 1.85
  85  0.257  0.756  0.375-  53 1.82  60 1.85
  86  0.254  0.763  0.875-  61 1.84  52 1.84
  87  0.755  0.747  0.374-  64 1.81  57 1.86
  88  0.752  0.747  0.875-  56 1.83  65 1.84
  89  0.125  0.507  0.992-  36 1.84   4 1.84
  90  0.626  0.511  0.996-  40 1.80   8 1.89
  91  0.127  0.008  0.245-  10 1.83  42 1.85
  92  0.626  0.007  0.240-  14 1.84  46 1.85
  93  0.625  0.264  0.497-  55 1.81  23 1.83
  94  0.625  0.738  1.000-  56 1.82  24 1.83
  95  0.625  0.765  0.494-  57 1.82  25 1.83
  96  0.124  0.245  0.747-  59 1.82  27 1.85
  97  0.126  0.747  0.254-  60 1.82  28 1.84
  98  0.626  0.238  0.258-  62 1.82  30 1.83
  99  0.625  0.245  0.745-  31 1.83  63 1.84
 100  0.624  0.747  0.252-  32 1.79  64 1.90
 101  0.376  0.997  0.987-   6 1.84  34 1.85
 102  0.375  0.510  0.507-   9 1.82  37 1.86
 103  0.874  0.998  0.993-  38 1.80   2 1.89
 104  0.875  0.508  0.503-   5 1.84  41 1.86
 105  0.375  0.990  0.768-  43 1.82  15 1.84
 106  0.374  0.491  0.246-  44 1.83  16 1.85
 107  0.876  0.492  0.250-  12 1.82  48 1.86
 108  0.875  0.499  0.744-  13 1.82  49 1.83
 109  0.375  0.252  0.000-  50 1.82  22 1.85
 110  0.874  0.253  0.002-  54 1.81  18 1.87
 111  0.875  0.753  0.747-  65 1.82  29 1.82
 112  0.512  0.127  0.511-  23 1.79   7 1.90
 113  0.991  0.126  0.746-  27 1.79  11 1.85
 114  0.489  0.125  0.248-  30 1.81  14 1.83
 115  0.491  0.123  0.737-  15 1.85  31 1.86
 116  0.495  0.626  0.742-  33 1.81  17 1.87
 117  0.004  0.375  0.005-  18 1.82   4 1.86
 118  0.006  0.875  0.002-  20 1.81   2 1.86
 119  0.991  0.875  0.499-   3 1.81  21 1.83
 120  0.506  0.374  0.997-  22 1.80   8 1.88
 121  0.508  0.875  0.994-  24 1.84   6 1.85
 122  0.012  0.374  0.248-  26 1.79  12 1.86
 123  0.259  0.626  0.990-  52 1.82  36 1.83
 124  0.737  0.125  0.508-  55 1.83  39 1.83
 125  0.256  0.625  0.762-  61 1.81  45 1.83
 126  0.758  0.125  0.741-  63 1.81  47 1.84
 127  0.255  0.376  0.506-  51 1.77  37 1.90
 128  0.258  0.875  0.510-  35 1.80  53 1.87
 129  0.238  0.374  0.247-  58 1.82  44 1.84
 130  0.995  0.003  0.127-  10 2.01   2 2.04
 131  0.995  0.999  0.624-   3 2.01  11 2.06
 132  0.004  0.508  0.125-  12 1.97   4 1.98
 133  0.487  0.993  0.125-  14 1.94   6 1.96
 134  0.483  0.983  0.629-  15 1.93   7 2.01
 135  0.504  0.499  0.127-  16 2.02   8 2.04
 136  0.509  0.493  0.625-   9 2.02  17 2.06
 137  0.000  0.496  0.376-  12 1.93   5 2.03
 138  0.993  0.498  0.873-   4 1.93  13 2.02
 139  0.516  1.000  0.372-  14 1.91   7 2.00
 140  0.520  0.011  0.875-  15 1.95   6 1.96
 141  0.005  0.245  0.128-  18 1.96  26 1.99
 142  0.996  0.257  0.622-  27 1.95  19 2.02
 143  0.504  0.252  0.126-  30 1.93  22 1.96
 144  0.491  0.262  0.625-  23 1.95  31 1.96
 145  0.499  0.754  0.126-  32 1.94  24 1.99
 146  0.999  0.251  0.874-  27 1.96  18 1.97
 147  0.994  0.750  0.375-  21 2.02  28 2.05
 148  1.000  0.751  0.874-  29 2.02  20 2.04
 149  0.493  0.250  0.376-  23 1.95  30 1.95
 150  0.502  0.240  0.874-  31 1.93  22 1.96
 151  0.492  0.744  0.375-  32 1.92  25 2.07
 152  0.494  0.744  0.873-  24 1.94  33 2.03
 153  0.243  0.506  0.125-  44 1.97  36 1.98
 154  0.757  0.997  0.125-  46 2.01  38 2.04
 155  0.759  0.992  0.624-  39 2.02  47 2.05
 156  0.242  0.995  0.377-  35 2.00  42 2.08
 157  0.236  0.990  0.874-  43 2.00  34 2.07
 158  0.250  0.500  0.376-  44 1.93  37 2.05
 159  0.260  0.486  0.873-  36 1.94  45 2.06
 160  0.749  0.508  0.375-  41 2.03  48 2.05
 161  0.755  0.508  0.874-  40 2.03  49 2.04
 162  0.251  0.746  0.125-  60 2.03  52 2.04
 163  0.248  0.741  0.625-  61 2.04  53 2.05
 164  0.754  0.263  0.624-  55 1.97  63 1.99
 165  0.751  0.752  0.125-  64 2.03  56 2.04
 166  0.746  0.752  0.624-  57 2.01  65 2.05
 167  0.249  0.251  0.377-  51 1.99  58 2.07
 168  0.249  0.258  0.875-  59 2.00  50 2.04
 169  0.759  0.240  0.374-  55 1.94  62 2.05
 170  0.750  0.241  0.876-  63 1.94  54 2.04
 171  0.127  0.006  0.008-  34 2.02   2 2.03
 172  0.126  0.998  0.512-  35 1.95   3 1.96
 173  0.124  0.495  0.491-   5 2.02  37 2.04
 174  0.625  0.006  0.012-   6 2.03  38 2.06
 175  0.630  0.976  0.514-  39 1.92   7 2.01
 176  0.625  0.489  0.495-  41 2.02   9 2.06
 177  0.128  0.008  0.739-  11 1.96  43 2.03
 178  0.124  0.511  0.253-  12 2.03  44 2.04
 179  0.124  0.501  0.765-  45 1.95  13 2.05
 180  0.624  0.003  0.735-  47 1.96  15 2.04
 181  0.625  0.506  0.252-  48 2.02  16 2.05
 182  0.626  0.500  0.757-  17 1.95  49 2.03
 183  0.125  0.246  0.997-  18 2.01  50 2.04
 184  0.123  0.253  0.503-  19 1.95  51 1.98
 185  0.126  0.742  0.998-  52 1.96  20 1.98
 186  0.125  0.757  0.495-  21 1.97  53 1.97
 187  0.626  0.244  0.997-  22 2.03  54 2.03
 188  0.125  0.233  0.255-  26 1.96  58 1.99
 189  0.124  0.747  0.753-  61 1.93  29 2.03
 190  0.626  0.747  0.753-  33 1.93  65 2.03
 191  0.373  0.013  0.485-  35 1.93   7 2.01
 192  0.373  0.493  0.009-  36 2.02   8 2.04
 193  0.875  0.014  0.497-   3 1.95  39 1.96
 194  0.875  0.495  0.002-   4 2.03  40 2.06
 195  0.377  0.992  0.263-  14 2.04  42 2.04
 196  0.374  0.492  0.739-  45 1.97  17 1.98
 197  0.875  0.994  0.254-  46 2.02  10 2.06
 198  0.875  0.987  0.754-  47 1.98  11 1.99
 199  0.376  0.238  0.499-  51 1.96  23 2.04
 200  0.377  0.760  0.004-  52 1.94  24 2.03
 201  0.377  0.737  0.505-  53 1.95  25 2.03
 202  0.874  0.242  0.503-  19 1.91  55 2.06
 203  0.873  0.758  0.002-  20 1.95  56 2.02
 204  0.873  0.736  0.505-  21 1.94  57 2.04
 205  0.377  0.262  0.250-  58 1.95  30 2.04
 206  0.375  0.255  0.755-  31 2.03  59 2.05
 207  0.377  0.753  0.245-  32 2.01  60 2.05
 208  0.375  0.762  0.745-  61 1.97  33 1.97
 209  0.874  0.261  0.248-  26 1.94  62 2.05
 210  0.874  0.260  0.750-  27 2.03  63 2.03
 211  0.875  0.753  0.247-  64 1.98  28 2.05
 212  1.000  0.127  0.001-  18 2.02   2 2.04
 213  0.007  0.126  0.509-  19 1.91   3 2.08
 214  0.991  0.625  0.995-   4 2.02  20 2.06
 215  0.009  0.627  0.492-   5 1.93  21 2.03
 216  0.500  0.124  0.007-   6 2.02  22 2.07
 217  0.487  0.627  0.006-  24 2.02   8 2.05
 218  0.513  0.626  0.505-  25 1.96   9 2.00
 219  0.988  0.128  0.248-  10 1.95  26 2.03
 220  0.994  0.623  0.257-  28 1.95  12 2.01
 221  0.002  0.625  0.756-  13 1.97  29 1.97
 222  0.495  0.625  0.246-  32 1.94  16 2.00
 223  0.995  0.374  0.500-  19 1.95   5 2.00
 224  0.487  0.373  0.497-   9 1.94  23 2.04
 225  0.484  0.875  0.488-  25 1.95   7 2.03
 226  0.004  0.374  0.751-  13 1.93  27 2.05
 227  0.002  0.876  0.251-  10 1.97  28 1.98
 228  0.009  0.876  0.747-  29 1.94  11 2.03
 229  0.510  0.372  0.251-  16 1.95  30 2.02
 230  0.502  0.373  0.754-  31 2.02  17 2.04
 231  0.502  0.875  0.254-  32 1.93  14 2.05
 232  0.509  0.875  0.762-  15 2.02  33 2.06
 233  0.250  0.125  0.986-  34 1.97  50 1.97
 234  0.249  0.125  0.500-   1 2.06  35 2.08  51 2.09
 235  0.240  0.627  0.494-  53 1.98  37 2.01
 236  0.750  0.126  0.008-  54 1.94  38 1.96
 237  0.765  0.625  0.008-  56 1.95  40 1.96
 238  0.739  0.625  0.505-  57 1.97  41 1.99
 239  0.264  0.127  0.262-  42 1.94  58 2.04
 240  0.261  0.125  0.760-  43 2.00  59 2.00
 241  0.257  0.624  0.252-  60 1.94  44 2.04
 242  0.766  0.126  0.243-  62 1.95  46 1.96
 243  0.755  0.624  0.242-  64 1.94  48 1.96
 244  0.748  0.625  0.743-  65 1.97  49 1.98
 245  0.244  0.376  0.007-  50 1.94  36 2.05
 246  0.242  0.875  0.011-  34 1.94  52 2.05
 247  0.743  0.375  0.984-  54 1.95  40 1.96
 248  0.763  0.373  0.488-  41 1.95  55 2.04
 249  0.741  0.875  0.002-  56 1.95  38 1.96
 250  0.769  0.875  0.498-  57 1.94  39 2.06
 251  0.246  0.377  0.744-  59 1.92  45 2.04
 252  0.250  0.876  0.243-  42 1.97  60 1.98
 253  0.240  0.874  0.735-  43 1.91  61 2.05
 254  0.741  0.374  0.267-  62 1.94  48 1.96
 255  0.747  0.373  0.761-  49 1.94  63 2.04
 256  0.748  0.875  0.249-  64 1.94  46 1.95
 257  0.743  0.875  0.749-  65 1.93  47 2.03
 

IMPORTANT INFORMATION: All symmetrisations will be switched off!
NOSYMM: (Re-)initialisation of all symmetry stuff for point group C_1.

 
 
 KPOINTS: Title                                   

Automatic generation of k-mesh.
Space group operators:
 irot       det(A)        alpha          n_x          n_y          n_z        tau_x        tau_y        tau_z
    1     1.000000     0.000001     1.000000     0.000000     0.000000     0.000000     0.000000     0.000000
 
 Subroutine IBZKPT returns following result:
 ===========================================
 
 Found      4 irreducible k-points:
 
 Following reciprocal coordinates:
            Coordinates               Weight
  0.250000  0.250000  0.250000      2.000000
 -0.250000  0.250000  0.250000      2.000000
  0.250000 -0.250000  0.250000      2.000000
 -0.250000 -0.250000  0.250000      2.000000
 
 Following cartesian coordinates:
            Coordinates               Weight
  0.016206  0.016206  0.016206      2.000000
 -0.016206  0.016206  0.016206      2.000000
  0.016206 -0.016206  0.016206      2.000000
 -0.016206 -0.016206  0.016206      2.000000
 


--------------------------------------------------------------------------------------------------------




 Dimension of arrays:
   k-points           NKPTS =      4   k-points in BZ     NKDIM =      4   number of bands    NBANDS=   1164
   number of dos      NEDOS =   3001   number of ions     NIONS =    257
   non local maximal  LDIM  =      6   non local SUM 2l+1 LMDIM =     18
   total plane-waves  NPLWV = ******
   max r-space proj   IRMAX =   7595   max aug-charges    IRDMAX= 146383
   dimension x,y,z NGX =   120 NGY =  120 NGZ =  120
   dimension x,y,z NGXF=   240 NGYF=  240 NGZF=  240
   support grid    NGXF=   480 NGYF=  480 NGZF=  480
   ions per type =               1  64  64 128
   NGX,Y,Z   is equivalent  to a cutoff of  12.93, 12.93, 12.93 a.u.
   NGXF,Y,Z  is equivalent  to a cutoff of  25.86, 25.86, 25.86 a.u.

 SYSTEM =  LTO                                     
 POSCAR =  config 19                               

 Startparameter for this run:
   NWRITE =      2    write-flag & timer
   PREC   = accura    normal or accurate (medium, high low for compatibility)
   ISTART =      1    job   : 0-new  1-cont  2-samecut
   ICHARG =      0    charge: 1-file 2-atom 10-const
   ISPIN  =      2    spin polarized calculation?
   LNONCOLLINEAR =      F non collinear calculations
   LSORBIT =      F    spin-orbit coupling
   INIWAV =      1    electr: 0-lowe 1-rand  2-diag
   LASPH  =      T    aspherical Exc in radial PAW
   METAGGA=      F    non-selfconsistent MetaGGA calc.

 Electronic Relaxation 1
   ENCUT  =  500.0 eV  36.75 Ry    6.06 a.u.  28.13 28.13 28.13*2*pi/ulx,y,z
   ENINI  =  500.0     initial cutoff
   ENAUG  =  628.9 eV  augmentation charge cutoff
   NELM   =     60;   NELMIN=  2; NELMDL=  0     # of ELM steps 
   EDIFF  = 0.1E-05   stopping-criterion for ELM
   LREAL  =      T    real-space projection
   NLSPLINE    = F    spline interpolate recip. space projectors
   LCOMPAT=      F    compatible to vasp.4.4
   GGA_COMPAT  = T    GGA compatible to vasp.4.4-vasp.4.6
   LMAXPAW     = -100 max onsite density
   LMAXMIX     =    4 max onsite mixed and CHGCAR
   VOSKOWN=      0    Vosko Wilk Nusair interpolation
   ROPT   =   -0.00010  -0.00010  -0.00010  -0.00010
 Ionic relaxation
   EDIFFG = -.5E-01   stopping-criterion for IOM
   NSW    =    100    number of steps for IOM
   NBLOCK =      1;   KBLOCK =    100    inner block; outer block 
   IBRION =      1    ionic relax: 0-MD 1-quasi-New 2-CG
   NFREE  =      0    steps in history (QN), initial steepest desc. (CG)
   ISIF   =      2    stress and relaxation
   IWAVPR =     11    prediction:  0-non 1-charg 2-wave 3-comb
   ISYM   =      0    0-nonsym 1-usesym 2-fastsym
   LCORR  =      T    Harris-Foulkes like correction to forces

   POTIM  = 0.5000    time-step for ionic-motion
   TEIN   =    0.0    initial temperature
   TEBEG  =    0.0;   TEEND  =   0.0 temperature during run
   SMASS  =  -3.00    Nose mass-parameter (am)
   estimated Nose-frequenzy (Omega)   =  0.10E-29 period in steps =****** mass=  -0.544E-26a.u.
   SCALEE = 1.0000    scale energy and forces
   NPACO  =    256;   APACO  = 16.0  distance and # of slots for P.C.
   PSTRESS=    0.0 pullay stress

  Mass of Ions in am
   POMASS =   7.01 47.88 16.00 19.00
  Ionic Valenz
   ZVAL   =   3.00 10.00  6.00  7.00
  Atomic Wigner-Seitz radii
   RWIGS  =  -1.00 -1.00 -1.00 -1.00
  virtual crystal weights 
   VCA    =   1.00  1.00  1.00  1.00
   NELECT =    1923.0000    total number of electrons
   NUPDOWN=       1.0000    fix difference up-down

 DOS related values:
   EMIN   =  10.00;   EMAX   =-10.00  energy-range for DOS
   EFERMI =   0.00
   ISMEAR =     0;   SIGMA  =   0.01  broadening in eV -4-tet -1-fermi 0-gaus

 Electronic relaxation 2 (details)
   IALGO  =     38    algorithm
   LDIAG  =      T    sub-space diagonalisation (order eigenvalues)
   LSUBROT=      F    optimize rotation matrix (better conditioning)
   TURBO    =      0    0=normal 1=particle mesh
   IRESTART =      0    0=no restart 2=restart with 2 vectors
   NREBOOT  =      0    no. of reboots
   NMIN     =      0    reboot dimension
   EREF     =   0.00    reference energy to select bands
   IMIX   =      4    mixing-type and parameters
     AMIX     =   0.40;   BMIX     =  1.00
     AMIX_MAG =   1.60;   BMIX_MAG =  1.00
     AMIN     =   0.10
     WC   =   100.;   INIMIX=   1;  MIXPRE=   1;  MAXMIX= -45

 Intra band minimization:
   WEIMIN = 0.0010     energy-eigenvalue tresh-hold
   EBREAK =  0.21E-09  absolut break condition
   DEPER  =   0.30     relativ break condition  

   TIME   =   0.40     timestep for ELM

  volume/ion in A,a.u.               =      14.28        96.39
  Fermi-wavevector in a.u.,A,eV,Ry     =   1.319690  2.493853 23.695660  1.741582
  Thomas-Fermi vector in A             =   2.449570
 
 Write flags
   LWAVE        =      T    write WAVECAR
   LDOWNSAMPLE  =      F    k-point downsampling of WAVECAR
   LCHARG       =      T    write CHGCAR
   LVTOT        =      F    write LOCPOT, total local potential
   LVHAR        =      F    write LOCPOT, Hartree potential only
   LELF         =      F    write electronic localiz. function (ELF)
   LORBIT       =     11    0 simple, 1 ext, 2 COOP (PROOUT), +10 PAW based schemes


 Dipole corrections
   LMONO  =      F    monopole corrections only (constant potential shift)
   LDIPOL =      F    correct potential (dipole corrections)
   IDIPOL =      0    1-x, 2-y, 3-z, 4-all directions 
   EPSILON=  1.0000000 bulk dielectric constant

 LDA+U is selected, type is set to LDAUTYPE =  2
   angular momentum for each species LDAUL =    -1    2   -1   -1
   U (eV)           for each species LDAUU =   0.0  4.2  0.0  0.0
   J (eV)           for each species LDAUJ =   0.0  0.0  0.0  0.0
 Exchange correlation treatment:
   GGA     =    PS    GGA type
   LEXCH   =    14    internal setting for exchange type
   VOSKOWN=      0    Vosko Wilk Nusair interpolation
   LHFCALC =     F    Hartree Fock is set to
   LHFONE  =     F    Hartree Fock one center treatment
   AEXX    =    0.0000 exact exchange contribution

 Linear response parameters
   LEPSILON=     F    determine dielectric tensor
   LRPA    =     F    only Hartree local field effects (RPA)
   LNABLA  =     F    use nabla operator in PAW spheres
   LVEL    =     F    velocity operator in full k-point grid
   LINTERFAST=   F  fast interpolation
   KINTER  =     0    interpolate to denser k-point grid
   CSHIFT  =0.1000    complex shift for real part using Kramers Kronig
   OMEGAMAX=  -1.0    maximum frequency
   DEG_THRESHOLD= 0.2000000E-02 threshold for treating states as degnerate
   RTIME   =   -0.100 relaxation time in fs
  (WPLASMAI=    0.000 imaginary part of plasma frequency in eV, 0.658/RTIME)
   DFIELD  = 0.0000000 0.0000000 0.0000000 field for delta impulse in time
 
 Orbital magnetization related:
   ORBITALMAG=     F  switch on orbital magnetization
   LCHIMAG   =     F  perturbation theory with respect to B field
   DQ        =  0.001000  dq finite difference perturbation B field
   LLRAUG    =     F  two centre corrections for induced B field



--------------------------------------------------------------------------------------------------------


 quasi-Newton-method for relaxation of ions
 charge density and potential will be updated during run
 spin polarized calculation
 Variant of blocked Davidson
 Davidson routine will perform the subspace rotation
 perform sub-space diagonalisation
    after iterative eigenvector-optimisation
 modified Broyden-mixing scheme, WC =      100.0
 initial mixing is a Kerker type mixing with AMIX =  0.4000 and BMIX =      1.0000
 Hartree-type preconditioning will be used
 using additional bands          202
 real space projection scheme for non local part
 use partial core corrections
 calculate Harris-corrections to forces 
   (improved forces if not selfconsistent)
 use gradient corrections 
 use of overlap-Matrix (Vanderbilt PP)
 Gauss-broadening in eV      SIGMA  =   0.01


--------------------------------------------------------------------------------------------------------


  energy-cutoff  :      500.00
  volume of cell :     3671.03
      direct lattice vectors                 reciprocal lattice vectors
    15.426331000  0.000000000  0.000000000     0.064824228  0.000000000  0.000000000
     0.000000000 15.426331000  0.000000000     0.000000000  0.064824228  0.000000000
     0.000000000  0.000000000 15.426331000     0.000000000  0.000000000  0.064824228

  length of vectors
    15.426331000 15.426331000 15.426331000     0.064824228  0.064824228  0.064824228


 
 old parameters found on file WAVECAR:
  energy-cutoff  :      500.00
  volume of cell :     3671.03
      direct lattice vectors                 reciprocal lattice vectors
    15.426331000  0.000000000  0.000000000     0.064824228  0.000000000  0.000000000
     0.000000000 15.426331000  0.000000000     0.000000000  0.064824228  0.000000000
     0.000000000  0.000000000 15.426331000     0.000000000  0.000000000  0.064824228

  length of vectors

 
 k-points in units of 2pi/SCALE and weight: Title                                   
   0.01620606  0.01620606  0.01620606       0.250
  -0.01620606  0.01620606  0.01620606       0.250
   0.01620606 -0.01620606  0.01620606       0.250
  -0.01620606 -0.01620606  0.01620606       0.250
 
 k-points in reciprocal lattice and weights: Title                                   
   0.25000000  0.25000000  0.25000000       0.250
  -0.25000000  0.25000000  0.25000000       0.250
   0.25000000 -0.25000000  0.25000000       0.250
  -0.25000000 -0.25000000  0.25000000       0.250
 
 position of ions in fractional coordinates (direct lattice) 
   0.31728490  0.12859653  0.61457793
   0.99629359  0.99521082  0.99466524
   0.99985337  0.99186828  0.49404514
   0.00615765  0.49570218  0.99756989
   0.99425981  0.50354850  0.50779805
   0.49485536  0.99403105  0.99817996
   0.50254640  0.00387348  0.50120951
   0.50426105  0.49641513  0.99473763
   0.49190894  0.49826919  0.49518839
   0.00832292  0.00333353  0.25602930
   0.00224399  0.00720751  0.75733485
   0.99383800  0.49312989  0.25145429
   0.99284930  0.49838238  0.74187576
   0.50716122  0.00774915  0.24893167
   0.49204075  0.00426056  0.75131575
   0.49269422  0.49666591  0.25705083
   0.49999019  0.50535163  0.75762028
   0.99543122  0.25780407  0.00161655
   0.99752165  0.24812549  0.49187189
   0.99885551  0.75812141  0.00613340
   0.99770208  0.75675102  0.50593378
   0.49508091  0.25840218  0.99961577
   0.50859014  0.24217926  0.50118456
   0.50784452  0.75628490  0.99752837
   0.50816265  0.75235158  0.50821490
   0.00017034  0.25842223  0.25559338
   0.00437370  0.24145509  0.74770394
   0.00752714  0.74813051  0.24314280
   0.99341775  0.75152790  0.74282663
   0.50753113  0.24064288  0.25083457
   0.50592781  0.24219266  0.74913680
   0.50747114  0.75025000  0.25167912
   0.50148213  0.74292594  0.74218869
   0.25755012  0.99920315  0.00623314
   0.25211194  0.99102507  0.50629404
   0.24395749  0.50844085  0.99627690
   0.25482754  0.49860325  0.50842136
   0.75734408  0.00017738  0.99335358
   0.74893660  0.00718150  0.49469146
   0.74156481  0.50042721  0.00452686
   0.75559503  0.49765719  0.50536251
   0.24638652  0.00364286  0.24295842
   0.25897752  0.99580341  0.74658900
   0.25504928  0.49154485  0.25083713
   0.24743226  0.50886592  0.74265175
   0.74465981  0.00117082  0.25527610
   0.74854023  0.00684933  0.75554742
   0.75553274  0.49752964  0.24203793
   0.75663485  0.49676599  0.74202510
   0.25726327  0.25121643  0.00651036
   0.25158382  0.26094929  0.50549516
   0.25283914  0.74350622  0.99235829
   0.25305531  0.75497459  0.49322953
   0.75712816  0.25160818  0.00725768
   0.74063865  0.24272136  0.49852091
   0.74223162  0.74847828  0.99356148
   0.74261509  0.75242336  0.49345847
   0.25107624  0.25692078  0.24287706
   0.24211802  0.25267484  0.74548359
   0.24472390  0.74867220  0.25597958
   0.24941396  0.74271089  0.75769370
   0.74218893  0.25016973  0.24232902
   0.74402355  0.24107567  0.75022065
   0.74643538  0.74903799  0.25660594
   0.75773563  0.75114249  0.75627482
   0.01089682  0.50267585  0.62503559
   0.00593202  0.00505630  0.37662040
   0.00851957  0.00202865  0.87300242
   0.49699481  0.50193195  0.37506029
   0.49171287  0.50476262  0.87412070
   0.00170448  0.74571020  0.12570087
   0.00397872  0.74561406  0.62411431
   0.50406159  0.76085490  0.62424469
   0.99788598  0.24764837  0.37707919
   0.26151491  0.01042463  0.12529159
   0.26799566  0.01413164  0.62657455
   0.23708867  0.50916247  0.62667858
   0.74777596  0.48807551  0.12514278
   0.74330058  0.49075128  0.62400708
   0.74360347  0.00338284  0.37517616
   0.74071843  0.00327756  0.87326925
   0.24885086  0.24121689  0.12596108
   0.25802453  0.23794266  0.62615150
   0.74549513  0.26226028  0.12612511
   0.25704404  0.75601779  0.37534077
   0.25371246  0.76346850  0.87474888
   0.75456081  0.74661818  0.37378818
   0.75167155  0.74740971  0.87502342
   0.12480948  0.50719492  0.99211579
   0.62569885  0.51103928  0.99606079
   0.12665733  0.00760714  0.24494172
   0.62614525  0.00684098  0.23951655
   0.62537097  0.26387057  0.49725785
   0.62488164  0.73803706  0.99988509
   0.62540541  0.76476152  0.49353918
   0.12446119  0.24529640  0.74692006
   0.12647340  0.74676554  0.25366083
   0.62564080  0.23802548  0.25796794
   0.62469052  0.24504093  0.74521869
   0.62353300  0.74680819  0.25226620
   0.37599853  0.99657935  0.98662607
   0.37485168  0.51015015  0.50696790
   0.87381654  0.99775083  0.99334296
   0.87547793  0.50770323  0.50276410
   0.37506532  0.99023641  0.76774726
   0.37366864  0.49098756  0.24619730
   0.87575639  0.49162925  0.24950362
   0.87511359  0.49884145  0.74369665
   0.37524672  0.25209683  0.00016702
   0.87438840  0.25285635  0.00226946
   0.87532430  0.75307904  0.74660612
   0.51161246  0.12664309  0.51082983
   0.99063725  0.12597190  0.74553032
   0.48909302  0.12471276  0.24790314
   0.49102923  0.12339350  0.73730469
   0.49541555  0.62577150  0.74246145
   0.00437283  0.37543818  0.00460027
   0.00602846  0.87497656  0.00173765
   0.99097080  0.87489534  0.49913631
   0.50593807  0.37435415  0.99728514
   0.50841946  0.87521032  0.99441542
   0.01184223  0.37374810  0.24762609
   0.25908462  0.62578321  0.99010561
   0.73687098  0.12475984  0.50779827
   0.25610812  0.62543933  0.76200573
   0.75798551  0.12467089  0.74091617
   0.25510747  0.37553934  0.50561570
   0.25802785  0.87480010  0.50999671
   0.23750823  0.37394255  0.24723287
   0.99491515  0.00311865  0.12674723
   0.99476569  0.99881250  0.62431205
   0.00373050  0.50838919  0.12534569
   0.48723603  0.99338549  0.12526788
   0.48336914  0.98307408  0.62859202
   0.50429068  0.49924633  0.12673721
   0.50895398  0.49292081  0.62471975
   0.00040252  0.49620558  0.37640182
   0.99285668  0.49750171  0.87304415
   0.51568002  0.99991232  0.37229174
   0.52007673  0.01079126  0.87454047
   0.00462294  0.24482121  0.12766806
   0.99598407  0.25687727  0.62222477
   0.50430714  0.25224541  0.12642055
   0.49102177  0.26174034  0.62462586
   0.49903388  0.75431911  0.12609965
   0.99889641  0.25120288  0.87438817
   0.99391060  0.75010009  0.37513861
   0.99986534  0.75116641  0.87391318
   0.49285929  0.24975222  0.37602786
   0.50222096  0.23983018  0.87429408
   0.49193182  0.74395157  0.37518938
   0.49439965  0.74444266  0.87334201
   0.24259573  0.50640851  0.12452296
   0.75733543  0.99720816  0.12541682
   0.75934100  0.99200658  0.62402376
   0.24184645  0.99538894  0.37740310
   0.23589350  0.99042195  0.87402962
   0.25027305  0.50007377  0.37582150
   0.26030014  0.48621639  0.87345634
   0.74912778  0.50799839  0.37451049
   0.75477957  0.50793819  0.87384564
   0.25079186  0.74605077  0.12469279
   0.24776290  0.74120140  0.62522845
   0.75428163  0.26336489  0.62374425
   0.75067709  0.75241766  0.12536983
   0.74608626  0.75241418  0.62397007
   0.24941980  0.25115009  0.37676754
   0.24869281  0.25832943  0.87466645
   0.75909810  0.24044020  0.37403436
   0.74955553  0.24103268  0.87586672
   0.12697212  0.00609136  0.00819736
   0.12583033  0.99778442  0.51182741
   0.12353020  0.49456681  0.49082688
   0.62523527  0.00557118  0.01209637
   0.62959319  0.97626999  0.51372015
   0.62533366  0.48914399  0.49498101
   0.12806569  0.00758289  0.73863679
   0.12428478  0.51138716  0.25257923
   0.12359592  0.50070079  0.76524184
   0.62350419  0.00255997  0.73472957
   0.62517319  0.50554952  0.25203400
   0.62606197  0.49994488  0.75739904
   0.12527302  0.24603978  0.99700285
   0.12323288  0.25341098  0.50346413
   0.12576473  0.74165270  0.99802597
   0.12506392  0.75665558  0.49483512
   0.62589296  0.24432426  0.99681447
   0.12483375  0.23315715  0.25478006
   0.12427775  0.74671722  0.75302503
   0.62629884  0.74705577  0.75281613
   0.37327542  0.01303000  0.48540693
   0.37311041  0.49291227  0.00905868
   0.87546483  0.01413609  0.49721194
   0.87481396  0.49451984  0.00158531
   0.37674704  0.99163041  0.26252715
   0.37404440  0.49193542  0.73886529
   0.87526146  0.99424649  0.25396820
   0.87514186  0.98716221  0.75355028
   0.37634581  0.23824906  0.49930481
   0.37676560  0.76031784  0.00436457
   0.37743807  0.73676076  0.50453607
   0.87416471  0.24172003  0.50304149
   0.87270810  0.75817628  0.00158226
   0.87331156  0.73644244  0.50476805
   0.37728210  0.26222579  0.25049009
   0.37494476  0.25480433  0.75469549
   0.37727875  0.75342269  0.24547719
   0.37509892  0.76201056  0.74537680
   0.87447169  0.26064574  0.24811138
   0.87426371  0.25995687  0.75045692
   0.87465330  0.75346331  0.24702954
   0.99984769  0.12705998  0.00077673
   0.00667226  0.12577493  0.50865758
   0.99079099  0.62541181  0.99478675
   0.00930490  0.62666633  0.49236868
   0.49999808  0.12435973  0.00696435
   0.48708651  0.62748253  0.00577024
   0.51318925  0.62557063  0.50493873
   0.98812196  0.12768909  0.24813534
   0.99366512  0.62323842  0.25670574
   0.00223155  0.62465552  0.75599525
   0.49457497  0.62548410  0.24557706
   0.99459409  0.37393040  0.49978286
   0.48695300  0.37256880  0.49706048
   0.48356952  0.87461956  0.48827894
   0.00356987  0.37404733  0.75058072
   0.00201955  0.87591263  0.25096746
   0.00881745  0.87604641  0.74668927
   0.50986494  0.37169337  0.25079501
   0.50157481  0.37306415  0.75440852
   0.50246332  0.87498405  0.25369319
   0.50861690  0.87506134  0.76192844
   0.25033832  0.12506378  0.98600766
   0.24899086  0.12534232  0.49972807
   0.23962820  0.62702614  0.49418728
   0.74954768  0.12596573  0.00811705
   0.76470980  0.62508503  0.00758589
   0.73861160  0.62523316  0.50476117
   0.26374962  0.12672597  0.26243207
   0.26076492  0.12490991  0.75963544
   0.25699350  0.62385793  0.25240551
   0.76570808  0.12604162  0.24258311
   0.75505167  0.62435220  0.24199404
   0.74754759  0.62465564  0.74309669
   0.24425997  0.37613811  0.00730685
   0.24241716  0.87465134  0.01055007
   0.74276046  0.37485180  0.98422299
   0.76259281  0.37254480  0.48786433
   0.74068357  0.87453198  0.00160336
   0.76904656  0.87541471  0.49778737
   0.24608989  0.37676732  0.74357523
   0.24996243  0.87612361  0.24342791
   0.24025789  0.87367365  0.73530151
   0.74086868  0.37372033  0.26688967
   0.74690642  0.37306574  0.76072815
   0.74819250  0.87481191  0.24885369
   0.74280072  0.87530638  0.74863440
 
 position of ions in cartesian coordinates  (Angst):
   4.89454192  1.98377270  9.48068253
  15.36915474 15.35245159 15.34403517
  15.42406902 15.30088846  7.62130393
   0.09498999  7.64686583 15.38884326
  15.33778087  7.76790590  7.83346087
   7.63380264 15.33425198 15.39825442
   7.75244716  0.05975357  7.73182379
   7.77889786  7.65786409 15.34515190
   7.58835020  7.68646549  7.63894008
   0.12839210  0.05142421  3.94959267
   0.03461655  0.11118545 11.68289810
  15.33127399  7.60718491  3.87901703
  15.31602195  7.68821151 11.44442108
   7.82363683  0.11954090  3.84010235
   7.59038346  0.06572477 11.59004550
   7.60046411  7.66173276  3.96535119
   7.71301413  7.79572150 11.68730123
  15.35585143  3.97697094  0.02493739
  15.38809915  3.82766587  7.58777857
  15.40867570 11.69503182  0.09461580
  15.39088260 11.67389173  7.80470188
   7.63728196  3.98619754 15.42040373
   7.84567983  3.73593745  7.73143887
   7.83417761 11.66670112 15.38820276
   7.83908521 11.60602446  7.83989129
   0.00262766  3.98650692  3.94286807
   0.06747011  3.72476613 11.53432850
   0.11611615 11.54090895  3.75080130
  15.32479110 11.59331812 11.45908946
   7.82934315  3.71223667  3.86945714
   7.80460993  3.73614421 11.55643226
   7.82841770 11.57360485  3.88248547
   7.73602927 11.46062152 11.44924842
   3.97305347 15.41403853  0.09615447
   3.88916231 15.28788072  7.81025938
   3.76336905  7.84337690 15.36889723
   3.93105404  7.69161871  7.84307615
  11.68304048  0.00273634 15.32380115
  11.55334383  0.11078424  7.63127420
  11.43962426  7.71975577  0.06983280
  11.65605901  7.67702456  7.79588931
   3.80083994  0.05619600  3.74795703
   3.99507302 15.36159294 11.51712904
   3.93447466  7.58273353  3.86949665
   3.81697188  7.84993412 11.45639166
  11.48736868  0.01806145  3.93797359
  11.54722940  0.10566002 11.65532455
  11.65509817  7.67505684  3.73375728
  11.67209960  7.66327663 11.44672479
   3.96862833  3.87534783  0.10043103
   3.88101533  4.02549010  7.79793561
   3.90038021 11.46957309 15.30844746
   3.90371500 11.64648790  7.60872201
  11.67970957  3.88139109  0.11195938
  11.42533702  3.74430009  7.69034854
  11.44991072 11.54627373 15.32700824
  11.45582619 11.60713173  7.61225367
   3.87318523  3.96334507  3.74670191
   3.73499266  3.89784571 11.50007655
   3.77519185 11.54926522  3.94882573
   3.84754223 11.45730403 11.68843388
  11.44925213  3.85920109  3.73824775
  11.47755362  3.71891313 11.57315212
  11.51475926 11.55490795  3.95848815
  11.68908060 11.58737274 11.66654564
   0.16809802  7.75444399  9.64200587
   0.09150926  0.07800016  5.80987096
   0.13142567  0.03129466 13.46722430
   7.66680640  7.74296843  5.78580424
   7.58532548  7.78663518 13.48447531
   0.02629381 11.50357237  1.93910327
   0.06137701 11.50208927  9.62779386
   7.77582089 11.73719959  9.62980514
  15.39371937  3.82030566  5.81694840
   4.03421560  0.16081373  1.93278959
   4.13418979  0.21799937  9.66574640
   3.65740822  7.85450875  9.66735126
  11.53543944  7.52921434  1.93049396
  11.46640083  7.57049173  9.62613972
  11.47107324  0.05218479  5.78759163
  11.42656761  0.05056078 13.47134050
   3.83885566  3.72109165  1.94311727
   3.98037176  3.67058219  9.65922032
  11.50025460  4.04571393  1.94564771
   3.96524645 11.66258066  5.79013094
   3.91385231 11.77751779 13.49416569
  11.64010489 11.51757921  5.76618012
  11.59553419 11.52978960 13.49840085
   1.92535232  7.82415670 15.30470662
   9.65223760  7.88346115 15.36556349
   1.95385789  0.11735022  3.77855204
   9.65912393  0.10553121  3.69486155
   9.64717957  4.07055479  7.67086426
   9.63963095 11.38520403 15.42455836
   9.64771092 11.79746436  7.61349877
   1.91997951  3.78402341 11.52223607
   1.95102048 11.51985240  3.91305594
   9.65134206  3.67185991  3.97949883
   9.63668279  3.78008253 11.49599024
   9.61882641 11.52051031  3.89154185
   5.80027785 15.37356289 15.22002035
   5.78258610  7.86974515  7.82065464
  13.47978317 15.39163451 15.32363726
  13.50541226  7.83199807  7.75580541
   5.78588181 15.27571468 11.84352338
   5.76433617  7.57413657  3.79792104
  13.50970796  7.58403557  3.84892536
  13.49979183  7.69529331 11.47251076
   5.78868016  3.88892914  0.00257651
  13.48860482  3.90064583  0.03500946
  13.50304233 11.61724648 11.51739311
   7.89230312  1.95363817  7.88023003
  15.28189818  1.94328417 11.50079749
   7.54491086  1.92386039  3.82423583
   7.57477940  1.90350890 11.37390624
   7.64244419  9.65335822 11.45345616
   0.06745669  5.79163369  0.07096523
   0.09299702 13.49767811  0.02680550
  15.28704353 13.49642512  7.69984187
   7.80476807  5.77491104 15.38445060
   7.84304682 13.50128412 15.34018148
   0.18268219  5.76556188  3.81996200
   3.99672507  9.65353891 15.27369686
  11.36721569  1.92458663  7.83346417
   3.95080861  9.64823412 11.75495263
  11.69293537  1.92321442 11.42961814
   3.93537231  5.79319417  7.79979510
   3.98042297 13.49495585  7.86737801
   3.66388065  5.76856154  3.81389605
  15.34789049  0.04810936  1.95524470
  15.34558476 15.40801229  9.63084432
   0.05754789  7.84257995  1.93362404
   7.51626431 15.32429340  1.93242375
   7.45661239 15.16522619  9.69686855
   7.77935501  7.70153911  1.95509010
   7.85129264  7.60395964  9.63713362
   0.00620941  7.65463152  5.80649913
  15.31613577  7.67462609 13.46786809
   7.95505063 15.42497839  5.74309558
   8.02287585  0.16646950 13.49095077
   0.07131507  3.77669297  1.96944979
  15.36437999  3.96267385  9.59864522
   7.77960879  3.89122125  1.95020531
   7.57466437  4.03769318  9.63568532
   7.69826181 11.63637619  1.94525489
  15.40930669  3.87513870 13.48860136
  15.33239387 11.57129222  5.78701244
  15.42425372 11.58774168 13.48127403
   7.60301051  3.85276044  5.80073027
   7.74742677  3.69969978 13.48714986
   7.58870307 11.47644309  5.78779554
   7.62677258 11.48401884 13.47246294
   3.74236196  7.81202525  1.92093236
  11.68290699 15.38326312  1.93472133
  11.71384555 15.30302178  9.62639711
   3.73080338 15.35519929  5.82194509
   3.63897115 15.27857678 13.48307020
   3.86079491  7.71430352  5.79754680
   4.01547619  7.50053498 13.47422666
  11.55629309  7.83655138  5.77732271
  11.64347940  7.83562258 13.48023210
   3.86879830 11.50882612  1.92355221
   3.82207244 11.43401811  9.64498105
  11.63579814  4.06275394  9.62208522
  11.58019325 11.60704380  1.93399653
  11.50937361 11.60699013  9.62556878
   3.84763245  3.87432437  5.81214079
   3.83641760  3.98507522 13.49289411
  11.71009850  3.70911011  5.76997783
  11.56289177  3.71824996 13.51140995
   1.95871390  0.09396732  0.12645525
   1.94110038 15.39215280  7.89561898
   1.90561778  7.62935126  7.57165793
   9.64508623  0.08594283  0.18660257
   9.71231297 15.06026395  7.92481709
   9.64660406  7.54569711  7.63574088
   1.97558379  0.11697620 11.39445560
   1.91725820  7.88882753  3.89637082
   1.90663153  7.72397619 11.80487394
   9.61838199  0.03949097 11.33418154
   9.64412862  7.79877421  3.88795993
   9.65783922  7.71231518 11.68388832
   1.93250314  3.79549112 15.38009592
   1.90103113  3.90920159  7.76660434
   1.94008833 11.44097999 15.39587899
   1.92927735 11.67241942  7.63349041
   9.65523195  3.76902694 15.37718991
   1.92572670  3.59675938  3.93032147
   1.91714965 11.51910699 11.61641341
   9.66149329 11.52432951 11.61319078
   5.75827024  0.20100513  7.48804800
   5.75572462  7.60382780  0.13974220
  13.50521022  0.21806806  7.67015589
  13.49516975  7.62862673  0.02445555
   5.81182454 15.29721900  4.04983076
   5.77013267  7.58875858 11.39798050
  13.50207304 15.33757543  3.91779745
  13.50022797 15.22829097 11.62451601
   5.80563507  3.67530880  7.70244120
   5.81211080 11.72891461  0.06732934
   5.82248455 11.36551543  7.78314048
  13.48515412  3.72885321  7.76008461
  13.46268404 11.69587823  0.02440845
  13.47199313 11.36060489  7.78671895
   5.82007856  4.04518190  3.86414303
   5.78402198  3.93069594 11.64218238
   5.82002682 11.62254776  3.78681244
   5.78640016 11.75502708 11.49842926
  13.48988969  4.02080750  3.82744821
  13.48668136  4.01018070 11.57679687
  13.49269135 11.62317436  3.81075942
  15.42398144  1.96006934  0.01198210
   0.10292855  1.94024563  7.84672019
  15.28426980  9.64780964 15.34590971
   0.14354052  9.66716223  7.59544219
   7.71313588  1.91841436  0.10743440
   7.51395780  9.67975320  0.08901366
   7.91662729  9.65025958  7.78935194
  15.24309646  1.96977418  3.82781790
  15.32860711  9.61428210  3.96002772
   0.03442462  9.63614277 11.66223301
   7.62947723  9.64892479  3.78835306
  15.34293766  5.76837416  7.70981576
   7.51189814  5.74736956  7.66781951
   7.45970348 13.49217080  7.53235254
   0.05506998  5.77017794 11.57870663
   0.03115428 13.51211818  3.87150707
   0.13602096 13.51418185 11.51867587
   7.86534539  5.73386498  3.86884687
   7.73745910  5.75501100 11.63775551
   7.75116547 13.49779351  3.91355517
   7.84609272 13.49898590 11.75376027
   3.86180173  1.92927522 15.21048046
   3.84101548  1.93357209  7.70897064
   3.69658389  9.67271276  7.62349655
  11.56277055  1.94318907  0.12521628
  11.79666649  9.64276858  0.11702242
  11.39406696  9.64505372  7.78661293
   4.06868888  1.95491673  4.04836396
   4.02264604  1.92690166 11.71838770
   3.96446686  9.62383892  3.89369100
  11.81206631  1.94435976  3.74216741
  11.64767705  9.63146363  3.73308023
  11.53191655  9.63614460 11.46325544
   3.76803520  5.80243103  0.11271786
   3.73960731 13.49266115  0.16274890
  11.45806864  5.78258791 15.18294962
  11.76400913  5.74699937  7.52595662
  11.42602999 13.49081977  0.02473389
  11.86356675 13.50443704  7.67903278
   3.79626404  5.81213740 11.47063759
   3.85600321 13.51537282  3.75519950
   3.70629774 13.47757897 11.34300450
  11.42888553  5.76513351  4.11712842
  11.52202568  5.75503565 11.73524423
  11.54186515 13.49513813  3.83889932
  11.45868985 13.50276600 11.54868213
 


--------------------------------------------------------------------------------------------------------


 k-point  1 :   0.2500 0.2500 0.2500  plane waves:   93161
 k-point  2 :  -0.2500 0.2500 0.2500  plane waves:   93161
 k-point  3 :   0.2500-0.2500 0.2500  plane waves:   93161
 k-point  4 :  -0.2500-0.2500 0.2500  plane waves:   93161

 maximum and minimum number of plane-waves per node :     11686    11606

 maximum number of plane-waves:     93161
 maximum index in each direction: 
   IXMAX=   28   IYMAX=   28   IZMAX=   27
   IXMIN=  -28   IYMIN=  -28   IZMIN=  -28


 real space projection operators:
  total allocation   :     105557.48 KBytes
  max/ min on nodes  :      13237.14      13152.45


 parallel 3D FFT for wavefunctions:
    minimum data exchange during FFTs selected (reduces bandwidth)
 parallel 3D FFT for charge:
    minimum data exchange during FFTs selected (reduces bandwidth)


 total amount of memory used by VASP MPI-rank0   291503. kBytes
=======================================================================

   base      :      30000. kBytes
   nonlr-proj:      49468. kBytes
   fftplans  :      27976. kBytes
   grid      :      34041. kBytes
   one-center:       1026. kBytes
   wavefun   :     148992. kBytes
 
     INWAV:  cpu time   53.8181: real time   54.9414
 Broyden mixing: mesh for mixing (old mesh)
   NGX = 57   NGY = 57   NGZ = 57
  (NGX  =240   NGY  =240   NGZ  =240)
  gives a total of 185193 points

 charge density for first step will be calculated from the start-wavefunctions


--------------------------------------------------------------------------------------------------------


 Maximum index for non-local projection operator          968
 Maximum index for augmentation-charges         3293 (set IRDMAX)


--------------------------------------------------------------------------------------------------------


 initial charge from wavefunction
 First call to EWALD:  gamma=   0.115
 Maximum number of real-space cells 3x 3x 3
 Maximum number of reciprocal cells 3x 3x 3

    FEWALD:  cpu time    0.0189: real time    0.0190


--------------------------------------- Iteration      1(   1)  ---------------------------------------


    POTLOK:  cpu time    0.2736: real time    0.2851
    SETDIJ:  cpu time    1.3674: real time    1.3685
     EDDAV:  cpu time  128.9980: real time  130.2698
       DOS:  cpu time    0.0029: real time    0.0029
    CHARGE:  cpu time    5.1367: real time    5.2595
    MIXING:  cpu time    0.0709: real time    0.0769
    --------------------------------------------
      LOOP:  cpu time  135.8497: real time  137.2629

 eigenvalue-minimisations  : 23040
 total energy-change (2. order) :-0.1862643E+04  (-0.3603923E+03)
 number of electron    1923.0000026 magnetization       1.0000000
 augmentation part      506.0170441 magnetization       0.6192027

 Broyden mixing:
  rms(total) = 0.93177E+01    rms(broyden)= 0.93140E+01
  rms(prec ) = 0.14357E+02
  weight for this iteration     100.00

 Free energy of the ion-electron system (eV)
  ---------------------------------------------------
  alpha Z        PSCENC =      6118.73324990
  Ewald energy   TEWEN  =   -103517.23304823
  -Hartree energ DENC   =    -65100.18740834
  -exchange      EXHF   =         0.00000000
  -V(xc)+E(xc)   XCENC  =      8958.19706231
  PAW double counting   =    197877.71175348  -198872.49338329
  entropy T*S    EENTRO =        -0.00366061
  eigenvalues    EBANDS =    -25904.61964552
  atomic energy  EATOM  =    178577.25249613
  Solvation  Ediel_sol  =         0.00000000
  ---------------------------------------------------
  free energy    TOTEN  =     -1862.64258417 eV

  energy without entropy =    -1862.63892357  energy(sigma->0) =    -1862.64075387


--------------------------------------------------------------------------------------------------------




--------------------------------------- Iteration      1(   2)  ---------------------------------------


    POTLOK:  cpu time    0.2990: real time    0.3188
    SETDIJ:  cpu time    1.4307: real time    1.4663
     EDDAV:  cpu time  148.0772: real time  148.9048
       DOS:  cpu time    0.0029: real time    0.0029
    CHARGE:  cpu time    5.2659: real time    5.2696
    MIXING:  cpu time    0.0953: real time    0.1161
    --------------------------------------------
      LOOP:  cpu time  155.1709: real time  156.0785

 eigenvalue-minimisations  : 27096
 total energy-change (2. order) :-0.1082941E+03  (-0.4566075E+03)
 number of electron    1923.0000027 magnetization       1.0000000
 augmentation part      510.2319379 magnetization       0.3747682

 Broyden mixing:
  rms(total) = 0.12332E+02    rms(broyden)= 0.12327E+02
  rms(prec ) = 0.18501E+02
  weight for this iteration     100.00

 eigenvalues of (default mixing * dielectric matrix)
  average eigenvalue GAMMA=   0.3953
  0.3953

 Free energy of the ion-electron system (eV)
  ---------------------------------------------------
  alpha Z        PSCENC =      6118.73324990
  Ewald energy   TEWEN  =   -103517.23304823
  -Hartree energ DENC   =    -65258.23327366
  -exchange      EXHF   =         0.00000000
  -V(xc)+E(xc)   XCENC  =      8958.05994138
  PAW double counting   =    199873.05146048  -200835.68593025
  entropy T*S    EENTRO =        -0.00323985
  eigenvalues    EBANDS =    -25886.87834422
  atomic energy  EATOM  =    178577.25249613
  Solvation  Ediel_sol  =         0.00000000
  ---------------------------------------------------
  free energy    TOTEN  =     -1970.93668832 eV

  energy without entropy =    -1970.93344846  energy(sigma->0) =    -1970.93506839


--------------------------------------------------------------------------------------------------------




--------------------------------------- Iteration      1(   3)  ---------------------------------------


    POTLOK:  cpu time    0.2718: real time    0.2786
    SETDIJ:  cpu time    1.4061: real time    1.4309
     EDDAV:  cpu time  152.0923: real time  153.1591
       DOS:  cpu time    0.0017: real time    0.0017
    CHARGE:  cpu time    5.2788: real time    5.2826
    MIXING:  cpu time    0.0076: real time    0.0076
    --------------------------------------------
      LOOP:  cpu time  159.0583: real time  160.1605

 eigenvalue-minimisations  : 27816
 total energy-change (2. order) : 0.9017538E+02  (-0.1399908E+03)
 number of electron    1923.0000026 magnetization       1.0000000
 augmentation part      491.4764831 magnetization       0.5691137

 Broyden mixing:
  rms(total) = 0.64004E+01    rms(broyden)= 0.63977E+01
  rms(prec ) = 0.73649E+01
  weight for this iteration     100.00

 eigenvalues of (default mixing * dielectric matrix)
  average eigenvalue GAMMA=   0.4442
  0.4442  0.4442

 Free energy of the ion-electron system (eV)
  ---------------------------------------------------
  alpha Z        PSCENC =      6118.73324990
  Ewald energy   TEWEN  =   -103517.23304823
  -Hartree energ DENC   =    -65343.45524653
  -exchange      EXHF   =         0.00000000
  -V(xc)+E(xc)   XCENC  =      8959.91971954
  PAW double counting   =    200101.26577471  -201054.56665646
  entropy T*S    EENTRO =        -0.00000000
  eigenvalues    EBANDS =    -25722.67759713
  atomic energy  EATOM  =    178577.25249613
  Solvation  Ediel_sol  =         0.00000000
  ---------------------------------------------------
  free energy    TOTEN  =     -1880.76130808 eV

  energy without entropy =    -1880.76130808  energy(sigma->0) =    -1880.76130808


--------------------------------------------------------------------------------------------------------




--------------------------------------- Iteration      1(   4)  ---------------------------------------


    POTLOK:  cpu time    0.2619: real time    0.2641
    SETDIJ:  cpu time    1.4308: real time    1.4521
     EDDAV:  cpu time  141.1543: real time  142.3764
       DOS:  cpu time    0.0017: real time    0.0017
    CHARGE:  cpu time    5.2600: real time    5.2636
    MIXING:  cpu time    0.0078: real time    0.0078
    --------------------------------------------
      LOOP:  cpu time  148.1166: real time  149.3657

 eigenvalue-minimisations  : 25236
 total energy-change (2. order) : 0.5613613E+02  (-0.4188150E+02)
 number of electron    1923.0000026 magnetization       1.0000000
 augmentation part      493.0460555 magnetization       0.5719662

 Broyden mixing:
  rms(total) = 0.47148E+01    rms(broyden)= 0.47140E+01
  rms(prec ) = 0.54834E+01
  weight for this iteration     100.00

 eigenvalues of (default mixing * dielectric matrix)
  average eigenvalue GAMMA=   0.5780
  0.6476  0.6476  0.4388

 Free energy of the ion-electron system (eV)
  ---------------------------------------------------
  alpha Z        PSCENC =      6118.73324990
  Ewald energy   TEWEN  =   -103517.23304823
  -Hartree energ DENC   =    -65281.58531376
  -exchange      EXHF   =         0.00000000
  -V(xc)+E(xc)   XCENC  =      8966.19858545
  PAW double counting   =    200206.27973840  -201179.10316202
  entropy T*S    EENTRO =        -0.00000000
  eigenvalues    EBANDS =    -25715.16772793
  atomic energy  EATOM  =    178577.25249613
  Solvation  Ediel_sol  =         0.00000000
  ---------------------------------------------------
  free energy    TOTEN  =     -1824.62518206 eV

  energy without entropy =    -1824.62518206  energy(sigma->0) =    -1824.62518206


--------------------------------------------------------------------------------------------------------




--------------------------------------- Iteration      1(   5)  ---------------------------------------


    POTLOK:  cpu time    0.2636: real time    0.2638
    SETDIJ:  cpu time    1.3855: real time    1.3864
     EDDAV:  cpu time  148.3025: real time  149.2186
       DOS:  cpu time    0.0018: real time    0.0018
    CHARGE:  cpu time    5.2550: real time    5.2584
    MIXING:  cpu time    0.0081: real time    0.0081
    --------------------------------------------
      LOOP:  cpu time  155.2165: real time  156.1371

 eigenvalue-minimisations  : 26616
 total energy-change (2. order) : 0.4563792E+02  (-0.1307845E+02)
 number of electron    1923.0000026 magnetization       1.0000000
 augmentation part      493.7171939 magnetization       0.5784700

 Broyden mixing:
  rms(total) = 0.26203E+01    rms(broyden)= 0.26198E+01
  rms(prec ) = 0.30719E+01
  weight for this iteration     100.00

 eigenvalues of (default mixing * dielectric matrix)
  average eigenvalue GAMMA=   0.6755
  0.8722  0.8722  0.4788  0.4788

 Free energy of the ion-electron system (eV)
  ---------------------------------------------------
  alpha Z        PSCENC =      6118.73324990
  Ewald energy   TEWEN  =   -103517.23304823
  -Hartree energ DENC   =    -65291.70614383
  -exchange      EXHF   =         0.00000000
  -V(xc)+E(xc)   XCENC  =      8973.25013330
  PAW double counting   =    199744.21497828  -200735.66888589
  entropy T*S    EENTRO =        -0.00000000
  eigenvalues    EBANDS =    -25647.83004499
  atomic energy  EATOM  =    178577.25249613
  Solvation  Ediel_sol  =         0.00000000
  ---------------------------------------------------
  free energy    TOTEN  =     -1778.98726533 eV

  energy without entropy =    -1778.98726533  energy(sigma->0) =    -1778.98726533


--------------------------------------------------------------------------------------------------------




--------------------------------------- Iteration      1(   6)  ---------------------------------------


    POTLOK:  cpu time    0.2622: real time    0.2643
    SETDIJ:  cpu time    1.3865: real time    1.3875
     EDDAV:  cpu time  153.1812: real time  154.0075
       DOS:  cpu time    0.0018: real time    0.0018
    CHARGE:  cpu time    5.2637: real time    5.2666
    MIXING:  cpu time    0.0092: real time    0.0092
    --------------------------------------------
      LOOP:  cpu time  160.1046: real time  160.9370

 eigenvalue-minimisations  : 27744
 total energy-change (2. order) : 0.1644913E+02  (-0.6243458E+01)
 number of electron    1923.0000026 magnetization       1.0000000
 augmentation part      495.0451054 magnetization       0.5821140

 Broyden mixing:
  rms(total) = 0.16324E+01    rms(broyden)= 0.16321E+01
  rms(prec ) = 0.17911E+01
  weight for this iteration     100.00

 eigenvalues of (default mixing * dielectric matrix)
  average eigenvalue GAMMA=   0.7056
  0.9672  0.9672  0.4395  0.5770  0.5770

 Free energy of the ion-electron system (eV)
  ---------------------------------------------------
  alpha Z        PSCENC =      6118.73324990
  Ewald energy   TEWEN  =   -103517.23304823
  -Hartree energ DENC   =    -65218.10881787
  -exchange      EXHF   =         0.00000000
  -V(xc)+E(xc)   XCENC  =      8972.88319064
  PAW double counting   =    199214.78723441  -200215.82612759
  entropy T*S    EENTRO =        -0.00000000
  eigenvalues    EBANDS =    -25695.02631537
  atomic energy  EATOM  =    178577.25249613
  Solvation  Ediel_sol  =         0.00000000
  ---------------------------------------------------
  free energy    TOTEN  =     -1762.53813798 eV

  energy without entropy =    -1762.53813798  energy(sigma->0) =    -1762.53813798


--------------------------------------------------------------------------------------------------------




--------------------------------------- Iteration      1(   7)  ---------------------------------------


    POTLOK:  cpu time    0.2638: real time    0.2658
    SETDIJ:  cpu time    1.3758: real time    1.3767
     EDDAV:  cpu time  150.1322: real time  151.1004
       DOS:  cpu time    0.0019: real time    0.0019
    CHARGE:  cpu time    5.2308: real time    5.2337
    MIXING:  cpu time    0.0103: real time    0.0103
    --------------------------------------------
      LOOP:  cpu time  157.0148: real time  157.9888

 eigenvalue-minimisations  : 27012
 total energy-change (2. order) : 0.1802172E+01  (-0.1006878E+01)
 number of electron    1923.0000026 magnetization       1.0000000
 augmentation part      495.9318924 magnetization       0.5762079

 Broyden mixing:
  rms(total) = 0.11637E+01    rms(broyden)= 0.11631E+01
  rms(prec ) = 0.12795E+01
  weight for this iteration     100.00

 eigenvalues of (default mixing * dielectric matrix)
  average eigenvalue GAMMA=   0.8810
  1.4188  1.4188  0.7125  0.7125  0.5117  0.5117

 Free energy of the ion-electron system (eV)
  ---------------------------------------------------
  alpha Z        PSCENC =      6118.73324990
  Ewald energy   TEWEN  =   -103517.23304823
  -Hartree energ DENC   =    -65174.77664728
  -exchange      EXHF   =         0.00000000
  -V(xc)+E(xc)   XCENC  =      8971.24519164
  PAW double counting   =    198920.35260455  -199922.81452307
  entropy T*S    EENTRO =        -0.00000000
  eigenvalues    EBANDS =    -25733.49528958
  atomic energy  EATOM  =    178577.25249613
  Solvation  Ediel_sol  =         0.00000000
  ---------------------------------------------------
  free energy    TOTEN  =     -1760.73596595 eV

  energy without entropy =    -1760.73596595  energy(sigma->0) =    -1760.73596595


--------------------------------------------------------------------------------------------------------




--------------------------------------- Iteration      1(   8)  ---------------------------------------


    POTLOK:  cpu time    0.2612: real time    0.2634
    SETDIJ:  cpu time    1.3830: real time    1.3833
     EDDAV:  cpu time  149.2025: real time  150.1075
       DOS:  cpu time    0.0019: real time    0.0019
    CHARGE:  cpu time    5.2778: real time    5.2810
    MIXING:  cpu time    0.0083: real time    0.0083
    --------------------------------------------
      LOOP:  cpu time  156.1346: real time  157.0454

 eigenvalue-minimisations  : 26892
 total energy-change (2. order) : 0.5238388E+00  (-0.9020629E+00)
[...]
   81        1.574   3.458   0.000   5.032
   82        1.575   3.463   0.000   5.037
   83        1.566   3.491   0.000   5.057
   84        1.576   3.470   0.000   5.046
   85        1.575   3.461   0.000   5.036
   86        1.575   3.463   0.000   5.038
   87        1.576   3.463   0.000   5.039
   88        1.575   3.465   0.000   5.040
   89        1.575   3.460   0.000   5.035
   90        1.575   3.456   0.000   5.031
   91        1.574   3.458   0.000   5.033
   92        1.574   3.459   0.000   5.033
   93        1.577   3.474   0.000   5.051
   94        1.577   3.470   0.000   5.047
   95        1.576   3.471   0.000   5.047
   96        1.575   3.465   0.000   5.039
   97        1.575   3.464   0.000   5.039
   98        1.576   3.473   0.000   5.048
   99        1.574   3.463   0.000   5.038
  100        1.576   3.458   0.000   5.033
  101        1.574   3.454   0.000   5.029
  102        1.574   3.459   0.000   5.033
  103        1.575   3.457   0.000   5.032
  104        1.574   3.459   0.000   5.033
  105        1.577   3.466   0.000   5.043
  106        1.575   3.461   0.000   5.036
  107        1.575   3.460   0.000   5.035
  108        1.576   3.474   0.000   5.049
  109        1.575   3.463   0.000   5.038
  110        1.575   3.461   0.000   5.036
  111        1.576   3.473   0.000   5.049
  112        1.574   3.475   0.000   5.049
  113        1.577   3.472   0.000   5.049
  114        1.577   3.475   0.000   5.052
  115        1.573   3.459   0.000   5.032
  116        1.574   3.460   0.000   5.035
  117        1.575   3.461   0.000   5.036
  118        1.576   3.462   0.000   5.037
  119        1.576   3.474   0.000   5.050
  120        1.575   3.459   0.000   5.034
  121        1.575   3.462   0.000   5.036
  122        1.577   3.467   0.000   5.044
  123        1.576   3.469   0.000   5.046
  124        1.575   3.467   0.000   5.043
  125        1.576   3.474   0.000   5.051
  126        1.576   3.469   0.000   5.045
  127        1.577   3.464   0.000   5.041
  128        1.576   3.466   0.000   5.042
  129        1.576   3.469   0.000   5.045
  130        1.737   4.368   0.000   6.105
  131        1.737   4.369   0.000   6.106
  132        1.737   4.378   0.000   6.116
  133        1.738   4.384   0.000   6.122
  134        1.738   4.383   0.000   6.121
  135        1.737   4.368   0.000   6.105
  136        1.736   4.366   0.000   6.102
  137        1.738   4.379   0.000   6.118
  138        1.738   4.380   0.000   6.118
  139        1.738   4.389   0.000   6.126
  140        1.739   4.381   0.000   6.119
  141        1.738   4.380   0.000   6.118
  142        1.738   4.380   0.000   6.118
  143        1.738   4.388   0.000   6.126
  144        1.739   4.385   0.000   6.125
  145        1.738   4.382   0.000   6.120
  146        1.737   4.382   0.000   6.119
  147        1.736   4.368   0.000   6.105
  148        1.736   4.368   0.000   6.104
  149        1.738   4.388   0.000   6.126
  150        1.738   4.387   0.000   6.125
  151        1.738   4.374   0.000   6.113
  152        1.738   4.379   0.000   6.116
  153        1.737   4.379   0.000   6.116
  154        1.737   4.370   0.000   6.106
  155        1.737   4.369   0.000   6.106
  156        1.736   4.366   0.000   6.102
  157        1.737   4.364   0.000   6.101
  158        1.738   4.376   0.000   6.114
  159        1.738   4.373   0.000   6.111
  160        1.736   4.366   0.000   6.102
  161        1.736   4.367   0.000   6.104
  162        1.736   4.367   0.000   6.103
  163        1.736   4.365   0.000   6.101
  164        1.738   4.377   0.000   6.115
  165        1.737   4.369   0.000   6.105
  166        1.736   4.368   0.000   6.105
  167        1.736   4.369   0.000   6.106
  168        1.737   4.370   0.000   6.107
  169        1.738   4.376   0.000   6.114
  170        1.737   4.377   0.000   6.115
  171        1.737   4.367   0.000   6.104
  172        1.738   4.384   0.000   6.122
  173        1.737   4.368   0.000   6.105
  174        1.737   4.365   0.000   6.102
  175        1.738   4.381   0.000   6.119
  176        1.736   4.364   0.000   6.101
  177        1.737   4.375   0.000   6.112
  178        1.737   4.367   0.000   6.103
  179        1.738   4.375   0.000   6.113
  180        1.737   4.374   0.000   6.111
  181        1.736   4.367   0.000   6.103
  182        1.738   4.377   0.000   6.115
  183        1.737   4.369   0.000   6.105
  184        1.737   4.382   0.000   6.119
  185        1.737   4.380   0.000   6.118
  186        1.737   4.380   0.000   6.117
  187        1.737   4.370   0.000   6.106
  188        1.738   4.377   0.000   6.115
  189        1.738   4.380   0.000   6.119
  190        1.738   4.380   0.000   6.118
  191        1.738   4.385   0.000   6.123
  192        1.737   4.368   0.000   6.104
  193        1.738   4.386   0.000   6.124
  194        1.736   4.366   0.000   6.102
  195        1.736   4.366   0.000   6.102
  196        1.737   4.379   0.000   6.117
  197        1.736   4.366   0.000   6.103
  198        1.737   4.377   0.000   6.114
  199        1.738   4.381   0.000   6.118
  200        1.738   4.379   0.000   6.117
  201        1.738   4.376   0.000   6.114
  202        1.739   4.377   0.000   6.116
  203        1.738   4.379   0.000   6.116
  204        1.738   4.375   0.000   6.113
  205        1.737   4.376   0.000   6.113
  206        1.737   4.367   0.000   6.104
  207        1.737   4.368   0.000   6.105
  208        1.738   4.380   0.000   6.117
  209        1.737   4.376   0.000   6.113
  210        1.737   4.369   0.000   6.106
  211        1.737   4.371   0.000   6.107
  212        1.737   4.368   0.000   6.105
  213        1.739   4.374   0.000   6.113
  214        1.736   4.366   0.000   6.103
  215        1.739   4.379   0.000   6.117
  216        1.736   4.366   0.000   6.102
  217        1.737   4.366   0.000   6.103
  218        1.737   4.378   0.000   6.115
  219        1.738   4.377   0.000   6.115
  220        1.738   4.379   0.000   6.117
  221        1.738   4.381   0.000   6.119
  222        1.738   4.380   0.000   6.118
  223        1.737   4.380   0.000   6.118
  224        1.738   4.378   0.000   6.116
  225        1.738   4.383   0.000   6.121
  226        1.738   4.378   0.000   6.116
  227        1.737   4.379   0.000   6.116
  228        1.738   4.378   0.000   6.116
  229        1.738   4.379   0.000   6.116
  230        1.736   4.368   0.000   6.104
  231        1.738   4.377   0.000   6.115
  232        1.737   4.366   0.000   6.103
  233        1.738   4.378   0.000   6.116
  234        1.736   4.375   0.000   6.111
  235        1.738   4.376   0.000   6.113
  236        1.738   4.386   0.000   6.125
  237        1.739   4.384   0.000   6.122
  238        1.737   4.377   0.000   6.114
  239        1.738   4.375   0.000   6.113
  240        1.737   4.378   0.000   6.115
  241        1.738   4.376   0.000   6.114
  242        1.738   4.383   0.000   6.122
  243        1.738   4.385   0.000   6.124
  244        1.737   4.380   0.000   6.117
  245        1.738   4.376   0.000   6.113
  246        1.738   4.375   0.000   6.112
  247        1.738   4.383   0.000   6.122
  248        1.738   4.375   0.000   6.113
  249        1.738   4.385   0.000   6.123
  250        1.738   4.373   0.000   6.111
  251        1.738   4.380   0.000   6.119
  252        1.737   4.379   0.000   6.117
  253        1.739   4.376   0.000   6.115
  254        1.739   4.384   0.000   6.123
  255        1.738   4.376   0.000   6.114
  256        1.738   4.386   0.000   6.124
  257        1.738   4.378   0.000   6.116
--------------------------------------------------
tot        345.4631195.014 112.2711652.748
 


 magnetization (x)
 
# of ion       s       p       d       tot
------------------------------------------
    1       -0.000  -0.000   0.000  -0.000
    2        0.000   0.000   0.000   0.000
    3        0.000   0.000   0.000   0.000
    4       -0.000  -0.000  -0.000  -0.000
    5       -0.000   0.000  -0.000  -0.000
    6       -0.000  -0.000   0.000   0.000
    7        0.005   0.006   0.923   0.934
    8        0.000   0.000  -0.000  -0.000
    9       -0.000  -0.000  -0.000  -0.000
   10        0.000  -0.000   0.000   0.000
   11        0.000  -0.000   0.000   0.000
   12       -0.000  -0.000  -0.000  -0.000
   13       -0.000   0.000  -0.000  -0.000
   14       -0.000  -0.000   0.007   0.007
   15       -0.000   0.000   0.007   0.007
   16       -0.000   0.000  -0.000  -0.000
   17       -0.000  -0.000   0.000   0.000
   18       -0.000  -0.000  -0.000  -0.000
   19       -0.000  -0.000  -0.000  -0.000
   20       -0.000  -0.000  -0.000  -0.000
   21       -0.000  -0.000  -0.000  -0.000
   22        0.000   0.000   0.000   0.000
   23       -0.000  -0.000  -0.004  -0.004
   24       -0.000  -0.000   0.000   0.000
   25       -0.000  -0.000  -0.000  -0.000
   26       -0.000  -0.000  -0.000  -0.000
   27       -0.000  -0.000   0.000  -0.000
   28       -0.000  -0.000   0.000   0.000
   29       -0.000  -0.000  -0.000  -0.000
   30       -0.000  -0.000  -0.000  -0.000
   31       -0.000  -0.000  -0.000  -0.000
   32       -0.000  -0.000   0.000   0.000
   33       -0.000  -0.000   0.000  -0.000
   34        0.000   0.000   0.000   0.000
   35        0.000   0.000   0.006   0.006
   36       -0.000  -0.000  -0.000  -0.000
   37        0.000  -0.000  -0.000  -0.000
   38       -0.000  -0.000   0.000   0.000
   39        0.000   0.000   0.006   0.006
   40       -0.000  -0.000  -0.000  -0.000
   41        0.000   0.000  -0.000  -0.000
   42        0.000   0.000   0.000   0.000
   43        0.000   0.000   0.003   0.003
   44       -0.000  -0.000  -0.000  -0.000
   45       -0.000  -0.000   0.000   0.000
   46        0.000   0.000   0.003   0.003
   47        0.000  -0.000   0.000   0.000
   48       -0.000  -0.000  -0.000  -0.000
   49       -0.000   0.000  -0.000  -0.000
   50       -0.000  -0.000  -0.000  -0.000
   51       -0.000  -0.000   0.000   0.000
   52       -0.000  -0.000  -0.000  -0.000
   53       -0.000  -0.000  -0.000  -0.000
   54       -0.000   0.000   0.000   0.000
   55       -0.000  -0.000  -0.000  -0.000
   56       -0.000  -0.000  -0.000  -0.000
   57       -0.000  -0.000  -0.000  -0.000
   58       -0.000  -0.000   0.000  -0.000
   59       -0.000  -0.000   0.000   0.000
   60       -0.000  -0.000  -0.000  -0.000
   61       -0.000  -0.000   0.000   0.000
   62       -0.000  -0.000  -0.000  -0.000
   63       -0.000  -0.000  -0.000  -0.000
   64       -0.000  -0.000   0.000   0.000
   65       -0.000  -0.000   0.000   0.000
   66        0.000   0.000   0.000   0.000
   67       -0.000  -0.000   0.000  -0.000
   68        0.000   0.000   0.000   0.000
   69        0.000   0.000   0.000   0.000
   70       -0.000  -0.000   0.000  -0.000
   71        0.000   0.000   0.000   0.000
   72        0.000   0.000   0.000   0.000
   73       -0.000  -0.000   0.000  -0.000
   74        0.000   0.000   0.000   0.000
   75        0.000  -0.000   0.000   0.000
   76       -0.000  -0.001   0.000  -0.001
   77       -0.000  -0.000   0.000  -0.000
   78        0.000   0.000   0.000   0.000
   79        0.000   0.000   0.000   0.000
   80       -0.000  -0.001   0.000  -0.001
   81        0.000   0.000   0.000   0.000
   82       -0.000   0.000   0.000   0.000
   83       -0.000  -0.000   0.000  -0.000
   84       -0.000   0.000   0.000  -0.000
   85       -0.000  -0.000   0.000  -0.000
   86       -0.000  -0.000   0.000  -0.000
   87       -0.000  -0.000   0.000  -0.000
   88        0.000   0.000   0.000   0.000
   89        0.000   0.000   0.000   0.000
   90        0.000   0.000   0.000   0.000
   91        0.000   0.000   0.000   0.000
   92       -0.000  -0.001   0.000  -0.001
   93        0.000  -0.000   0.000  -0.000
   94        0.000   0.000   0.000   0.000
   95       -0.000  -0.000   0.000  -0.000
   96       -0.000  -0.000   0.000  -0.000
   97        0.000   0.000   0.000   0.000
   98       -0.000  -0.000   0.000  -0.000
   99       -0.000  -0.000   0.000  -0.000
  100       -0.000  -0.000   0.000  -0.000
  101       -0.000  -0.000   0.000  -0.000
  102        0.000   0.000   0.000   0.000
  103        0.000   0.000   0.000   0.000
  104       -0.000  -0.000   0.000  -0.000
  105       -0.000  -0.001   0.000  -0.001
  106       -0.000   0.000   0.000   0.000
  107        0.000   0.000   0.000   0.000
  108        0.000   0.000   0.000   0.000
  109       -0.000  -0.000   0.000  -0.000
  110       -0.000   0.000   0.000   0.000
  111        0.000   0.000   0.000   0.000
  112       -0.001  -0.017   0.000  -0.018
  113       -0.000  -0.000   0.000  -0.000
  114       -0.000  -0.000   0.000  -0.000
  115       -0.000  -0.000   0.000  -0.000
  116       -0.000  -0.000   0.000  -0.000
  117        0.000   0.000   0.000   0.000
  118        0.000   0.000   0.000   0.000
  119       -0.000  -0.000   0.000  -0.000
  120       -0.000  -0.000   0.000  -0.000
  121       -0.000  -0.000   0.000  -0.000
  122        0.000   0.000   0.000   0.000
  123       -0.000   0.000   0.000   0.000
  124       -0.000  -0.000   0.000  -0.000
  125       -0.000  -0.000   0.000  -0.000
  126       -0.000  -0.000   0.000  -0.000
  127       -0.000  -0.000   0.000  -0.000
  128       -0.000  -0.000   0.000  -0.000
  129        0.000  -0.000   0.000  -0.000
  130        0.000   0.000   0.000   0.000
  131       -0.000  -0.000   0.000  -0.000
  132        0.000   0.000   0.000   0.000
  133       -0.000  -0.000   0.000  -0.000
  134       -0.000   0.002   0.000   0.002
  135       -0.000  -0.000   0.000  -0.000
  136       -0.000  -0.000   0.000  -0.000
  137        0.000   0.000   0.000   0.000
  138       -0.000   0.000   0.000   0.000
  139       -0.000   0.002   0.000   0.002
  140       -0.000  -0.000   0.000  -0.000
  141        0.000   0.000   0.000   0.000
  142        0.000   0.000   0.000   0.000
  143        0.000  -0.000   0.000  -0.000
  144        0.000  -0.000   0.000  -0.000
  145       -0.000  -0.000   0.000  -0.000
  146       -0.000   0.000   0.000   0.000
  147       -0.000   0.000   0.000   0.000
  148        0.000   0.000   0.000   0.000
  149        0.000  -0.000   0.000  -0.000
  150        0.000  -0.000   0.000  -0.000
  151       -0.000  -0.000   0.000  -0.000
  152       -0.000  -0.000   0.000  -0.000
  153        0.000   0.000   0.000   0.000
  154       -0.000   0.000   0.000   0.000
  155        0.000   0.000   0.000   0.000
  156        0.000   0.000   0.000   0.000
  157       -0.000   0.000   0.000   0.000
  158       -0.000  -0.000   0.000  -0.000
  159        0.000   0.000   0.000   0.000
  160        0.000   0.000   0.000   0.000
  161        0.000   0.000   0.000   0.000
  162       -0.000  -0.000   0.000  -0.000
  163       -0.000  -0.000   0.000  -0.000
  164        0.000   0.000   0.000   0.000
  165        0.000  -0.000   0.000  -0.000
  166       -0.000   0.000   0.000   0.000
  167        0.000  -0.000   0.000  -0.000
  168       -0.000  -0.000   0.000  -0.000
  169       -0.000   0.000   0.000   0.000
  170       -0.000   0.000   0.000   0.000
  171        0.000   0.000   0.000   0.000
  172        0.000  -0.000   0.000  -0.000
  173       -0.000  -0.000   0.000  -0.000
  174       -0.000  -0.000   0.000  -0.000
  175       -0.000   0.002   0.000   0.002
  176       -0.000  -0.000   0.000  -0.000
  177       -0.000   0.000   0.000   0.000
  178        0.000   0.000   0.000   0.000
  179        0.000   0.000   0.000   0.000
  180       -0.000   0.000   0.000   0.000
  181       -0.000   0.000   0.000   0.000
  182       -0.000  -0.000   0.000  -0.000
  183        0.000   0.000   0.000   0.000
  184       -0.000  -0.000   0.000  -0.000
  185        0.000   0.000   0.000   0.000
  186       -0.000  -0.000   0.000  -0.000
  187       -0.000   0.000   0.000   0.000
  188        0.000   0.000   0.000   0.000
  189       -0.000  -0.000   0.000  -0.000
  190       -0.000  -0.000   0.000  -0.000
  191       -0.000   0.002   0.000   0.002
  192       -0.000  -0.000   0.000  -0.000
  193        0.000  -0.000   0.000  -0.000
  194        0.000   0.000   0.000   0.000
  195        0.000   0.000   0.000   0.000
  196       -0.000  -0.000   0.000  -0.000
  197       -0.000  -0.000   0.000  -0.000
  198        0.000   0.000   0.000   0.000
  199       -0.000  -0.000   0.000  -0.000
  200        0.000   0.000   0.000   0.000
  201       -0.000  -0.000   0.000  -0.000
  202        0.000  -0.000   0.000  -0.000
  203        0.000   0.000   0.000   0.000
  204       -0.000  -0.000   0.000  -0.000
  205       -0.000  -0.000   0.000  -0.000
  206       -0.000  -0.000   0.000  -0.000
  207       -0.000  -0.000   0.000  -0.000
  208       -0.000  -0.000   0.000  -0.000
  209        0.000  -0.000   0.000  -0.000
  210        0.000  -0.000   0.000  -0.000
  211        0.000  -0.000   0.000  -0.000
  212        0.000  -0.000   0.000  -0.000
  213       -0.000  -0.000   0.000  -0.000
  214        0.000   0.000   0.000   0.000
  215       -0.000  -0.000   0.000  -0.000
  216       -0.000  -0.000   0.000  -0.000
  217        0.000   0.000   0.000   0.000
  218       -0.000  -0.000   0.000  -0.000
  219       -0.000  -0.000   0.000  -0.000
  220       -0.000   0.000   0.000   0.000
  221        0.000   0.000   0.000   0.000
  222       -0.000  -0.000   0.000  -0.000
  223       -0.000  -0.000   0.000  -0.000
  224       -0.000  -0.000   0.000  -0.000
  225       -0.000  -0.005   0.000  -0.005
  226        0.000   0.000   0.000   0.000
  227       -0.000  -0.000   0.000  -0.000
  228       -0.000  -0.000   0.000  -0.000
  229       -0.000  -0.000   0.000  -0.000
  230       -0.000  -0.000   0.000  -0.000
  231       -0.000  -0.000   0.000  -0.000
  232       -0.000  -0.000   0.000  -0.000
  233       -0.000  -0.000   0.000  -0.000
  234       -0.000  -0.000   0.000  -0.000
  235       -0.000  -0.000   0.000  -0.000
  236       -0.000  -0.000   0.000  -0.000
  237       -0.000   0.000   0.000   0.000
  238       -0.000  -0.000   0.000  -0.000
  239       -0.000  -0.000   0.000  -0.000
  240       -0.000  -0.000   0.000  -0.000
  241       -0.000  -0.000   0.000  -0.000
  242       -0.000  -0.000   0.000  -0.000
  243       -0.000  -0.000   0.000  -0.000
  244       -0.000  -0.000   0.000  -0.000
  245        0.000   0.000   0.000   0.000
  246       -0.000  -0.000   0.000  -0.000
  247       -0.000   0.000   0.000   0.000
  248       -0.000  -0.000   0.000  -0.000
  249       -0.000  -0.000   0.000  -0.000
  250       -0.000  -0.000   0.000  -0.000
  251        0.000  -0.000   0.000  -0.000
  252       -0.000  -0.000   0.000  -0.000
  253       -0.000  -0.000   0.000  -0.000
  254       -0.000  -0.000   0.000  -0.000
  255       -0.000  -0.000   0.000  -0.000
  256       -0.000  -0.000   0.000  -0.000
  257       -0.000  -0.000   0.000  -0.000
--------------------------------------------------
tot          0.002  -0.014   0.952   0.940
 

 total amount of memory used by VASP MPI-rank0   291503. kBytes
=======================================================================

   base      :      30000. kBytes
   nonlr-proj:      49468. kBytes
   fftplans  :      27976. kBytes
   grid      :      34041. kBytes
   one-center:       1026. kBytes
   wavefun   :     148992. kBytes
 
  
  
 General timing and accounting informations for this job:
 ========================================================
  
                  Total CPU time used (sec):     4423.307
                            User time (sec):     4027.202
                          System time (sec):      396.105
                         Elapsed time (sec):     4461.009
  
                   Maximum memory used (kb):      625248.
                   Average memory used (kb):           0.
  
                          Minor page faults:       388621
                          Major page faults:            6
                 Voluntary context switches:        30880
