LTO                                     
           1
     7.735855   -0.000010   -0.000003
    -0.000010    7.787919    0.004910
    -0.000003    0.004957    7.686739
   Ti   O    F 
   8   8  16
Direct configuration=     1
   0.99999972  0.00056587  0.98609291
   0.99999796  0.99907607  0.50955196
   0.99999651  0.49989326  0.98043343
   0.00008103  0.49986089  0.50094854
   0.49999973  0.98257996  0.98654021
   0.49999746  0.02001603  0.51058245
   0.49999636  0.50956388  0.01960666
   0.50013164  0.49496861  0.49543692
   0.24324609  0.50068885  0.50049975
   0.75664695  0.50068912  0.50049948
   0.49999405  0.24591698  0.50086516
   0.49999973  0.75148700  0.00143584
   0.99999983  0.99968520  0.75131593
   0.99999061  0.50099359  0.75621255
   0.49999976  0.00068270  0.75215394
   0.49998952  0.49996772  0.24807823
   0.24378291  0.00372627  0.00988842
   0.24378262  0.99624503  0.49143089
   0.24646947  0.49501826  0.00181657
   0.75621655  0.00372624  0.00988847
   0.75621227  0.99624554  0.49143083
   0.75352192  0.49501797  0.00181917
   0.99999975  0.24619927  0.00662164
   0.99999224  0.24004575  0.49160351
   0.99999981  0.75416414  0.00674979
   0.99999103  0.75866348  0.49159118
   0.49999972  0.24701090  0.00227613
   0.49999037  0.75750825  0.49984072
   0.99999978  0.99965332  0.24821420
   0.99998812  0.50074250  0.23971702
   0.49999977  0.00109596  0.24893695
   0.49998669  0.49830136  0.75792056
