 vasp.5.4.4.18Apr17-6-g9f103f2a35 (build Apr 30 2017 20:10:35) complex          
  
 executed on             LinuxIFC date 2017.08.09  15:06:08
 running on   64 total cores
 distrk:  each k-point on   64 cores,    1 groups
 distr:  one band on NCORES_PER_BAND=   8 cores,    8 groups


--------------------------------------------------------------------------------------------------------


 INCAR:
 POTCAR:   PAW_PBE Ti_pv 07Sep2000                
 POTCAR:   PAW_PBE O 08Apr2002                    
 POTCAR:    PAW_PBE F 08Apr2002                   
 POTCAR:   PAW_PBE Ti_pv 07Sep2000                
   VRHFIN =Ti: d3 s1                                                            
   LEXCH  = PE                                                                  
   EATOM  =  1042.3781 eV,   76.6126 Ry                                         
                                                                                
   TITEL  = PAW_PBE Ti_pv 07Sep2000                                             
   LULTRA =        F    use ultrasoft PP ?                                      
   IUNSCR =        1    unscreen: 0-lin 1-nonlin 2-no                           
   RPACOR =    2.200    partial core radius                                     
   POMASS =   47.880; ZVAL   =   10.000    mass and valenz                      
   RCORE  =    2.500    outmost cutoff radius                                   
   RWIGS  =    2.500; RWIGS  =    1.323    wigner-seitz radius (au A)           
   ENMAX  =  222.338; ENMIN  =  166.753 eV                                      
   RCLOC  =    1.701    cutoff for local pot                                    
   LCOR   =        T    correct aug charges                                     
   LPAW   =        T    paw PP                                                  
   EAUG   =  482.848                                                            
   DEXC   =    -.008                                                            
   RMAX   =    3.092    core radius for proj-oper                               
   RAUG   =    1.300    factor for augmentation sphere                          
   RDEP   =    2.538    radius for radial grids                                 
   QCUT   =   -4.042; QGAM   =    8.085    optimization parameters              
                                                                                
   Description                                                                  
     l     E      TYP  RCUT    TYP  RCUT                                        
     1   .000     23  2.300                                                     
     1  -.100     23  2.300                                                     
     2   .000     23  2.500                                                     
     2   .000     23  2.500                                                     
     0   .000     23  2.500                                                     
     0  1.500     23  2.500                                                     
     3   .000      7   .000                                                     
  local pseudopotential read in
  partial core-charges read in
  atomic valenz-charges read in
  non local Contribution for L=           1  read in
    real space projection operators read in
  non local Contribution for L=           1  read in
    real space projection operators read in
  non local Contribution for L=           2  read in
    real space projection operators read in
  non local Contribution for L=           2  read in
    real space projection operators read in
  non local Contribution for L=           0  read in
    real space projection operators read in
  non local Contribution for L=           0  read in
    real space projection operators read in
    PAW grid and wavefunctions read in
 
   number of l-projection  operators is LMAX  =           6
   number of lm-projection operators is LMMAX =          18
 
 POTCAR:   PAW_PBE O 08Apr2002                    
   VRHFIN =O: s2p4                                                              
   LEXCH  = PE                                                                  
   EATOM  =   432.3788 eV,   31.7789 Ry                                         
                                                                                
   TITEL  = PAW_PBE O 08Apr2002                                                 
   LULTRA =        F    use ultrasoft PP ?                                      
   IUNSCR =        0    unscreen: 0-lin 1-nonlin 2-no                           
   RPACOR =     .000    partial core radius                                     
   POMASS =   16.000; ZVAL   =    6.000    mass and valenz                      
   RCORE  =    1.520    outmost cutoff radius                                   
   RWIGS  =    1.550; RWIGS  =     .820    wigner-seitz radius (au A)           
   ENMAX  =  400.000; ENMIN  =  300.000 eV                                      
   ICORE  =        2    local potential                                         
   LCOR   =        T    correct aug charges                                     
   LPAW   =        T    paw PP                                                  
   EAUG   =  605.392                                                            
   DEXC   =     .000                                                            
   RMAX   =    2.264    core radius for proj-oper                               
   RAUG   =    1.300    factor for augmentation sphere                          
   RDEP   =    1.550    radius for radial grids                                 
   QCUT   =   -5.520; QGAM   =   11.041    optimization parameters              
                                                                                
   Description                                                                  
     l     E      TYP  RCUT    TYP  RCUT                                        
     0   .000     23  1.200                                                     
     0  -.700     23  1.200                                                     
     1   .000     23  1.520                                                     
     1   .600     23  1.520                                                     
     2   .000      7  1.500                                                     
  local pseudopotential read in
  atomic valenz-charges read in
  non local Contribution for L=           0  read in
    real space projection operators read in
  non local Contribution for L=           0  read in
    real space projection operators read in
  non local Contribution for L=           1  read in
    real space projection operators read in
  non local Contribution for L=           1  read in
    real space projection operators read in
    PAW grid and wavefunctions read in
 
   number of l-projection  operators is LMAX  =           4
   number of lm-projection operators is LMMAX =           8
 
 POTCAR:    PAW_PBE F 08Apr2002                   
   VRHFIN =F: s2p5                                                              
   LEXCH  = PE                                                                  
   EATOM  =   659.6475 eV,   48.4827 Ry                                         
                                                                                
   TITEL  = PAW_PBE F 08Apr2002                                                 
   LULTRA =        F    use ultrasoft PP ?                                      
   IUNSCR =        1    unscreen: 0-lin 1-nonlin 2-no                           
   RPACOR =    1.200    partial core radius                                     
   POMASS =   18.998; ZVAL   =    7.000    mass and valenz                      
   RCORE  =    1.520    outmost cutoff radius                                   
   RWIGS  =    1.500; RWIGS  =    0.794    wigner-seitz radius (au A)           
   ENMAX  =  400.000; ENMIN  =  300.000 eV                                      
   ICORE  =        2    local potential                                         
   LCOR   =        T    correct aug charges                                     
   LPAW   =        T    paw PP                                                  
   EAUG   =  613.614                                                            
   RMAX   =    1.555    core radius for proj-oper                               
   RAUG   =    1.300    factor for augmentation sphere                          
   RDEP   =    1.539    radius for radial grids                                 
   RDEPT  =    1.299    core radius for aug-charge                              
                                                                                
   Atomic configuration                                                         
    4 entries                                                                   
     n  l   j            E        occ.                                          
     1  0  0.50      -663.3661   2.0000                                         
     2  0  0.50       -29.8995   2.0000                                         
     2  1  0.50       -11.1114   5.0000                                         
     3  2  1.50       -10.8847   0.0000                                         
   Description                                                                  
     l       E           TYP  RCUT    TYP  RCUT                                 
     0    -29.8995018     23  1.200                                             
     0     -9.5240782     23  1.200                                             
     1    -11.1113914     23  1.520                                             
     1      1.3605826     23  1.520                                             
     2    -10.8846608      7  1.500                                             
  local pseudopotential read in
  partial core-charges read in
  partial kinetic energy density read in
  atomic valenz-charges read in
  non local Contribution for L=           0  read in
    real space projection operators read in
  non local Contribution for L=           0  read in
    real space projection operators read in
  non local Contribution for L=           1  read in
    real space projection operators read in
  non local Contribution for L=           1  read in
    real space projection operators read in
    PAW grid and wavefunctions read in
 
   number of l-projection  operators is LMAX  =           4
   number of lm-projection operators is LMMAX =           8
 
 Optimization of the real space projectors (new method)

 maximal supplied QI-value         = 15.12
 optimisation between [QCUT,QGAM] = [ 13.45, 27.06] = [ 50.69,205.06] Ry 
 Optimized for a Real-space Cutoff    1.49 Angstroem

   l    n(q)    QCUT    max X(q) W(low)/X(q) W(high)/X(q)  e(spline) 
   1     12    13.455     4.841    0.13E-05    0.83E-06    0.56E-07
   1     12    13.455     5.701    0.32E-04    0.25E-04    0.17E-06
   2     11    13.455     4.569    0.64E-05    0.34E-05    0.50E-07
   2     11    13.455    32.276    0.49E-04    0.38E-04    0.46E-06
   0     12    13.455    30.046    0.17E-04    0.41E-05    0.51E-07
   0     12    13.455    45.433    0.12E-04    0.27E-04    0.38E-06
 Optimization of the real space projectors (new method)

 maximal supplied QI-value         = 24.76
 optimisation between [QCUT,QGAM] = [ 13.37, 26.98] = [ 50.04,203.89] Ry 
 Optimized for a Real-space Cutoff    1.17 Angstroem

   l    n(q)    QCUT    max X(q) W(low)/X(q) W(high)/X(q)  e(spline) 
   0      9    13.368     4.192    0.20E-04    0.58E-05    0.56E-07
   0      9    13.368     8.473    0.60E-04    0.52E-04    0.21E-06
   1      9    13.368     2.474    0.22E-04    0.17E-04    0.28E-07
   1      9    13.368     3.912    0.94E-04    0.97E-04    0.20E-06
 Optimization of the real space projectors (new method)

 maximal supplied QI-value         = 24.76
 optimisation between [QCUT,QGAM] = [ 13.37, 26.98] = [ 50.04,203.89] Ry 
 Optimized for a Real-space Cutoff    1.17 Angstroem

   l    n(q)    QCUT    max X(q) W(low)/X(q) W(high)/X(q)  e(spline) 
   0      9    13.368    14.049    0.39E-04    0.34E-04    0.16E-06
   0      9    13.368     8.945    0.54E-04    0.47E-04    0.20E-06
   1      9    13.368     7.086    0.99E-04    0.10E-03    0.23E-06
   1      9    13.368     6.747    0.86E-04    0.89E-04    0.21E-06

 ----------------------------------------------------------------------------- 
|                                                                             |
|  ADVICE TO THIS USER RUNNING 'VASP/VAMP'   (HEAR YOUR MASTER'S VOICE ...):  |
|                                                                             |
|      You enforced a specific xc-type in the INCAR file,                     |
|      a different type was found on the POTCAR file                          |
|          I HOPE YOU KNOW, WHAT YOU ARE  DOING                               |
|                                                                             |
 ----------------------------------------------------------------------------- 

 PAW_PBE Ti_pv 07Sep2000                :
 energy of atom  1       EATOM=-1042.3781
 kinetic energy error for atom=    0.0006 (will be added to EATOM!!)
 PAW_PBE O 08Apr2002                    :
 energy of atom  2       EATOM= -432.3788
 kinetic energy error for atom=    0.0091 (will be added to EATOM!!)
  PAW_PBE F 08Apr2002                   :
 energy of atom  3       EATOM= -659.6475
 kinetic energy error for atom=    0.0140 (will be added to EATOM!!)
 
 
 POSCAR: TiOF2 2x2x2 config 0256                 
  positions in direct lattice
  velocities in cartesian coordinates
 exchange correlation table for  LEXCH =       14
   RHO(1)=    0.500       N(1)  =     2000
   RHO(2)=  100.500       N(2)  =     4000

 VTST: version 3.1, (03/28/14)

 CHAIN: initializing optimizer
 
 OPT: Using VASP QUASI-newton optimizer
 CHAIN: Read ICHAIN            0
 
 POSCAR: TiOF2 2x2x2 config 0256                 
  positions in direct lattice
  velocities in cartesian coordinates
 


--------------------------------------------------------------------------------------------------------


 ion  position               nearest neighbor table
   1  0.000  0.989  0.988-  13 1.83   9 1.83  17 1.97  21 1.97  25 2.00  29 2.01
   2  1.000  0.989  0.512-  13 1.83  10 1.83  22 1.97  18 1.97  26 2.00  29 2.01
   3  1.000  0.511  0.012-  14 1.83   9 1.83  23 1.97  19 1.97  25 2.00  30 2.01
   4  0.000  0.511  0.488-  14 1.83  10 1.83  20 1.97  24 1.97  26 2.00  30 2.01
   5  0.500  0.989  0.988-  15 1.83  11 1.83  21 1.97  17 1.97  27 2.00  31 2.01
   6  0.500  0.989  0.512-  15 1.83  12 1.83  18 1.97  22 1.97  28 2.00  31 2.01
   7  0.500  0.511  0.012-  16 1.83  11 1.83  19 1.97  23 1.97  27 2.00  32 2.01
   8  0.500  0.511  0.488-  16 1.83  12 1.83  24 1.97  20 1.97  28 2.00  32 2.01
   9  0.000  0.750  0.000-   1 1.83   3 1.83
  10  1.000  0.750  0.500-   4 1.83   2 1.83
  11  0.500  0.750  0.000-   7 1.83   5 1.83
  12  0.500  0.750  0.500-   6 1.83   8 1.83
  13  0.000  0.005  0.750-   1 1.83   2 1.83
  14  1.000  0.495  0.250-   4 1.83   3 1.83
  15  0.500  0.005  0.750-   6 1.83   5 1.83
  16  0.500  0.495  0.250-   7 1.83   8 1.83
  17  0.250  0.006  0.007-   1 1.97   5 1.97
  18  0.250  0.006  0.493-   2 1.97   6 1.97
  19  0.250  0.494  0.993-   3 1.97   7 1.97
  20  0.250  0.494  0.507-   4 1.97   8 1.97
  21  0.750  0.006  0.007-   1 1.97   5 1.97
  22  0.750  0.006  0.493-   2 1.97   6 1.97
  23  0.750  0.494  0.993-   3 1.97   7 1.97
  24  0.750  0.494  0.507-   4 1.97   8 1.97
  25  1.000  0.250  1.000-   1 2.00   3 2.00
  26  1.000  0.250  0.500-   4 2.00   2 2.00
  27  0.500  0.250  1.000-   7 2.00   5 2.00
  28  0.500  0.250  0.500-   6 2.00   8 2.00
  29  1.000  0.010  0.250-   1 2.01   2 2.01
  30  0.000  0.490  0.750-   4 2.01   3 2.01
  31  0.500  0.010  0.250-   6 2.01   5 2.01
  32  0.500  0.490  0.750-   7 2.01   8 2.01
 

IMPORTANT INFORMATION: All symmetrisations will be switched off!
NOSYMM: (Re-)initialisation of all symmetry stuff for point group C_1.

 
 
 KPOINTS: Title                                   

Automatic generation of k-mesh.
Space group operators:
 irot       det(A)        alpha          n_x          n_y          n_z        tau_x        tau_y        tau_z
    1     1.000000     0.000001     1.000000     0.000000     0.000000     0.000000     0.000000     0.000000
 
 Subroutine IBZKPT returns following result:
 ===========================================
 
 Found     32 irreducible k-points:
 
 Following reciprocal coordinates:
            Coordinates               Weight
  0.125000  0.125000  0.125000      2.000000
  0.375000  0.125000  0.125000      2.000000
 -0.375000  0.125000  0.125000      2.000000
 -0.125000  0.125000  0.125000      2.000000
  0.125000  0.375000  0.125000      2.000000
  0.375000  0.375000  0.125000      2.000000
 -0.375000  0.375000  0.125000      2.000000
 -0.125000  0.375000  0.125000      2.000000
  0.125000 -0.375000  0.125000      2.000000
  0.375000 -0.375000  0.125000      2.000000
 -0.375000 -0.375000  0.125000      2.000000
 -0.125000 -0.375000  0.125000      2.000000
  0.125000 -0.125000  0.125000      2.000000
  0.375000 -0.125000  0.125000      2.000000
 -0.375000 -0.125000  0.125000      2.000000
 -0.125000 -0.125000  0.125000      2.000000
  0.125000  0.125000  0.375000      2.000000
  0.375000  0.125000  0.375000      2.000000
 -0.375000  0.125000  0.375000      2.000000
 -0.125000  0.125000  0.375000      2.000000
  0.125000  0.375000  0.375000      2.000000
  0.375000  0.375000  0.375000      2.000000
 -0.375000  0.375000  0.375000      2.000000
 -0.125000  0.375000  0.375000      2.000000
  0.125000 -0.375000  0.375000      2.000000
  0.375000 -0.375000  0.375000      2.000000
 -0.375000 -0.375000  0.375000      2.000000
 -0.125000 -0.375000  0.375000      2.000000
  0.125000 -0.125000  0.375000      2.000000
  0.375000 -0.125000  0.375000      2.000000
 -0.375000 -0.125000  0.375000      2.000000
 -0.125000 -0.125000  0.375000      2.000000
 
 Following cartesian coordinates:
            Coordinates               Weight
  0.015922  0.016324  0.016335      2.000000
  0.047767  0.016324  0.016335      2.000000
 -0.047767  0.016324  0.016335      2.000000
 -0.015922  0.016324  0.016335      2.000000
  0.015922  0.048973  0.016335      2.000000
  0.047767  0.048973  0.016335      2.000000
 -0.047767  0.048973  0.016335      2.000000
 -0.015922  0.048973  0.016335      2.000000
  0.015922 -0.048973  0.016335      2.000000
  0.047767 -0.048973  0.016335      2.000000
 -0.047767 -0.048973  0.016335      2.000000
 -0.015922 -0.048973  0.016335      2.000000
  0.015922 -0.016324  0.016335      2.000000
  0.047767 -0.016324  0.016335      2.000000
 -0.047767 -0.016324  0.016335      2.000000
 -0.015922 -0.016324  0.016335      2.000000
  0.015922  0.016324  0.049006      2.000000
  0.047767  0.016324  0.049006      2.000000
 -0.047767  0.016324  0.049006      2.000000
 -0.015922  0.016324  0.049006      2.000000
  0.015922  0.048973  0.049006      2.000000
  0.047767  0.048973  0.049006      2.000000
 -0.047767  0.048973  0.049006      2.000000
 -0.015922  0.048973  0.049006      2.000000
  0.015922 -0.048973  0.049006      2.000000
  0.047767 -0.048973  0.049006      2.000000
 -0.047767 -0.048973  0.049006      2.000000
 -0.015922 -0.048973  0.049006      2.000000
  0.015922 -0.016324  0.049006      2.000000
  0.047767 -0.016324  0.049006      2.000000
 -0.047767 -0.016324  0.049006      2.000000
 -0.015922 -0.016324  0.049006      2.000000
 


--------------------------------------------------------------------------------------------------------




 Dimension of arrays:
   k-points           NKPTS =     32   k-points in BZ     NKDIM =     32   number of bands    NBANDS=    160
   number of dos      NEDOS =   3001   number of ions     NIONS =     32
   non local maximal  LDIM  =      6   non local SUM 2l+1 LMDIM =     18
   total plane-waves  NPLWV = 343000
   max r-space proj   IRMAX =  10338   max aug-charges    IRDMAX= 231767
   dimension x,y,z NGX =    70 NGY =   70 NGZ =   70
   dimension x,y,z NGXF=   140 NGYF=  140 NGZF=  140
   support grid    NGXF=   280 NGYF=  280 NGZF=  280
   ions per type =               8   8  16
   NGX,Y,Z   is equivalent  to a cutoff of  14.82, 15.20, 15.21 a.u.
   NGXF,Y,Z  is equivalent  to a cutoff of  29.65, 30.40, 30.42 a.u.

 SYSTEM =  LTO                                     
 POSCAR =  TiOF2 2x2x2 config 0256                 

 Startparameter for this run:
   NWRITE =      2    write-flag & timer
   PREC   = accura    normal or accurate (medium, high low for compatibility)
   ISTART =      1    job   : 0-new  1-cont  2-samecut
   ICHARG =      0    charge: 1-file 2-atom 10-const
   ISPIN  =      2    spin polarized calculation?
   LNONCOLLINEAR =      F non collinear calculations
   LSORBIT =      F    spin-orbit coupling
   INIWAV =      1    electr: 0-lowe 1-rand  2-diag
   LASPH  =      T    aspherical Exc in radial PAW
   METAGGA=      F    non-selfconsistent MetaGGA calc.

 Electronic Relaxation 1
   ENCUT  =  700.0 eV  51.45 Ry    7.17 a.u.  16.94 16.52 16.51*2*pi/ulx,y,z
   ENINI  =  700.0     initial cutoff
   ENAUG  =  613.6 eV  augmentation charge cutoff
   NELM   =     60;   NELMIN=  2; NELMDL=  0     # of ELM steps 
   EDIFF  = 0.1E-05   stopping-criterion for ELM
   LREAL  =      T    real-space projection
   NLSPLINE    = F    spline interpolate recip. space projectors
   LCOMPAT=      F    compatible to vasp.4.4
   GGA_COMPAT  = T    GGA compatible to vasp.4.4-vasp.4.6
   LMAXPAW     = -100 max onsite density
   LMAXMIX     =    4 max onsite mixed and CHGCAR
   VOSKOWN=      0    Vosko Wilk Nusair interpolation
   ROPT   =   -0.00010  -0.00010  -0.00010
 Ionic relaxation
   EDIFFG = -.1E-01   stopping-criterion for IOM
   NSW    =    100    number of steps for IOM
   NBLOCK =      1;   KBLOCK =    100    inner block; outer block 
   IBRION =      1    ionic relax: 0-MD 1-quasi-New 2-CG
   NFREE  =      0    steps in history (QN), initial steepest desc. (CG)
   ISIF   =      3    stress and relaxation
   IWAVPR =     11    prediction:  0-non 1-charg 2-wave 3-comb
   ISYM   =      0    0-nonsym 1-usesym 2-fastsym
   LCORR  =      T    Harris-Foulkes like correction to forces

   POTIM  = 0.5000    time-step for ionic-motion
   TEIN   =    0.0    initial temperature
   TEBEG  =    0.0;   TEEND  =   0.0 temperature during run
   SMASS  =  -3.00    Nose mass-parameter (am)
   estimated Nose-frequenzy (Omega)   =  0.10E-29 period in steps =****** mass=  -0.141E-26a.u.
   SCALEE = 1.0000    scale energy and forces
   NPACO  =    256;   APACO  = 16.0  distance and # of slots for P.C.
   PSTRESS=    0.0 pullay stress

  Mass of Ions in am
   POMASS =  47.88 16.00 19.00
  Ionic Valenz
   ZVAL   =  10.00  6.00  7.00
  Atomic Wigner-Seitz radii
   RWIGS  =  -1.00 -1.00 -1.00
  virtual crystal weights 
   VCA    =   1.00  1.00  1.00
   NELECT =     240.0000    total number of electrons
   NUPDOWN=      -1.0000    fix difference up-down

 DOS related values:
   EMIN   =  10.00;   EMAX   =-10.00  energy-range for DOS
   EFERMI =   0.00
   ISMEAR =     0;   SIGMA  =   0.01  broadening in eV -4-tet -1-fermi 0-gaus

 Electronic relaxation 2 (details)
   IALGO  =     38    algorithm
   LDIAG  =      T    sub-space diagonalisation (order eigenvalues)
   LSUBROT=      F    optimize rotation matrix (better conditioning)
   TURBO    =      0    0=normal 1=particle mesh
   IRESTART =      0    0=no restart 2=restart with 2 vectors
   NREBOOT  =      0    no. of reboots
   NMIN     =      0    reboot dimension
   EREF     =   0.00    reference energy to select bands
   IMIX   =      4    mixing-type and parameters
     AMIX     =   0.40;   BMIX     =  1.00
     AMIX_MAG =   1.60;   BMIX_MAG =  1.00
     AMIN     =   0.10
     WC   =   100.;   INIMIX=   1;  MIXPRE=   1;  MAXMIX= -45

 Intra band minimization:
   WEIMIN = 0.0010     energy-eigenvalue tresh-hold
   EBREAK =  0.16E-08  absolut break condition
   DEPER  =   0.30     relativ break condition  

   TIME   =   0.40     timestep for ELM

  volume/ion in A,a.u.               =      14.38        97.01
  Fermi-wavevector in a.u.,A,eV,Ry     =   1.317930  2.490526 23.632488  1.736939
  Thomas-Fermi vector in A             =   2.447936
 
 Write flags
   LWAVE        =      T    write WAVECAR
   LDOWNSAMPLE  =      F    k-point downsampling of WAVECAR
   LCHARG       =      T    write CHGCAR
   LVTOT        =      F    write LOCPOT, total local potential
   LVHAR        =      F    write LOCPOT, Hartree potential only
   LELF         =      F    write electronic localiz. function (ELF)
   LORBIT       =     11    0 simple, 1 ext, 2 COOP (PROOUT), +10 PAW based schemes


 Dipole corrections
   LMONO  =      F    monopole corrections only (constant potential shift)
   LDIPOL =      F    correct potential (dipole corrections)
   IDIPOL =      0    1-x, 2-y, 3-z, 4-all directions 
   EPSILON=  1.0000000 bulk dielectric constant

 LDA+U is selected, type is set to LDAUTYPE =  2
   angular momentum for each species LDAUL =     2   -1   -1
   U (eV)           for each species LDAUU =   4.2  0.0  0.0
   J (eV)           for each species LDAUJ =   0.0  0.0  0.0
 Exchange correlation treatment:
   GGA     =    PS    GGA type
   LEXCH   =    14    internal setting for exchange type
   VOSKOWN=      0    Vosko Wilk Nusair interpolation
   LHFCALC =     F    Hartree Fock is set to
   LHFONE  =     F    Hartree Fock one center treatment
   AEXX    =    0.0000 exact exchange contribution

 Linear response parameters
   LEPSILON=     F    determine dielectric tensor
   LRPA    =     F    only Hartree local field effects (RPA)
   LNABLA  =     F    use nabla operator in PAW spheres
   LVEL    =     F    velocity operator in full k-point grid
   LINTERFAST=   F  fast interpolation
   KINTER  =     0    interpolate to denser k-point grid
   CSHIFT  =0.1000    complex shift for real part using Kramers Kronig
   OMEGAMAX=  -1.0    maximum frequency
   DEG_THRESHOLD= 0.2000000E-02 threshold for treating states as degnerate
   RTIME   =   -0.100 relaxation time in fs
  (WPLASMAI=    0.000 imaginary part of plasma frequency in eV, 0.658/RTIME)
   DFIELD  = 0.0000000 0.0000000 0.0000000 field for delta impulse in time
 
 Orbital magnetization related:
   ORBITALMAG=     F  switch on orbital magnetization
   LCHIMAG   =     F  perturbation theory with respect to B field
   DQ        =  0.001000  dq finite difference perturbation B field
   LLRAUG    =     F  two centre corrections for induced B field



--------------------------------------------------------------------------------------------------------


 quasi-Newton-method for relaxation of ions
 charge density and potential will be updated during run
 spin polarized calculation
 Variant of blocked Davidson
 Davidson routine will perform the subspace rotation
 perform sub-space diagonalisation
    after iterative eigenvector-optimisation
 modified Broyden-mixing scheme, WC =      100.0
 initial mixing is a Kerker type mixing with AMIX =  0.4000 and BMIX =      1.0000
 Hartree-type preconditioning will be used
 using additional bands           40
 real space projection scheme for non local part
 use partial core corrections
 calculate Harris-corrections to forces 
   (improved forces if not selfconsistent)
 use gradient corrections 
 use of overlap-Matrix (Vanderbilt PP)
 Gauss-broadening in eV      SIGMA  =   0.01


--------------------------------------------------------------------------------------------------------


  energy-cutoff  :      700.00
  volume of cell :      460.00
      direct lattice vectors                 reciprocal lattice vectors
     7.850613960 -0.000000001 -0.000000012     0.127378573 -0.000000000  0.000000000
     0.000000000  7.657217378  0.000000020     0.000000000  0.130595744 -0.000000000
    -0.000000011  0.000000026  7.652165379     0.000000000 -0.000000000  0.130681964

  length of vectors
     7.850613960  7.657217378  7.652165379     0.127378573  0.130595744  0.130681964


 
 old parameters found on file WAVECAR:
  energy-cutoff  :      700.00
  volume of cell :      438.28
      direct lattice vectors                 reciprocal lattice vectors
     7.596000000  0.000000000  0.000000000     0.131648236  0.000000000  0.000000000
     0.000000000  7.596000000  0.000000000     0.000000000  0.131648236  0.000000000
     0.000000000  0.000000000  7.596000000     0.000000000  0.000000000  0.131648236

  length of vectors

 
 k-points in units of 2pi/SCALE and weight: Title                                   
   0.01592232  0.01632447  0.01633525       0.031
   0.04776696  0.01632447  0.01633525       0.031
  -0.04776696  0.01632447  0.01633525       0.031
  -0.01592232  0.01632447  0.01633525       0.031
   0.01592232  0.04897340  0.01633525       0.031
   0.04776696  0.04897340  0.01633525       0.031
  -0.04776696  0.04897340  0.01633525       0.031
  -0.01592232  0.04897340  0.01633525       0.031
   0.01592232 -0.04897340  0.01633525       0.031
   0.04776696 -0.04897340  0.01633525       0.031
  -0.04776696 -0.04897340  0.01633525       0.031
  -0.01592232 -0.04897340  0.01633525       0.031
   0.01592232 -0.01632447  0.01633525       0.031
   0.04776696 -0.01632447  0.01633525       0.031
  -0.04776696 -0.01632447  0.01633525       0.031
  -0.01592232 -0.01632447  0.01633525       0.031
   0.01592232  0.01632447  0.04900574       0.031
   0.04776696  0.01632447  0.04900574       0.031
  -0.04776696  0.01632447  0.04900574       0.031
  -0.01592232  0.01632447  0.04900574       0.031
   0.01592232  0.04897340  0.04900574       0.031
   0.04776696  0.04897340  0.04900574       0.031
  -0.04776696  0.04897340  0.04900574       0.031
  -0.01592232  0.04897340  0.04900574       0.031
   0.01592232 -0.04897340  0.04900574       0.031
   0.04776696 -0.04897340  0.04900574       0.031
  -0.04776696 -0.04897340  0.04900574       0.031
  -0.01592232 -0.04897340  0.04900574       0.031
   0.01592232 -0.01632447  0.04900574       0.031
   0.04776696 -0.01632447  0.04900574       0.031
  -0.04776696 -0.01632447  0.04900574       0.031
  -0.01592232 -0.01632447  0.04900574       0.031
 
 k-points in reciprocal lattice and weights: Title                                   
   0.12500000  0.12500000  0.12500000       0.031
   0.37500000  0.12500000  0.12500000       0.031
  -0.37500000  0.12500000  0.12500000       0.031
  -0.12500000  0.12500000  0.12500000       0.031
   0.12500000  0.37500000  0.12500000       0.031
   0.37500000  0.37500000  0.12500000       0.031
  -0.37500000  0.37500000  0.12500000       0.031
  -0.12500000  0.37500000  0.12500000       0.031
   0.12500000 -0.37500000  0.12500000       0.031
   0.37500000 -0.37500000  0.12500000       0.031
  -0.37500000 -0.37500000  0.12500000       0.031
  -0.12500000 -0.37500000  0.12500000       0.031
   0.12500000 -0.12500000  0.12500000       0.031
   0.37500000 -0.12500000  0.12500000       0.031
  -0.37500000 -0.12500000  0.12500000       0.031
  -0.12500000 -0.12500000  0.12500000       0.031
   0.12500000  0.12500000  0.37500000       0.031
   0.37500000  0.12500000  0.37500000       0.031
  -0.37500000  0.12500000  0.37500000       0.031
  -0.12500000  0.12500000  0.37500000       0.031
   0.12500000  0.37500000  0.37500000       0.031
   0.37500000  0.37500000  0.37500000       0.031
  -0.37500000  0.37500000  0.37500000       0.031
  -0.12500000  0.37500000  0.37500000       0.031
   0.12500000 -0.37500000  0.37500000       0.031
   0.37500000 -0.37500000  0.37500000       0.031
  -0.37500000 -0.37500000  0.37500000       0.031
  -0.12500000 -0.37500000  0.37500000       0.031
   0.12500000 -0.12500000  0.37500000       0.031
   0.37500000 -0.12500000  0.37500000       0.031
  -0.37500000 -0.12500000  0.37500000       0.031
  -0.12500000 -0.12500000  0.37500000       0.031
 
 position of ions in fractional coordinates (direct lattice) 
   0.00000000  0.98869133  0.98796331
   1.00000000  0.98869133  0.51203665
   1.00000000  0.51130868  0.01203668
   0.00000000  0.51130866  0.48796334
   0.50000000  0.98869129  0.98796331
   0.50000000  0.98869130  0.51203667
   0.50000000  0.51130871  0.01203669
   0.50000000  0.51130868  0.48796334
   0.00000000  0.75000001  0.00000002
   1.00000000  0.74999998  0.49999998
   0.50000000  0.74999998  0.00000001
   0.50000000  0.75000001  0.50000000
   0.00000000  0.00496200  0.75000000
   1.00000000  0.49503798  0.25000002
   0.50000000  0.00496200  0.74999997
   0.50000000  0.49503798  0.25000000
   0.24999998  0.00624453  0.00735860
   0.25000000  0.00624452  0.49264136
   0.24999999  0.49375549  0.99264140
   0.24999998  0.49375546  0.50735863
   0.75000003  0.00624453  0.00735860
   0.75000000  0.00624452  0.49264137
   0.75000000  0.49375549  0.99264140
   0.75000003  0.49375547  0.50735864
   1.00000000  0.25000000  0.99999998
   1.00000000  0.25000001  0.50000001
   0.50000000  0.25000002  1.00000000
   0.50000000  0.24999998  0.50000001
   1.00000000  0.00960700  0.24999998
   0.00000000  0.49039304  0.75000000
   0.50000000  0.00960699  0.25000001
   0.50000000  0.49039301  0.75000002
 
 position of ions in cartesian coordinates  (Angst):
   0.00000003  7.57062449  7.56005869
   7.85061392  7.57062447  3.91818917
   7.85061393  3.91520174  0.09210665
   0.00000002  3.91520159  3.73397620
   3.92530700  7.57062419  7.56005869
   3.92530694  7.57062419  3.91818927
   3.92530695  3.91520193  0.09210673
   3.92530701  3.91520176  3.73397620
   0.00000001  5.74291314  0.00000014
   7.85061395  5.74291290  3.82608254
   3.92530697  5.74291287  0.00000009
   3.92530697  5.74291312  3.82608269
   0.00000000  0.03799510  5.73912400
   7.85061394  3.79061340  1.91304153
   3.92530696  0.03799513  5.73912377
   3.92530699  3.79061342  1.91304134
   1.96265333  0.04781572  0.05630925
   1.96265346  0.04781569  3.76977318
   1.96265341  3.78079312  7.59585615
   1.96265331  3.78079294  3.88239218
   5.88796068  0.04781569  0.05630922
   5.88796045  0.04781569  3.76977320
   5.88796049  3.78079313  7.59585612
   5.88796067  3.78079295  3.88239219
   7.85061394  1.91430439  7.65216522
   7.85061395  1.91430447  3.82608279
   3.92530698  1.91430449  7.65216535
   3.92530697  1.91430420  3.82608274
   7.85061395  0.07356291  1.91304120
   0.00000000  3.75504616  5.73912401
   3.92530698  0.07356280  1.91304143
   3.92530696  3.75504590  5.73912418
 


--------------------------------------------------------------------------------------------------------


 k-point  1 :   0.1250 0.1250 0.1250  plane waves:   19359
 k-point  2 :   0.3750 0.1250 0.1250  plane waves:   19360
 k-point  3 :  -0.3750 0.1250 0.1250  plane waves:   19360
 k-point  4 :  -0.1250 0.1250 0.1250  plane waves:   19359
 k-point  5 :   0.1250 0.3750 0.1250  plane waves:   19336
 k-point  6 :   0.3750 0.3750 0.1250  plane waves:   19346
 k-point  7 :  -0.3750 0.3750 0.1250  plane waves:   19346
 k-point  8 :  -0.1250 0.3750 0.1250  plane waves:   19336
 k-point  9 :   0.1250-0.3750 0.1250  plane waves:   19336
 k-point 10 :   0.3750-0.3750 0.1250  plane waves:   19346
 k-point 11 :  -0.3750-0.3750 0.1250  plane waves:   19346
 k-point 12 :  -0.1250-0.3750 0.1250  plane waves:   19336
 k-point 13 :   0.1250-0.1250 0.1250  plane waves:   19359
 k-point 14 :   0.3750-0.1250 0.1250  plane waves:   19360
 k-point 15 :  -0.3750-0.1250 0.1250  plane waves:   19360
 k-point 16 :  -0.1250-0.1250 0.1250  plane waves:   19359
 k-point 17 :   0.1250 0.1250 0.3750  plane waves:   19331
 k-point 18 :   0.3750 0.1250 0.3750  plane waves:   19345
 k-point 19 :  -0.3750 0.1250 0.3750  plane waves:   19345
 k-point 20 :  -0.1250 0.1250 0.3750  plane waves:   19331
 k-point 21 :   0.1250 0.3750 0.3750  plane waves:   19332
 k-point 22 :   0.3750 0.3750 0.3750  plane waves:   19346
 k-point 23 :  -0.3750 0.3750 0.3750  plane waves:   19346
 k-point 24 :  -0.1250 0.3750 0.3750  plane waves:   19332
 k-point 25 :   0.1250-0.3750 0.3750  plane waves:   19332
 k-point 26 :   0.3750-0.3750 0.3750  plane waves:   19346
 k-point 27 :  -0.3750-0.3750 0.3750  plane waves:   19346
 k-point 28 :  -0.1250-0.3750 0.3750  plane waves:   19332
 k-point 29 :   0.1250-0.1250 0.3750  plane waves:   19331
 k-point 30 :   0.3750-0.1250 0.3750  plane waves:   19345
 k-point 31 :  -0.3750-0.1250 0.3750  plane waves:   19345
 k-point 32 :  -0.1250-0.1250 0.3750  plane waves:   19331

 maximum and minimum number of plane-waves per node :      2445     2392

 maximum number of plane-waves:     19360
 maximum index in each direction: 
   IXMAX=   17   IYMAX=   16   IZMAX=   16
   IXMIN=  -17   IYMIN=  -16   IZMIN=  -16


 real space projection operators:
  total allocation   :      18591.25 KBytes
  max/ min on nodes  :       2473.38       1926.94


 parallel 3D FFT for wavefunctions:
    minimum data exchange during FFTs selected (reduces bandwidth)
 parallel 3D FFT for charge:
    minimum data exchange during FFTs selected (reduces bandwidth)


 total amount of memory used by VASP MPI-rank0   106723. kBytes
=======================================================================

   base      :      30000. kBytes
   nonlr-proj:       8603. kBytes
   fftplans  :       8423. kBytes
   grid      :       8783. kBytes
   one-center:        124. kBytes
   wavefun   :      50790. kBytes
 
     INWAV:  cpu time   29.4825: real time   47.2570
 Broyden mixing: mesh for mixing (old mesh)
   NGX = 33   NGY = 33   NGZ = 33
  (NGX  =140   NGY  =140   NGZ  =140)
  gives a total of  35937 points

 charge density for first step will be calculated from the start-wavefunctions


--------------------------------------------------------------------------------------------------------


 Maximum index for non-local projection operator         1382
 Maximum index for augmentation-charges         7187 (set IRDMAX)


--------------------------------------------------------------------------------------------------------


 initial charge from wavefunction
 First call to EWALD:  gamma=   0.230
 Maximum number of real-space cells 3x 3x 3
 Maximum number of reciprocal cells 3x 3x 3

    FEWALD:  cpu time    0.0040: real time    0.0038


--------------------------------------- Iteration      1(   1)  ---------------------------------------


    POTLOK:  cpu time    0.1400: real time    0.3603
    SETDIJ:  cpu time    0.8419: real time    0.8405
     EDDAV:  cpu time   28.2527: real time   28.2407
       DOS:  cpu time    0.0030: real time    0.0033
    CHARGE:  cpu time    1.1698: real time    1.1664
    MIXING:  cpu time    0.0020: real time    0.0021
    --------------------------------------------
      LOOP:  cpu time   30.4094: real time   30.6134

 eigenvalue-minimisations  : 20480
 total energy-change (2. order) :-0.2136182E+03  (-0.6303186E-01)
 number of electron     240.0000004 magnetization       0.0000000
 augmentation part       61.9493230 magnetization       0.0000000

 Broyden mixing:
  rms(total) = 0.66262E-02    rms(broyden)= 0.61910E-02
  rms(prec ) = 0.65295E-02
  weight for this iteration     100.00

 Free energy of the ion-electron system (eV)
  ---------------------------------------------------
  alpha Z        PSCENC =       761.22870700
  Ewald energy   TEWEN  =    -12830.32336494
  -Hartree energ DENC   =     -8216.56077297
  -exchange      EXHF   =         0.00000000
  -V(xc)+E(xc)   XCENC  =      1119.89410733
  PAW double counting   =     18020.94756827   -18144.74038014
  entropy T*S    EENTRO =        -0.00000000
  eigenvalues    EBANDS =     -3226.41732341
  atomic energy  EATOM  =     22302.35321627
  Solvation  Ediel_sol  =         0.00000000
  ---------------------------------------------------
  free energy    TOTEN  =      -213.61824260 eV

  energy without entropy =     -213.61824260  energy(sigma->0) =     -213.61824260


--------------------------------------------------------------------------------------------------------




--------------------------------------- Iteration      1(   2)  ---------------------------------------


    POTLOK:  cpu time    0.1370: real time    0.1577
    SETDIJ:  cpu time    0.8399: real time    0.8390
     EDDAV:  cpu time   27.9518: real time   27.9467
       DOS:  cpu time    0.0040: real time    0.0034
    CHARGE:  cpu time    1.1598: real time    1.1585
    MIXING:  cpu time    0.0030: real time    0.0020
    --------------------------------------------
      LOOP:  cpu time   30.0954: real time   30.1073

 eigenvalue-minimisations  : 20192
 total energy-change (2. order) :-0.7761721E-04  (-0.2430717E-05)
 number of electron     240.0000004 magnetization      -0.0000000
 augmentation part       61.9502278 magnetization       0.0000000

 Broyden mixing:
  rms(total) = 0.36975E-02    rms(broyden)= 0.36676E-02
  rms(prec ) = 0.38542E-02
  weight for this iteration     100.00

 eigenvalues of (default mixing * dielectric matrix)
  average eigenvalue GAMMA=   2.3005
  2.3005

 Free energy of the ion-electron system (eV)
  ---------------------------------------------------
  alpha Z        PSCENC =       761.22870700
  Ewald energy   TEWEN  =    -12830.32336494
  -Hartree energ DENC   =     -8216.49479602
  -exchange      EXHF   =         0.00000000
  -V(xc)+E(xc)   XCENC  =      1119.89033433
  PAW double counting   =     18021.56751203   -18145.34692727
  entropy T*S    EENTRO =        -0.00000000
  eigenvalues    EBANDS =     -3226.49300162
  atomic energy  EATOM  =     22302.35321627
  Solvation  Ediel_sol  =         0.00000000
  ---------------------------------------------------
  free energy    TOTEN  =      -213.61832022 eV

  energy without entropy =     -213.61832022  energy(sigma->0) =     -213.61832022


--------------------------------------------------------------------------------------------------------




--------------------------------------- Iteration      1(   3)  ---------------------------------------


    POTLOK:  cpu time    0.1470: real time    0.2184
    SETDIJ:  cpu time    0.8469: real time    0.8453
     EDDAV:  cpu time   27.0599: real time   27.0481
       DOS:  cpu time    0.0030: real time    0.0032
    CHARGE:  cpu time    1.1708: real time    1.1685
    MIXING:  cpu time    0.0020: real time    0.0020
    --------------------------------------------
      LOOP:  cpu time   29.2296: real time   29.2855

 eigenvalue-minimisations  : 19296
 total energy-change (2. order) :-0.8376167E-04  (-0.1558886E-05)
 number of electron     240.0000004 magnetization      -0.0000000
 augmentation part       61.9505135 magnetization      -0.0000000

 Broyden mixing:
  rms(total) = 0.50504E-03    rms(broyden)= 0.49579E-03
  rms(prec ) = 0.53586E-03
  weight for this iteration     100.00

 eigenvalues of (default mixing * dielectric matrix)
  average eigenvalue GAMMA=   1.7724
  1.0531  2.4917

 Free energy of the ion-electron system (eV)
  ---------------------------------------------------
  alpha Z        PSCENC =       761.22870700
  Ewald energy   TEWEN  =    -12830.32336494
  -Hartree energ DENC   =     -8216.52984077
  -exchange      EXHF   =         0.00000000
  -V(xc)+E(xc)   XCENC  =      1119.89287150
  PAW double counting   =     18022.45713746   -18146.22377764
  entropy T*S    EENTRO =        -0.00000000
  eigenvalues    EBANDS =     -3226.47335285
  atomic energy  EATOM  =     22302.35321627
  Solvation  Ediel_sol  =         0.00000000
  ---------------------------------------------------
  free energy    TOTEN  =      -213.61840398 eV

  energy without entropy =     -213.61840398  energy(sigma->0) =     -213.61840398


--------------------------------------------------------------------------------------------------------




--------------------------------------- Iteration      1(   4)  ---------------------------------------


    POTLOK:  cpu time    0.1440: real time    0.1559
    SETDIJ:  cpu time    0.8409: real time    0.8405
     EDDAV:  cpu time   19.2701: real time   19.2590
       DOS:  cpu time    0.0040: real time    0.0036
    CHARGE:  cpu time    1.1688: real time    1.1667
    MIXING:  cpu time    0.0020: real time    0.0020
    --------------------------------------------
      LOOP:  cpu time   21.4307: real time   21.4278

 eigenvalue-minimisations  : 11152
 total energy-change (2. order) :-0.1790984E-05  (-0.6385475E-07)
 number of electron     240.0000004 magnetization      -0.0000000
 augmentation part       61.9504042 magnetization      -0.0000000

 Broyden mixing:
  rms(total) = 0.10561E-03    rms(broyden)= 0.10374E-03
  rms(prec ) = 0.12346E-03
  weight for this iteration     100.00

 eigenvalues of (default mixing * dielectric matrix)
  average eigenvalue GAMMA=   1.6942
  2.5104  0.9919  1.5804

 Free energy of the ion-electron system (eV)
  ---------------------------------------------------
  alpha Z        PSCENC =       761.22870700
  Ewald energy   TEWEN  =    -12830.32336494
  -Hartree energ DENC   =     -8216.55072458
  -exchange      EXHF   =         0.00000000
  -V(xc)+E(xc)   XCENC  =      1119.89408835
  PAW double counting   =     18022.51073945   -18146.27622927
  entropy T*S    EENTRO =        -0.00000000
  eigenvalues    EBANDS =     -3226.45483805
  atomic energy  EATOM  =     22302.35321627
  Solvation  Ediel_sol  =         0.00000000
  ---------------------------------------------------
  free energy    TOTEN  =      -213.61840577 eV

  energy without entropy =     -213.61840577  energy(sigma->0) =     -213.61840577


--------------------------------------------------------------------------------------------------------




--------------------------------------- Iteration      1(   5)  ---------------------------------------


    POTLOK:  cpu time    0.2470: real time    0.3409
    SETDIJ:  cpu time    0.8409: real time    0.8398
     EDDAV:  cpu time   18.7951: real time   18.7907
       DOS:  cpu time    0.0030: real time    0.0035
    --------------------------------------------
      LOOP:  cpu time   19.8850: real time   19.9749

 eigenvalue-minimisations  : 10880
 total energy-change (2. order) :-0.3096284E-07  (-0.1498803E-07)
 number of electron     240.0000004 magnetization      -0.0000000
 augmentation part       61.9504042 magnetization      -0.0000000

 Free energy of the ion-electron system (eV)
  ---------------------------------------------------
  alpha Z        PSCENC =       761.22870700
  Ewald energy   TEWEN  =    -12830.32336494
  -Hartree energ DENC   =     -8216.55860219
  -exchange      EXHF   =         0.00000000
  -V(xc)+E(xc)   XCENC  =      1119.89450193
  PAW double counting   =     18022.45250117   -18146.21789485
  entropy T*S    EENTRO =        -0.00000000
  eigenvalues    EBANDS =     -3226.44747019
  atomic energy  EATOM  =     22302.35321627
  Solvation  Ediel_sol  =         0.00000000
  ---------------------------------------------------
  free energy    TOTEN  =      -213.61840580 eV

  energy without entropy =     -213.61840580  energy(sigma->0) =     -213.61840580


--------------------------------------------------------------------------------------------------------




 average (electrostatic) potential at core
  the test charge radii are     1.0397  0.7215  0.7167
  (the norm of the test charge is              1.0000)
       1 -58.9048       2 -58.9048       3 -58.9048       4 -58.9048       5 -58.9048
       6 -58.9048       7 -58.9048       8 -58.9048       9 -74.1111      10 -74.1111
      11 -74.1111      12 -74.1111      13 -74.1184      14 -74.1184      15 -74.1184
      16 -74.1184      17 -79.2821      18 -79.2821      19 -79.2821      20 -79.2821
      21 -79.2821      22 -79.2821      23 -79.2821      24 -79.2821      25 -78.6553
      26 -78.6553      27 -78.6553      28 -78.6553      29 -78.6514      30 -78.6514
      31 -78.6514      32 -78.6514
 
 
 
 E-fermi :  -0.6653     XC(G=0):  -9.0012     alpha+bet : -7.6816


 spin component 1

 k-point     1 :       0.1250    0.1250    0.1250
  band No.  band energies     occupation 
      1     -34.9595      1.00000
      2     -34.9565      1.00000
      3     -34.9558      1.00000
      4     -34.9528      1.00000
      5     -34.8699      1.00000
      6     -34.8672      1.00000
      7     -34.8665      1.00000
      8     -34.8639      1.00000
      9     -34.8014      1.00000
     10     -34.7989      1.00000
     11     -34.7937      1.00000
     12     -34.7913      1.00000
     13     -34.7880      1.00000
     14     -34.7858      1.00000
     15     -34.7774      1.00000
     16     -34.7754      1.00000
     17     -34.7149      1.00000
     18     -34.7126      1.00000
     19     -34.7016      1.00000
     20     -34.6997      1.00000
     21     -34.6980      1.00000
     22     -34.6961      1.00000
     23     -34.6878      1.00000
     24     -34.6861      1.00000
     25     -23.1817      1.00000
     26     -23.1429      1.00000
     27     -23.1325      1.00000
     28     -23.1015      1.00000
     29     -22.7352      1.00000
     30     -22.7214      1.00000
     31     -22.7189      1.00000
     32     -22.7076      1.00000
     33     -22.4611      1.00000
     34     -22.4109      1.00000
     35     -22.3540      1.00000
     36     -22.3298      1.00000
     37     -22.3069      1.00000
     38     -22.2929      1.00000
     39     -22.2151      1.00000
     40     -22.2082      1.00000
     41     -16.7507      1.00000
     42     -16.7354      1.00000
     43     -16.6369      1.00000
     44     -16.6203      1.00000
     45     -16.5710      1.00000
     46     -16.5533      1.00000
     47     -16.4746      1.00000
     48     -16.4543      1.00000
     49      -6.7526      1.00000
     50      -6.7162      1.00000
     51      -6.7006      1.00000
     52      -6.6796      1.00000
     53      -6.0920      1.00000
     54      -6.0131      1.00000
     55      -5.9420      1.00000
     56      -5.9298      1.00000
     57      -5.9133      1.00000
     58      -5.8382      1.00000
     59      -5.8248      1.00000
     60      -5.7727      1.00000
     61      -5.5859      1.00000
     62      -5.4451      1.00000
     63      -5.3911      1.00000
     64      -5.3296      1.00000
     65      -5.3214      1.00000
     66      -5.2641      1.00000
     67      -5.2550      1.00000
     68      -5.2536      1.00000
     69      -4.9384      1.00000
     70      -4.8449      1.00000
     71      -4.4646      1.00000
     72      -4.4365      1.00000
     73      -4.4044      1.00000
     74      -4.3908      1.00000
     75      -4.3812      1.00000
     76      -4.3772      1.00000
     77      -4.3486      1.00000
     78      -4.2814      1.00000
     79      -4.2674      1.00000
     80      -4.2542      1.00000
     81      -4.2365      1.00000
     82      -4.2010      1.00000
     83      -4.0705      1.00000
     84      -3.7838      1.00000
     85      -3.7082      1.00000
     86      -3.5998      1.00000
     87      -3.5398      1.00000
     88      -3.5100      1.00000
     89      -3.4932      1.00000
     90      -3.4882      1.00000
     91      -3.4683      1.00000
     92      -3.4617      1.00000
     93      -3.3790      1.00000
     94      -3.2633      1.00000
     95      -3.2392      1.00000
     96      -3.2035      1.00000
     97      -3.1567      1.00000
     98      -3.1165      1.00000
     99      -3.0325      1.00000
    100      -3.0064      1.00000
    101      -2.9535      1.00000
    102      -2.9339      1.00000
    103      -2.8933      1.00000
    104      -2.8402      1.00000
    105      -2.4752      1.00000
    106      -2.4638      1.00000
    107      -2.2877      1.00000
    108      -2.2554      1.00000
    109      -2.2365      1.00000
    110      -2.1511      1.00000
    111      -2.0946      1.00000
    112      -1.9845      1.00000
    113      -1.9386      1.00000
    114      -1.8618      1.00000
    115      -1.8454      1.00000
    116      -1.8333      1.00000
    117      -1.7605      1.00000
    118      -1.6553      1.00000
    119      -0.7172      1.00000
    120      -0.7100      1.00000
    121       1.9394      0.00000
    122       1.9753      0.00000
    123       2.0233      0.00000
    124       2.0349      0.00000
    125       2.0524      0.00000
    126       2.0654      0.00000
    127       2.6403      0.00000
    128       2.6530      0.00000
    129       2.6782      0.00000
    130       2.6963      0.00000
    131       3.0397      0.00000
    132       3.1464      0.00000
    133       3.2001      0.00000
    134       3.2301      0.00000
    135       3.2370      0.00000
    136       3.4008      0.00000
    137       3.4080      0.00000
    138       3.5358      0.00000
    139       3.5422      0.00000
    140       3.5629      0.00000
    141       3.5676      0.00000
    142       3.6551      0.00000
    143       3.7235      0.00000
    144       3.7428      0.00000
    145       3.7673      0.00000
    146       3.7969      0.00000
    147       3.9025      0.00000
    148       3.9953      0.00000
    149       4.0369      0.00000
    150       4.1824      0.00000
    151       4.1890      0.00000
    152       4.2413      0.00000
    153       4.6002      0.00000
    154       5.1716      0.00000
    155       5.4055      0.00000
    156       5.8508      0.00000
    157       6.0554      0.00000
    158       6.1373      0.00000
    159       6.2621      0.00000
    160       6.9762      0.00000

 k-point     2 :       0.3750    0.1250    0.1250
  band No.  band energies     occupation 
      1     -34.9336      1.00000
      2     -34.9307      1.00000
      3     -34.9300      1.00000
      4     -34.9271      1.00000
      5     -34.8966      1.00000
      6     -34.8938      1.00000
      7     -34.8930      1.00000
      8     -34.8903      1.00000
      9     -34.8006      1.00000
     10     -34.7996      1.00000
     11     -34.7929      1.00000
     12     -34.7920      1.00000
     13     -34.7873      1.00000
     14     -34.7864      1.00000
     15     -34.7768      1.00000
     16     -34.7760      1.00000
     17     -34.7141      1.00000
     18     -34.7132      1.00000
     19     -34.7010      1.00000
     20     -34.7002      1.00000
     21     -34.6974      1.00000
     22     -34.6966      1.00000
     23     -34.6873      1.00000
     24     -34.6866      1.00000
     25     -23.0617      1.00000
     26     -23.0257      1.00000
     27     -23.0162      1.00000
     28     -22.9884      1.00000
     29     -22.8811      1.00000
     30     -22.8528      1.00000
     31     -22.8459      1.00000
     32     -22.8254      1.00000
     33     -22.4334      1.00000
     34     -22.4168      1.00000
     35     -22.3411      1.00000
     36     -22.3326      1.00000
     37     -22.2992      1.00000
     38     -22.2943      1.00000
     39     -22.2130      1.00000
     40     -22.2102      1.00000
     41     -16.7461      1.00000
     42     -16.7397      1.00000
     43     -16.6319      1.00000
     44     -16.6250      1.00000
     45     -16.5658      1.00000
     46     -16.5584      1.00000
     47     -16.4687      1.00000
     48     -16.4603      1.00000
     49      -6.4059      1.00000
     50      -6.3799      1.00000
     51      -6.3790      1.00000
     52      -6.3711      1.00000
     53      -6.1098      1.00000
     54      -6.0264      1.00000
     55      -5.9574      1.00000
     56      -5.9395      1.00000
     57      -5.9347      1.00000
     58      -5.9281      1.00000
     59      -5.8563      1.00000
     60      -5.8135      1.00000
     61      -5.8051      1.00000
     62      -5.7898      1.00000
     63      -5.7710      1.00000
     64      -5.6865      1.00000
     65      -5.1147      1.00000
     66      -5.0994      1.00000
     67      -5.0403      1.00000
     68      -5.0217      1.00000
     69      -4.9225      1.00000
     70      -4.8656      1.00000
     71      -4.7523      1.00000
     72      -4.7000      1.00000
     73      -4.6421      1.00000
     74      -4.6261      1.00000
     75      -4.4256      1.00000
     76      -4.4218      1.00000
     77      -4.3527      1.00000
     78      -4.3363      1.00000
     79      -4.3120      1.00000
     80      -4.2943      1.00000
     81      -4.2766      1.00000
     82      -4.2389      1.00000
     83      -3.9777      1.00000
     84      -3.8641      1.00000
     85      -3.6897      1.00000
     86      -3.6458      1.00000
     87      -3.4946      1.00000
     88      -3.4310      1.00000
     89      -3.4085      1.00000
     90      -3.3772      1.00000
     91      -3.3255      1.00000
     92      -3.3176      1.00000
     93      -3.2797      1.00000
     94      -3.2475      1.00000
     95      -3.2050      1.00000
     96      -3.1993      1.00000
     97      -3.1802      1.00000
     98      -3.1611      1.00000
     99      -3.1097      1.00000
    100      -3.0331      1.00000
    101      -2.9673      1.00000
    102      -2.9490      1.00000
    103      -2.8796      1.00000
    104      -2.8582      1.00000
    105      -2.4764      1.00000
    106      -2.4702      1.00000
    107      -2.2540      1.00000
    108      -2.2447      1.00000
    109      -2.2029      1.00000
    110      -2.0673      1.00000
    111      -2.0503      1.00000
    112      -2.0093      1.00000
    113      -1.9325      1.00000
    114      -1.9023      1.00000
    115      -1.8649      1.00000
    116      -1.8531      1.00000
    117      -1.8445      1.00000
    118      -1.7471      1.00000
    119      -0.7150      1.00000
    120      -0.7121      1.00000
    121       2.0371      0.00000
    122       2.0463      0.00000
    123       2.1516      0.00000
    124       2.1592      0.00000
    125       2.1883      0.00000
    126       2.1981      0.00000
    127       2.4338      0.00000
    128       2.4401      0.00000
    129       2.4670      0.00000
    130       2.4800      0.00000
    131       3.2142      0.00000
    132       3.2277      0.00000
    133       3.2370      0.00000
    134       3.3240      0.00000
    135       3.3951      0.00000
    136       3.4045      0.00000
    137       3.4090      0.00000
    138       3.4744      0.00000
    139       3.5422      0.00000
    140       3.6187      0.00000
    141       3.6458      0.00000
    142       3.7564      0.00000
    143       3.7569      0.00000
    144       3.7991      0.00000
    145       3.8050      0.00000
    146       3.8439      0.00000
    147       3.9212      0.00000
    148       3.9988      0.00000
    149       4.1217      0.00000
    150       4.1919      0.00000
    151       4.1974      0.00000
    152       4.3666      0.00000
    153       4.5812      0.00000
    154       5.3458      0.00000
    155       5.3995      0.00000
    156       5.5977      0.00000
    157       5.8144      0.00000
    158       5.9610      0.00000
    159       6.4886      0.00000
    160       6.9866      0.00000

 k-point     3 :      -0.3750    0.1250    0.1250
  band No.  band energies     occupation 
      1     -34.9336      1.00000
      2     -34.9307      1.00000
      3     -34.9300      1.00000
      4     -34.9271      1.00000
      5     -34.8966      1.00000
      6     -34.8938      1.00000
      7     -34.8930      1.00000
      8     -34.8903      1.00000
      9     -34.8006      1.00000
     10     -34.7996      1.00000
     11     -34.7929      1.00000
     12     -34.7920      1.00000
     13     -34.7873      1.00000
     14     -34.7864      1.00000
     15     -34.7768      1.00000
     16     -34.7760      1.00000
     17     -34.7141      1.00000
     18     -34.7132      1.00000
     19     -34.7010      1.00000
     20     -34.7002      1.00000
     21     -34.6974      1.00000
     22     -34.6966      1.00000
     23     -34.6873      1.00000
     24     -34.6866      1.00000
     25     -23.0617      1.00000
     26     -23.0257      1.00000
     27     -23.0162      1.00000
     28     -22.9884      1.00000
     29     -22.8811      1.00000
     30     -22.8528      1.00000
     31     -22.8459      1.00000
     32     -22.8254      1.00000
     33     -22.4334      1.00000
     34     -22.4168      1.00000
     35     -22.3411      1.00000
     36     -22.3326      1.00000
     37     -22.2992      1.00000
     38     -22.2943      1.00000
     39     -22.2130      1.00000
     40     -22.2102      1.00000
     41     -16.7461      1.00000
     42     -16.7397      1.00000
     43     -16.6319      1.00000
     44     -16.6250      1.00000
     45     -16.5658      1.00000
     46     -16.5584      1.00000
     47     -16.4687      1.00000
     48     -16.4603      1.00000
     49      -6.4059      1.00000
     50      -6.3799      1.00000
     51      -6.3790      1.00000
     52      -6.3711      1.00000
     53      -6.1098      1.00000
     54      -6.0264      1.00000
     55      -5.9574      1.00000
     56      -5.9395      1.00000
     57      -5.9347      1.00000
     58      -5.9281      1.00000
     59      -5.8563      1.00000
     60      -5.8135      1.00000
     61      -5.8051      1.00000
     62      -5.7898      1.00000
     63      -5.7710      1.00000
     64      -5.6865      1.00000
     65      -5.1147      1.00000
     66      -5.0994      1.00000
     67      -5.0403      1.00000
     68      -5.0217      1.00000
     69      -4.9225      1.00000
     70      -4.8656      1.00000
     71      -4.7523      1.00000
     72      -4.7000      1.00000
     73      -4.6421      1.00000
     74      -4.6261      1.00000
     75      -4.4256      1.00000
     76      -4.4218      1.00000
     77      -4.3527      1.00000
     78      -4.3363      1.00000
     79      -4.3120      1.00000
     80      -4.2943      1.00000
     81      -4.2766      1.00000
     82      -4.2389      1.00000
     83      -3.9777      1.00000
     84      -3.8641      1.00000
     85      -3.6897      1.00000
     86      -3.6458      1.00000
     87      -3.4946      1.00000
     88      -3.4310      1.00000
     89      -3.4085      1.00000
     90      -3.3772      1.00000
     91      -3.3255      1.00000
     92      -3.3176      1.00000
     93      -3.2797      1.00000
     94      -3.2475      1.00000
     95      -3.2050      1.00000
     96      -3.1993      1.00000
     97      -3.1802      1.00000
     98      -3.1611      1.00000
     99      -3.1097      1.00000
    100      -3.0331      1.00000
    101      -2.9673      1.00000
    102      -2.9490      1.00000
    103      -2.8796      1.00000
    104      -2.8582      1.00000
    105      -2.4764      1.00000
    106      -2.4702      1.00000
    107      -2.2540      1.00000
    108      -2.2447      1.00000
    109      -2.2029      1.00000
    110      -2.0673      1.00000
    111      -2.0503      1.00000
    112      -2.0093      1.00000
    113      -1.9325      1.00000
    114      -1.9023      1.00000
    115      -1.8649      1.00000
    116      -1.8531      1.00000
    117      -1.8445      1.00000
    118      -1.7471      1.00000
    119      -0.7150      1.00000
    120      -0.7121      1.00000
    121       2.0371      0.00000
    122       2.0463      0.00000
    123       2.1516      0.00000
    124       2.1592      0.00000
    125       2.1883      0.00000
    126       2.1981      0.00000
    127       2.4338      0.00000
    128       2.4401      0.00000
    129       2.4670      0.00000
    130       2.4800      0.00000
    131       3.2142      0.00000
    132       3.2277      0.00000
    133       3.2370      0.00000
    134       3.3240      0.00000
    135       3.3951      0.00000
    136       3.4045      0.00000
    137       3.4090      0.00000
    138       3.4744      0.00000
    139       3.5422      0.00000
    140       3.6187      0.00000
    141       3.6458      0.00000
    142       3.7564      0.00000
    143       3.7569      0.00000
    144       3.7991      0.00000
    145       3.8050      0.00000
    146       3.8439      0.00000
    147       3.9212      0.00000
    148       3.9988      0.00000
    149       4.1217      0.00000
    150       4.1919      0.00000
    151       4.1974      0.00000
    152       4.3666      0.00000
    153       4.5812      0.00000
    154       5.3458      0.00000
    155       5.3995      0.00000
    156       5.5977      0.00000
    157       5.8144      0.00000
    158       5.9610      0.00000
    159       6.4886      0.00000
    160       6.9866      0.00000

 k-point     4 :      -0.1250    0.1250    0.1250
  band No.  band energies     occupation 
      1     -34.9595      1.00000
      2     -34.9565      1.00000
      3     -34.9558      1.00000
      4     -34.9528      1.00000
      5     -34.8699      1.00000
      6     -34.8672      1.00000
      7     -34.8665      1.00000
      8     -34.8639      1.00000
      9     -34.8014      1.00000
     10     -34.7989      1.00000
     11     -34.7937      1.00000
     12     -34.7913      1.00000
     13     -34.7880      1.00000
     14     -34.7858      1.00000
     15     -34.7774      1.00000
     16     -34.7754      1.00000
     17     -34.7149      1.00000
     18     -34.7126      1.00000
     19     -34.7016      1.00000
     20     -34.6997      1.00000
     21     -34.6980      1.00000
     22     -34.6961      1.00000
     23     -34.6878      1.00000
     24     -34.6861      1.00000
     25     -23.1817      1.00000
     26     -23.1429      1.00000
     27     -23.1325      1.00000
     28     -23.1015      1.00000
     29     -22.7352      1.00000
     30     -22.7214      1.00000
     31     -22.7189      1.00000
     32     -22.7076      1.00000
     33     -22.4611      1.00000
     34     -22.4109      1.00000
     35     -22.3540      1.00000
     36     -22.3298      1.00000
     37     -22.3069      1.00000
     38     -22.2929      1.00000
     39     -22.2151      1.00000
     40     -22.2082      1.00000
     41     -16.7507      1.00000
     42     -16.7354      1.00000
     43     -16.6369      1.00000
     44     -16.6203      1.00000
     45     -16.5710      1.00000
     46     -16.5533      1.00000
     47     -16.4746      1.00000
     48     -16.4543      1.00000
     49      -6.7526      1.00000
     50      -6.7162      1.00000
     51      -6.7006      1.00000
     52      -6.6796      1.00000
     53      -6.0920      1.00000
     54      -6.0131      1.00000
     55      -5.9420      1.00000
     56      -5.9298      1.00000
     57      -5.9133      1.00000
     58      -5.8382      1.00000
     59      -5.8248      1.00000
     60      -5.7727      1.00000
     61      -5.5859      1.00000
     62      -5.4451      1.00000
     63      -5.3911      1.00000
     64      -5.3296      1.00000
     65      -5.3214      1.00000
     66      -5.2641      1.00000
     67      -5.2550      1.00000
     68      -5.2536      1.00000
     69      -4.9384      1.00000
     70      -4.8449      1.00000
     71      -4.4646      1.00000
     72      -4.4365      1.00000
     73      -4.4044      1.00000
     74      -4.3908      1.00000
     75      -4.3812      1.00000
     76      -4.3772      1.00000
     77      -4.3486      1.00000
     78      -4.2814      1.00000
     79      -4.2674      1.00000
     80      -4.2542      1.00000
     81      -4.2365      1.00000
     82      -4.2010      1.00000
     83      -4.0705      1.00000
     84      -3.7838      1.00000
     85      -3.7082      1.00000
     86      -3.5998      1.00000
     87      -3.5398      1.00000
     88      -3.5100      1.00000
     89      -3.4932      1.00000
     90      -3.4882      1.00000
     91      -3.4683      1.00000
     92      -3.4617      1.00000
     93      -3.3790      1.00000
     94      -3.2633      1.00000
     95      -3.2392      1.00000
     96      -3.2035      1.00000
     97      -3.1567      1.00000
     98      -3.1165      1.00000
     99      -3.0325      1.00000
    100      -3.0064      1.00000
    101      -2.9535      1.00000
    102      -2.9339      1.00000
    103      -2.8933      1.00000
    104      -2.8402      1.00000
    105      -2.4752      1.00000
    106      -2.4638      1.00000
    107      -2.2877      1.00000
    108      -2.2554      1.00000
    109      -2.2365      1.00000
    110      -2.1511      1.00000
    111      -2.0946      1.00000
    112      -1.9845      1.00000
    113      -1.9386      1.00000
    114      -1.8618      1.00000
    115      -1.8454      1.00000
    116      -1.8333      1.00000
    117      -1.7605      1.00000
    118      -1.6553      1.00000
    119      -0.7172      1.00000
    120      -0.7100      1.00000
    121       1.9394      0.00000
    122       1.9753      0.00000
    123       2.0233      0.00000
    124       2.0349      0.00000
    125       2.0524      0.00000
    126       2.0654      0.00000
    127       2.6403      0.00000
    128       2.6530      0.00000
    129       2.6782      0.00000
    130       2.6963      0.00000
    131       3.0397      0.00000
    132       3.1464      0.00000
    133       3.2001      0.00000
    134       3.2301      0.00000
    135       3.2370      0.00000
    136       3.4008      0.00000
    137       3.4080      0.00000
    138       3.5358      0.00000
    139       3.5422      0.00000
    140       3.5629      0.00000
    141       3.5676      0.00000
    142       3.6551      0.00000
    143       3.7235      0.00000
    144       3.7428      0.00000
    145       3.7673      0.00000
    146       3.7969      0.00000
    147       3.9025      0.00000
    148       3.9953      0.00000
    149       4.0369      0.00000
    150       4.1824      0.00000
    151       4.1890      0.00000
    152       4.2413      0.00000
    153       4.6002      0.00000
    154       5.1716      0.00000
    155       5.4055      0.00000
    156       5.8508      0.00000
    157       6.0554      0.00000
    158       6.1373      0.00000
    159       6.2621      0.00000
    160       6.9762      0.00000

 k-point     5 :       0.1250    0.3750    0.1250
  band No.  band energies     occupation 
      1     -34.9589      1.00000
      2     -34.9568      1.00000
      3     -34.9555      1.00000
      4     -34.9534      1.00000
      5     -34.8694      1.00000
      6     -34.8675      1.00000
      7     -34.8663      1.00000
      8     -34.8643      1.00000
      9     -34.7956      1.00000
     10     -34.7931      1.00000
     11     -34.7927      1.00000
     12     -34.7903      1.00000
     13     -34.7656      1.00000
     14     -34.7634      1.00000
     15     -34.7622      1.00000
     16     -34.7602      1.00000
     17     -34.7301      1.00000
     18     -34.7278      1.00000
     19     -34.7234      1.00000
     20     -34.7214      1.00000
     21     -34.6990      1.00000
     22     -34.6970      1.00000
     23     -34.6953      1.00000
     24     -34.6935      1.00000
     25     -23.1750      1.00000
     26     -23.1450      1.00000
     27     -23.1299      1.00000
     28     -23.1061      1.00000
     29     -22.7321      1.00000
     30     -22.7234      1.00000
     31     -22.7170      1.00000
     32     -22.7103      1.00000
     33     -22.4538      1.00000
     34     -22.4056      1.00000
     35     -22.3506      1.00000
     36     -22.3268      1.00000
     37     -22.3043      1.00000
     38     -22.2907      1.00000
     39     -22.2137      1.00000
     40     -22.2069      1.00000
     41     -16.7745      1.00000
     42     -16.7602      1.00000
     43     -16.6463      1.00000
     44     -16.6308      1.00000
     45     -16.5801      1.00000
     46     -16.5626      1.00000
     47     -16.4795      1.00000
     48     -16.4594      1.00000
     49      -6.7393      1.00000
     50      -6.7090      1.00000
     51      -6.6935      1.00000
     52      -6.6752      1.00000
     53      -6.0134      1.00000
     54      -5.9407      1.00000
     55      -5.8775      1.00000
     56      -5.8423      1.00000
     57      -5.7336      1.00000
     58      -5.5753      1.00000
     59      -5.5750      1.00000
     60      -5.5727      1.00000
     61      -5.4548      1.00000
     62      -5.4532      1.00000
     63      -5.3925      1.00000
     64      -5.3046      1.00000
     65      -5.2782      1.00000
     66      -5.2707      1.00000
     67      -5.1483      1.00000
     68      -5.0799      1.00000
     69      -4.7573      1.00000
     70      -4.7367      1.00000
     71      -4.6776      1.00000
     72      -4.6358      1.00000
     73      -4.5050      1.00000
     74      -4.4265      1.00000
     75      -4.4067      1.00000
     76      -4.3891      1.00000
     77      -4.3381      1.00000
     78      -4.3245      1.00000
     79      -4.2422      1.00000
     80      -4.2273      1.00000
     81      -4.1664      1.00000
     82      -4.1309      1.00000
     83      -4.0803      1.00000
     84      -3.9876      1.00000
     85      -3.9841      1.00000
     86      -3.8983      1.00000
     87      -3.8546      1.00000
     88      -3.6662      1.00000
     89      -3.6505      1.00000
     90      -3.6203      1.00000
     91      -3.4842      1.00000
     92      -3.4758      1.00000
     93      -3.4529      1.00000
     94      -3.4398      1.00000
     95      -3.3370      1.00000
     96      -3.3243      1.00000
     97      -3.1997      1.00000
     98      -3.1208      1.00000
     99      -3.0529      1.00000
    100      -3.0250      1.00000
    101      -2.9717      1.00000
    102      -2.9264      1.00000
    103      -2.8579      1.00000
    104      -2.8050      1.00000
    105      -2.6714      1.00000
    106      -2.6647      1.00000
    107      -2.3118      1.00000
    108      -2.2028      1.00000
    109      -2.1926      1.00000
    110      -2.1789      1.00000
    111      -2.1335      1.00000
    112      -2.0596      1.00000
    113      -1.9520      1.00000
    114      -1.8296      1.00000
    115      -1.7531      1.00000
    116      -1.6716      1.00000
    117      -1.6578      1.00000
    118      -1.6469      1.00000
    119      -0.8321      1.00000
    120      -0.8318      1.00000
    121       1.9862      0.00000
    122       2.0135      0.00000
    123       2.2362      0.00000
    124       2.2669      0.00000
    125       2.2778      0.00000
    126       2.2870      0.00000
    127       2.6557      0.00000
    128       2.6718      0.00000
    129       2.8150      0.00000
    130       2.8437      0.00000
    131       3.0422      0.00000
    132       3.1698      0.00000
    133       3.2449      0.00000
    134       3.2553      0.00000
    135       3.2633      0.00000
    136       3.3229      0.00000
    137       3.4346      0.00000
    138       3.4974      0.00000
    139       3.5049      0.00000
    140       3.5441      0.00000
    141       3.5584      0.00000
    142       3.5677      0.00000
    143       3.5821      0.00000
    144       3.7639      0.00000
    145       3.8483      0.00000
    146       3.8670      0.00000
    147       3.9398      0.00000
    148       4.0072      0.00000
    149       4.0139      0.00000
    150       4.0942      0.00000
    151       4.1720      0.00000
    152       4.8038      0.00000
    153       4.9381      0.00000
    154       5.0666      0.00000
    155       5.6705      0.00000
    156       5.6940      0.00000
    157       5.8398      0.00000
    158       6.2141      0.00000
    159       6.5060      0.00000
    160       6.5392      0.00000

 k-point     6 :       0.3750    0.3750    0.1250
  band No.  band energies     occupation 
      1     -34.9331      1.00000
      2     -34.9310      1.00000
      3     -34.9297      1.00000
      4     -34.9277      1.00000
      5     -34.8960      1.00000
      6     -34.8941      1.00000
      7     -34.8928      1.00000
      8     -34.8908      1.00000
      9     -34.7948      1.00000
     10     -34.7938      1.00000
     11     -34.7919      1.00000
     12     -34.7909      1.00000
     13     -34.7649      1.00000
     14     -34.7640      1.00000
     15     -34.7616      1.00000
     16     -34.7608      1.00000
     17     -34.7294      1.00000
     18     -34.7284      1.00000
     19     -34.7228      1.00000
     20     -34.7220      1.00000
     21     -34.6984      1.00000
     22     -34.6976      1.00000
     23     -34.6948      1.00000
     24     -34.6940      1.00000
     25     -23.0557      1.00000
     26     -23.0276      1.00000
     27     -23.0140      1.00000
     28     -22.9925      1.00000
     29     -22.8762      1.00000
     30     -22.8544      1.00000
     31     -22.8440      1.00000
     32     -22.8287      1.00000
     33     -22.4273      1.00000
     34     -22.4113      1.00000
     35     -22.3379      1.00000
     36     -22.3296      1.00000
     37     -22.2968      1.00000
     38     -22.2920      1.00000
     39     -22.2117      1.00000
     40     -22.2088      1.00000
     41     -16.7701      1.00000
     42     -16.7642      1.00000
     43     -16.6416      1.00000
     44     -16.6352      1.00000
     45     -16.5749      1.00000
     46     -16.5677      1.00000
     47     -16.4736      1.00000
     48     -16.4653      1.00000
     49      -6.3830      1.00000
     50      -6.3746      1.00000
     51      -6.3674      1.00000
     52      -6.3626      1.00000
     53      -6.0311      1.00000
     54      -5.9632      1.00000
     55      -5.9280      1.00000
     56      -5.8893      1.00000
     57      -5.8699      1.00000
     58      -5.8613      1.00000
     59      -5.7736      1.00000
     60      -5.7022      1.00000
     61      -5.6776      1.00000
     62      -5.6322      1.00000
     63      -5.5419      1.00000
     64      -5.5015      1.00000
     65      -5.0828      1.00000
     66      -5.0612      1.00000
     67      -4.9300      1.00000
     68      -4.8671      1.00000
     69      -4.7913      1.00000
     70      -4.7219      1.00000
     71      -4.6699      1.00000
     72      -4.6063      1.00000
     73      -4.5672      1.00000
     74      -4.5356      1.00000
     75      -4.5185      1.00000
     76      -4.5162      1.00000
     77      -4.4212      1.00000
     78      -4.4123      1.00000
     79      -4.3303      1.00000
     80      -4.3272      1.00000
     81      -4.3171      1.00000
     82      -4.2450      1.00000
     83      -4.1368      1.00000
     84      -4.0808      1.00000
     85      -3.9033      1.00000
     86      -3.8699      1.00000
     87      -3.8341      1.00000
     88      -3.8067      1.00000
     89      -3.7554      1.00000
     90      -3.7433      1.00000
     91      -3.3929      1.00000
     92      -3.3356      1.00000
     93      -3.3102      1.00000
     94      -3.2893      1.00000
     95      -3.2672      1.00000
     96      -3.2078      1.00000
     97      -3.1976      1.00000
     98      -3.1798      1.00000
     99      -3.1219      1.00000
    100      -3.0312      1.00000
    101      -2.9853      1.00000
    102      -2.9839      1.00000
    103      -2.8475      1.00000
    104      -2.8276      1.00000
    105      -2.6696      1.00000
    106      -2.6666      1.00000
    107      -2.2034      1.00000
    108      -2.1872      1.00000
    109      -2.1826      1.00000
    110      -2.0614      1.00000
    111      -2.0440      1.00000
    112      -2.0124      1.00000
    113      -1.9245      1.00000
    114      -1.9236      1.00000
    115      -1.8461      1.00000
    116      -1.7539      1.00000
    117      -1.6651      1.00000
    118      -1.6566      1.00000
    119      -0.8318      1.00000
    120      -0.8317      1.00000
    121       2.1649      0.00000
    122       2.1812      0.00000
    123       2.2744      0.00000
    124       2.2809      0.00000
[...]
  0.000   0.000  -0.000  -0.000  -0.000  -0.000   0.000   0.000   0.000  -0.000   0.000   0.000  -0.000   0.000  -0.000   0.000
  0.000  -0.000  -0.000  -0.000  -0.000  -0.000  -0.000  -0.000   0.000   0.000  -0.000   0.000  -0.000   0.000   0.000   0.000
 -0.000   0.000  -0.000   0.000  -0.000   0.000   0.000  -0.000   0.000   0.000   0.000  -0.000   0.000  -0.000  -0.000  -0.000
 -0.000  -0.000   0.000   0.000   0.000  -0.000   0.000  -0.000  -0.000  -0.000  -0.000   0.000   0.000   0.000  -0.000  -0.000
 -0.000   0.000  -0.000   0.000  -0.000  -0.000   0.000  -0.000   0.000   0.000   0.000  -0.000   0.000  -0.000   0.000  -0.000
 -0.000  -0.000   0.000   0.000   0.000   0.000   0.000   0.000  -0.000  -0.000   0.000  -0.000  -0.000   0.000   0.000  -0.000
 -0.000   0.000  -0.000   0.000  -0.000  -0.000   0.000  -0.000   0.000   0.000   0.000  -0.000  -0.000  -0.000  -0.000  -0.000
 -0.000  -0.000  -0.000   0.000   0.000  -0.000  -0.000   0.000   0.000  -0.000   0.000   0.000  -0.000  -0.000   0.000   0.000
 -0.000  -0.000   0.000   0.000   0.000   0.000   0.000   0.000   0.000   0.000   0.000  -0.000  -0.000   0.000  -0.000  -0.000


------------------------ aborting loop because EDIFF is reached ----------------------------------------


 


 total charge     
 
# of ion       s       p       d       tot
------------------------------------------
    1        0.318   6.465   1.757   8.540
    2        0.318   6.465   1.757   8.540
    3        0.318   6.465   1.757   8.540
    4        0.318   6.465   1.757   8.540
    5        0.318   6.465   1.757   8.540
    6        0.318   6.465   1.757   8.540
    7        0.318   6.465   1.757   8.540
    8        0.318   6.465   1.757   8.540
    9        1.569   3.472   0.000   5.041
   10        1.569   3.472   0.000   5.041
   11        1.569   3.472   0.000   5.041
   12        1.569   3.472   0.000   5.041
   13        1.570   3.474   0.000   5.044
   14        1.570   3.474   0.000   5.044
   15        1.570   3.474   0.000   5.044
   16        1.570   3.474   0.000   5.044
   17        1.729   4.383   0.000   6.112
   18        1.729   4.383   0.000   6.112
   19        1.729   4.383   0.000   6.112
   20        1.729   4.383   0.000   6.112
   21        1.729   4.383   0.000   6.112
   22        1.729   4.383   0.000   6.112
   23        1.729   4.383   0.000   6.112
   24        1.729   4.383   0.000   6.112
   25        1.730   4.380   0.000   6.110
   26        1.730   4.380   0.000   6.110
   27        1.730   4.380   0.000   6.110
   28        1.730   4.380   0.000   6.110
   29        1.729   4.378   0.000   6.108
   30        1.729   4.378   0.000   6.108
   31        1.729   4.378   0.000   6.108
   32        1.729   4.378   0.000   6.108
--------------------------------------------------
tot         42.770 149.597  14.058 206.425
 


 magnetization (x)
 
# of ion       s       p       d       tot
------------------------------------------
    1       -0.000   0.000  -0.000  -0.000
    2        0.000   0.000  -0.000  -0.000
    3        0.000   0.000  -0.000  -0.000
    4        0.000   0.000  -0.000  -0.000
    5       -0.000  -0.000   0.000   0.000
    6       -0.000  -0.000   0.000   0.000
    7       -0.000  -0.000   0.000   0.000
    8       -0.000  -0.000   0.000   0.000
    9        0.000   0.000   0.000   0.000
   10        0.000   0.000   0.000   0.000
   11       -0.000  -0.000   0.000  -0.000
   12       -0.000  -0.000   0.000  -0.000
   13        0.000   0.000   0.000   0.000
   14        0.000   0.000   0.000   0.000
   15       -0.000  -0.000   0.000  -0.000
   16       -0.000  -0.000   0.000  -0.000
   17       -0.000   0.000   0.000  -0.000
   18        0.000   0.000   0.000   0.000
   19       -0.000  -0.000   0.000  -0.000
   20        0.000  -0.000   0.000   0.000
   21       -0.000   0.000   0.000  -0.000
   22        0.000  -0.000   0.000   0.000
   23       -0.000   0.000   0.000  -0.000
   24        0.000  -0.000   0.000   0.000
   25       -0.000  -0.000   0.000  -0.000
   26        0.000  -0.000   0.000  -0.000
   27       -0.000   0.000   0.000   0.000
   28        0.000   0.000   0.000   0.000
   29        0.000   0.000   0.000   0.000
   30        0.000   0.000   0.000   0.000
   31       -0.000  -0.000   0.000  -0.000
   32       -0.000  -0.000   0.000  -0.000
--------------------------------------------------
tot         -0.000  -0.000  -0.000  -0.000
 
    CHARGE:  cpu time    1.1758: real time    1.1864
    FORLOC:  cpu time    0.0100: real time    0.0094
    FORNL :  cpu time    6.8010: real time    6.8767
    STRESS:  cpu time   20.7408: real time   20.8839
    FORCOR:  cpu time    0.1290: real time    0.1292
    FORHAR:  cpu time    0.0210: real time    0.0213
    MIXING:  cpu time    0.0020: real time    0.0016
    OFIELD:  cpu time    0.0000: real time    0.0000

  FORCE on cell =-STRESS in cart. coord.  units (eV):
  Direction    XX          YY          ZZ          XY          YZ          ZX
  --------------------------------------------------------------------------------------
  Alpha Z   761.22871   761.22871   761.22871
  Ewald   -4342.60533 -4240.96503 -4246.81074    -0.00000    -0.00004    -0.00000
  Hartree  2711.95007  2749.11935  2755.49295    -0.00000    -0.00001    -0.00000
  E(xc)   -1232.08585 -1232.56137 -1232.58776    -0.00000     0.00000    -0.00000
  Local   -2013.08438 -2210.67658 -2210.85305     0.00000     0.00005     0.00000
  n-local  -974.77399  -962.90505  -963.13076    -0.00000    -0.00000     0.00000
  augment   744.33517   763.69687   763.70046     0.00000    -0.00000     0.00000
  Kinetic  4345.11736  4373.09281  4373.05282     0.00000     0.00000     0.00000
  Fock        0.00000     0.00000     0.00000     0.00000     0.00000     0.00000
  -------------------------------------------------------------------------------------
  Total       0.08177     0.02970     0.09264     0.00000    -0.00000    -0.00000
  in kB       0.28479     0.10345     0.32267     0.00000    -0.00000    -0.00000
  external pressure =        0.24 kB  Pullay stress =        0.00 kB


 VOLUME and BASIS-vectors are now :
 -----------------------------------------------------------------------------
  energy-cutoff  :      700.00
  volume of cell :      460.00
      direct lattice vectors                 reciprocal lattice vectors
     7.850613960 -0.000000001 -0.000000012     0.127378573 -0.000000000  0.000000000
     0.000000000  7.657217378  0.000000020     0.000000000  0.130595744 -0.000000000
    -0.000000011  0.000000026  7.652165379     0.000000000 -0.000000000  0.130681964

  length of vectors
     7.850613960  7.657217378  7.652165379     0.127378573  0.130595744  0.130681964


 FORCES acting on ions
    electron-ion (+dipol)            ewald-force                    non-local-force                 convergence-correction
 -----------------------------------------------------------------------------------------------
   -.692E-05 0.350E+02 0.120E+02   0.672E-05 -.359E+02 -.129E+02   0.160E-06 0.828E+00 0.918E+00   -.558E-07 -.221E-03 -.226E-03
   0.611E-05 0.350E+02 -.120E+02   -.588E-05 -.359E+02 0.129E+02   -.155E-06 0.828E+00 -.918E+00   0.237E-09 -.218E-03 0.218E-03
   0.646E-05 -.350E+02 -.120E+02   -.630E-05 0.359E+02 0.129E+02   -.144E-06 -.828E+00 -.918E+00   -.294E-07 0.214E-03 0.225E-03
   -.773E-05 -.350E+02 0.120E+02   0.763E-05 0.359E+02 -.129E+02   0.165E-06 -.828E+00 0.918E+00   -.547E-07 0.226E-03 -.233E-03
   -.772E-05 0.350E+02 0.120E+02   0.761E-05 -.359E+02 -.129E+02   0.163E-06 0.828E+00 0.918E+00   0.431E-07 -.190E-03 -.201E-03
   0.740E-05 0.350E+02 -.120E+02   -.735E-05 -.359E+02 0.129E+02   -.145E-06 0.828E+00 -.918E+00   0.261E-07 -.209E-03 0.212E-03
   0.784E-05 -.350E+02 -.120E+02   -.771E-05 0.359E+02 0.129E+02   -.191E-06 -.828E+00 -.918E+00   0.473E-07 0.200E-03 0.213E-03
   -.521E-05 -.350E+02 0.120E+02   0.504E-05 0.359E+02 -.129E+02   0.125E-06 -.828E+00 0.918E+00   0.363E-07 0.199E-03 -.204E-03
   -.229E-05 0.725E-04 -.410E-04   0.248E-05 -.518E-04 0.430E-04   -.182E-06 0.510E-05 -.404E-05   -.118E-07 -.307E-04 0.223E-05
   -.930E-06 -.160E-03 0.318E-04   0.972E-06 0.141E-03 -.350E-04   -.270E-07 -.763E-05 0.346E-05   -.903E-08 0.372E-04 0.564E-06
   0.192E-05 -.197E-03 -.913E-05   -.209E-05 0.173E-03 0.114E-04   0.149E-06 -.101E-04 -.169E-05   0.129E-07 0.462E-04 -.154E-05
   0.139E-05 0.163E-03 0.176E-04   -.147E-05 -.138E-03 -.174E-04   0.680E-07 0.943E-05 0.148E-05   0.837E-08 -.447E-04 -.225E-05
   -.267E-05 -.435E+01 0.944E-04   0.284E-05 0.710E+01 -.763E-04   -.159E-06 -.275E+01 0.738E-05   -.825E-08 -.382E-04 -.316E-04
   0.271E-05 0.435E+01 0.146E-03   -.302E-05 -.710E+01 -.127E-03   0.330E-06 0.275E+01 0.753E-05   -.701E-08 0.377E-04 -.363E-04
   0.242E-05 -.435E+01 -.219E-03   -.258E-05 0.710E+01 0.193E-03   0.138E-06 -.275E+01 -.994E-05   0.105E-07 -.342E-04 0.502E-04
   -.243E-05 0.435E+01 -.134E-03   0.272E-05 -.710E+01 0.112E-03   -.310E-06 0.275E+01 -.915E-05   0.528E-08 0.341E-04 0.407E-04
   -.230E-03 0.857E+00 -.122E+02   0.200E-03 0.234E+01 0.156E+02   -.108E-04 -.320E+01 -.345E+01   0.490E-04 -.308E-04 -.260E-04
   0.436E-04 0.857E+00 0.122E+02   -.148E-04 0.234E+01 -.156E+02   0.197E-05 -.320E+01 0.345E+01   -.326E-04 -.314E-04 0.245E-04
   -.571E-05 -.857E+00 0.122E+02   0.327E-04 -.234E+01 -.156E+02   0.478E-06 0.320E+01 0.345E+01   -.279E-04 0.297E-04 0.264E-04
   -.236E-03 -.857E+00 -.122E+02   0.206E-03 -.234E+01 0.156E+02   -.106E-04 0.320E+01 -.345E+01   0.492E-04 0.318E-04 -.266E-04
   0.232E-03 0.857E+00 -.122E+02   -.200E-03 0.234E+01 0.156E+02   0.903E-05 -.320E+01 -.345E+01   -.490E-04 -.308E-04 -.260E-04
   -.435E-04 0.857E+00 0.122E+02   0.128E-04 0.234E+01 -.156E+02   -.844E-07 -.320E+01 0.345E+01   0.326E-04 -.314E-04 0.245E-04
   0.399E-05 -.857E+00 0.122E+02   -.327E-04 -.234E+01 -.156E+02   0.118E-05 0.320E+01 0.345E+01   0.279E-04 0.297E-04 0.264E-04
   0.236E-03 -.857E+00 -.122E+02   -.204E-03 -.234E+01 0.156E+02   0.870E-05 0.320E+01 -.345E+01   -.492E-04 0.318E-04 -.266E-04
   0.233E-05 -.789E-04 0.241E-04   -.264E-05 0.559E-04 -.283E-04   0.322E-06 -.479E-05 0.192E-05   -.244E-08 0.304E-04 0.237E-05
   0.731E-06 0.152E-03 -.286E-04   -.753E-06 -.126E-03 0.307E-04   0.165E-07 0.540E-05 -.192E-05   -.166E-08 -.364E-04 0.252E-06
   -.273E-05 0.162E-03 0.709E-05   0.308E-05 -.127E-03 -.637E-05   -.368E-06 0.438E-05 0.150E-06   0.247E-08 -.455E-04 -.132E-05
   -.234E-06 -.149E-03 -.151E-05   0.197E-06 0.114E-03 0.365E-05   0.450E-07 -.416E-05 -.209E-06   0.237E-08 0.440E-04 -.223E-05
   0.268E-05 -.169E+00 -.747E-04   -.286E-05 0.336E+01 0.477E-04   0.179E-06 -.318E+01 -.333E-06   -.512E-08 -.780E-05 0.306E-04
   -.232E-05 0.169E+00 -.134E-03   0.252E-05 -.336E+01 0.110E-03   -.197E-06 0.318E+01 -.576E-05   -.309E-08 0.723E-05 0.351E-04
   -.281E-05 -.169E+00 0.204E-03   0.296E-05 0.336E+01 -.171E-03   -.154E-06 -.318E+01 0.762E-05   0.559E-08 -.364E-05 -.484E-04
   0.255E-05 0.169E+00 0.948E-04   -.274E-05 -.336E+01 -.598E-04   0.193E-06 0.318E+01 0.279E-06   0.233E-08 0.354E-05 -.395E-04
 -----------------------------------------------------------------------------------------------
   0.490E-07 0.459E-05 0.387E-05   -.439E-13 0.119E-12 0.125E-12   -.609E-07 -.221E-05 0.952E-06   0.722E-08 -.127E-05 -.187E-06
 
 
 POSITION                                       TOTAL-FORCE (eV/Angst)
 -----------------------------------------------------------------------------------
      0.00000      7.57062      7.56006        -0.000000      0.003171      0.001279
      7.85061      7.57062      3.91819         0.000000      0.003170     -0.001283
      7.85061      3.91520      0.09211        -0.000000     -0.003174     -0.001280
      0.00000      3.91520      3.73398         0.000000     -0.003168      0.001278
      3.92531      7.57062      7.56006         0.000000      0.003185      0.001287
      3.92531      7.57062      3.91819        -0.000000      0.003178     -0.001284
      3.92531      3.91520      0.09211        -0.000000     -0.003183     -0.001282
      3.92531      3.91520      3.73398        -0.000000     -0.003181      0.001286
      0.00000      5.74291      0.00000         0.000000     -0.000005      0.000000
      7.85061      5.74291      3.82608         0.000000      0.000010      0.000001
      3.92531      5.74291      0.00000        -0.000000      0.000012     -0.000001
      3.92531      5.74291      3.82608        -0.000000     -0.000010     -0.000001
      0.00000      0.03800      5.73912         0.000000     -0.000889     -0.000006
      7.85061      3.79061      1.91304         0.000000      0.000889     -0.000009
      3.92531      0.03800      5.73912        -0.000000     -0.000890      0.000014
      3.92531      3.79061      1.91304        -0.000000      0.000890      0.000009
      1.96265      0.04782      0.05631         0.000008      0.002024      0.006445
      1.96265      0.04782      3.76977        -0.000002      0.002025     -0.006445
      1.96265      3.78079      7.59586        -0.000000     -0.002025     -0.006445
      1.96265      3.78079      3.88239         0.000008     -0.002025      0.006445
      5.88796      0.04782      0.05631        -0.000008      0.002024      0.006445
      5.88796      0.04782      3.76977         0.000002      0.002025     -0.006445
      5.88796      3.78079      7.59586         0.000000     -0.002025     -0.006445
      5.88796      3.78079      3.88239        -0.000008     -0.002025      0.006445
      7.85061      1.91430      7.65217         0.000000      0.000003     -0.000000
      7.85061      1.91430      3.82608        -0.000000     -0.000005      0.000000
      3.92531      1.91430      7.65217        -0.000000     -0.000006     -0.000001
      3.92531      1.91430      3.82608         0.000000      0.000005     -0.000000
      7.85061      0.07356      1.91304        -0.000000      0.004014      0.000003
      0.00000      3.75505      5.73912        -0.000000     -0.004015      0.000005
      3.92531      0.07356      1.91304         0.000000      0.004013     -0.000007
      3.92531      3.75505      5.73912         0.000000     -0.004013     -0.000004
 -----------------------------------------------------------------------------------
    total drift:                               -0.000000      0.000001      0.000005


--------------------------------------------------------------------------------------------------------



  FREE ENERGIE OF THE ION-ELECTRON SYSTEM (eV)
  ---------------------------------------------------
  free  energy   TOTEN  =      -213.61840580 eV

  energy  without entropy=     -213.61840580  energy(sigma->0) =     -213.61840580
 


--------------------------------------------------------------------------------------------------------


    POTLOK:  cpu time    0.9669: real time    0.9742


--------------------------------------------------------------------------------------------------------


 stress matrix after NEB project (eV)
      0.08177      0.00000     -0.00000
      0.00000      0.02970     -0.00000
     -0.00000     -0.00000      0.09264
  FORCES: max atom, RMS     0.006756    0.004056
  FORCE total and by dimension    0.022947    0.006445
  Stress total and by dimension    0.127083    0.092641
 Quasi-Newton relaxation of ions (Broydens 2nd method)
  g(Force)  = 0.254E-04   g(Stress)= 0.243E-04

 Reset! Starting new Quasi-Newton update for ions 


--------------------------------------------------------------------------------------------------------


  
 reached required accuracy - stopping structural energy minimisation
 writing wavefunctions
     LOOP+:  cpu time  192.3128: real time  195.7095
    4ORBIT:  cpu time    0.0000: real time    0.0000
 


 total charge     
 
# of ion       s       p       d       tot
------------------------------------------
    1        0.318   6.465   1.757   8.540
    2        0.318   6.465   1.757   8.540
    3        0.318   6.465   1.757   8.540
    4        0.318   6.465   1.757   8.540
    5        0.318   6.465   1.757   8.540
    6        0.318   6.465   1.757   8.540
    7        0.318   6.465   1.757   8.540
    8        0.318   6.465   1.757   8.540
    9        1.569   3.472   0.000   5.041
   10        1.569   3.472   0.000   5.041
   11        1.569   3.472   0.000   5.041
   12        1.569   3.472   0.000   5.041
   13        1.570   3.474   0.000   5.044
   14        1.570   3.474   0.000   5.044
   15        1.570   3.474   0.000   5.044
   16        1.570   3.474   0.000   5.044
   17        1.729   4.383   0.000   6.112
   18        1.729   4.383   0.000   6.112
   19        1.729   4.383   0.000   6.112
   20        1.729   4.383   0.000   6.112
   21        1.729   4.383   0.000   6.112
   22        1.729   4.383   0.000   6.112
   23        1.729   4.383   0.000   6.112
   24        1.729   4.383   0.000   6.112
   25        1.730   4.380   0.000   6.110
   26        1.730   4.380   0.000   6.110
   27        1.730   4.380   0.000   6.110
   28        1.730   4.380   0.000   6.110
   29        1.729   4.378   0.000   6.108
   30        1.729   4.378   0.000   6.108
   31        1.729   4.378   0.000   6.108
   32        1.729   4.378   0.000   6.108
--------------------------------------------------
tot         42.770 149.597  14.058 206.425
 


 magnetization (x)
 
# of ion       s       p       d       tot
------------------------------------------
    1       -0.000   0.000  -0.000  -0.000
    2        0.000   0.000  -0.000  -0.000
    3        0.000   0.000  -0.000  -0.000
    4        0.000   0.000  -0.000  -0.000
    5       -0.000  -0.000   0.000   0.000
    6       -0.000  -0.000   0.000   0.000
    7       -0.000  -0.000   0.000   0.000
    8       -0.000  -0.000   0.000   0.000
    9        0.000   0.000   0.000   0.000
   10        0.000   0.000   0.000   0.000
   11       -0.000  -0.000   0.000  -0.000
   12       -0.000  -0.000   0.000  -0.000
   13        0.000   0.000   0.000   0.000
   14        0.000   0.000   0.000   0.000
   15       -0.000  -0.000   0.000  -0.000
   16       -0.000  -0.000   0.000  -0.000
   17       -0.000   0.000   0.000  -0.000
   18        0.000   0.000   0.000   0.000
   19       -0.000  -0.000   0.000  -0.000
   20        0.000  -0.000   0.000   0.000
   21       -0.000   0.000   0.000  -0.000
   22        0.000  -0.000   0.000   0.000
   23       -0.000   0.000   0.000  -0.000
   24        0.000  -0.000   0.000   0.000
   25       -0.000  -0.000   0.000  -0.000
   26        0.000  -0.000   0.000  -0.000
   27       -0.000   0.000   0.000   0.000
   28        0.000   0.000   0.000   0.000
   29        0.000   0.000   0.000   0.000
   30        0.000   0.000   0.000   0.000
   31       -0.000  -0.000   0.000  -0.000
   32       -0.000  -0.000   0.000  -0.000
--------------------------------------------------
tot         -0.000  -0.000  -0.000  -0.000
 

 total amount of memory used by VASP MPI-rank0   106723. kBytes
=======================================================================

   base      :      30000. kBytes
   nonlr-proj:       8603. kBytes
   fftplans  :       8423. kBytes
   grid      :       8783. kBytes
   one-center:        124. kBytes
   wavefun   :      50790. kBytes
 
  
  
 General timing and accounting informations for this job:
 ========================================================
  
                  Total CPU time used (sec):      243.392
                            User time (sec):      233.750
                          System time (sec):        9.642
                         Elapsed time (sec):      268.694
  
                   Maximum memory used (kb):      219712.
                   Average memory used (kb):           0.
  
                          Minor page faults:       103404
                          Major page faults:            2
                 Voluntary context switches:        65421
