LTO                                     
           1
     7.844831   -0.000000   -0.000000
    -0.000000    7.664070    0.004310
    -0.000000    0.004310    7.664062
   Ti   O    F 
   8   8  16
Direct configuration=     1
   0.00000000  0.98787478  0.98787448
   1.00000000  0.01212536  0.51212561
   1.00000000  0.51212535  0.01212564
   0.00000000  0.48787475  0.48787449
   0.50000000  0.98787455  0.98787428
   0.50000000  0.01212520  0.51212550
   0.50000000  0.51212521  0.01212549
   0.50000000  0.48787457  0.48787429
   0.00000000  0.24999977  0.49999995
   0.00000000  0.74999978  0.99999996
   0.50000000  0.25000019  0.50000000
   0.50000000  0.75000019  1.00000000
   1.00000000  0.99999997  0.74999974
   1.00000000  0.49999994  0.24999980
   0.50000000  0.00000001  0.75000015
   0.50000000  0.49999999  0.25000023
   0.25000000  0.00744505  0.00744500
   0.24999999  0.99255517  0.49255518
   0.24999998  0.49255505  0.99255509
   0.24999999  0.50744496  0.50744496
   0.75000001  0.00744505  0.00744500
   0.75000001  0.99255517  0.49255517
   0.75000001  0.49255505  0.99255509
   0.75000001  0.50744496  0.50744496
   0.00000000  0.24999996  0.99999998
   0.00000000  0.74999995  0.49999998
   0.50000000  0.25000007  0.99999996
   0.50000000  0.75000008  0.49999997
   0.00000000  1.00000000  0.24999999
   0.00000000  0.49999996  0.74999992
   0.50000000  0.99999997  0.25000009
   0.50000000  0.49999995  0.75000006
