 vasp.5.4.4.18Apr17-6-g9f103f2a35 (build Jul 16 2019 12:12:28) complex          
  
 executed on             LinuxIFC date 2020.01.06  15:35:32
 running on   96 total cores
 distrk:  each k-point on   96 cores,    1 groups
 distr:  one band on NCORES_PER_BAND=   8 cores,   12 groups


--------------------------------------------------------------------------------------------------------


 INCAR:
 POTCAR:    PAW_PBE Li_sv 10Sep2004               
 POTCAR:    PAW_PBE Ti_pv 07Sep2000               
 POTCAR:    PAW_PBE O 08Apr2002                   
 POTCAR:    PAW_PBE F 08Apr2002                   
 POTCAR:    PAW_PBE Li_sv 10Sep2004               
   VRHFIN =Li: 1s2s2p                                                           
   LEXCH  = PE                                                                  
   EATOM  =   202.7858 eV,   14.9043 Ry                                         
                                                                                
   TITEL  = PAW_PBE Li_sv 10Sep2004                                             
   LULTRA =        F    use ultrasoft PP ?                                      
   IUNSCR =        0    unscreen: 0-lin 1-nonlin 2-no                           
   RPACOR =    0.000    partial core radius                                     
   POMASS =    7.010; ZVAL   =    3.000    mass and valenz                      
   RCORE  =    1.700    outmost cutoff radius                                   
   RWIGS  =    2.050; RWIGS  =    1.085    wigner-seitz radius (au A)           
   ENMAX  =  499.034; ENMIN  =  374.276 eV                                      
   ICORE  =        2    local potential                                         
   LCOR   =        T    correct aug charges                                     
   LPAW   =        T    paw PP                                                  
   EAUG   =  628.945                                                            
   RMAX   =    1.732    core radius for proj-oper                               
   RAUG   =    1.300    factor for augmentation sphere                          
   RDEP   =    1.728    radius for radial grids                                 
   RDEPT  =    1.329    core radius for aug-charge                              
                                                                                
   Atomic configuration                                                         
    4 entries                                                                   
     n  l   j            E        occ.                                          
     1  0  0.50       -51.8549   2.0000                                         
     2  0  0.50        -2.8742   1.0000                                         
     2  1  0.50        -1.3606   0.0000                                         
     3  2  1.50        -1.3606   0.0000                                         
   Description                                                                  
     l       E           TYP  RCUT    TYP  RCUT                                 
     0    -51.8548813     23  1.400                                             
     0     -2.8742052     23  1.700                                             
     1     -1.3605826     23  1.400                                             
     2     -1.3605826     23  1.400                                             
  local pseudopotential read in
  atomic valenz-charges read in
  non local Contribution for L=           0  read in
    real space projection operators read in
  non local Contribution for L=           0  read in
    real space projection operators read in
  non local Contribution for L=           1  read in
    real space projection operators read in
    PAW grid and wavefunctions read in
 
   number of l-projection  operators is LMAX  =           3
   number of lm-projection operators is LMMAX =           5
 
 POTCAR:    PAW_PBE Ti_pv 07Sep2000               
   VRHFIN =Ti: d3 s1                                                            
   LEXCH  = PE                                                                  
   EATOM  =  1042.5995 eV,   76.6289 Ry                                         
                                                                                
   TITEL  = PAW_PBE Ti_pv 07Sep2000                                             
   LULTRA =        F    use ultrasoft PP ?                                      
   IUNSCR =        1    unscreen: 0-lin 1-nonlin 2-no                           
   RPACOR =    2.200    partial core radius                                     
   POMASS =   47.880; ZVAL   =   10.000    mass and valenz                      
   RCORE  =    2.500    outmost cutoff radius                                   
   RWIGS  =    2.500; RWIGS  =    1.323    wigner-seitz radius (au A)           
   ENMAX  =  222.335; ENMIN  =  166.751 eV                                      
   RCLOC  =    1.701    cutoff for local pot                                    
   LCOR   =        T    correct aug charges                                     
   LPAW   =        T    paw PP                                                  
   EAUG   =  482.848                                                            
   DEXC   =    0.000                                                            
   RMAX   =    2.564    core radius for proj-oper                               
   RAUG   =    1.300    factor for augmentation sphere                          
   RDEP   =    2.538    radius for radial grids                                 
   RDEPT  =    1.952    core radius for aug-charge                              
                                                                                
   Atomic configuration                                                         
    8 entries                                                                   
     n  l   j            E        occ.                                          
     1  0  0.50     -4865.3608   2.0000                                         
     2  0  0.50      -533.1368   2.0000                                         
     2  1  1.50      -440.5031   6.0000                                         
     3  0  0.50       -59.3186   2.0000                                         
     3  1  1.50       -35.7012   6.0000                                         
     3  2  2.50        -1.9157   3.0000                                         
     4  0  0.50        -3.7291   1.0000                                         
     4  3  2.50        -1.3606   0.0000                                         
   Description                                                                  
     l       E           TYP  RCUT    TYP  RCUT                                 
     1    -35.7012140     23  2.300                                             
     1     -1.3605826     23  2.300                                             
     2     -1.9156996     23  2.500                                             
     2     -0.4063033     23  2.500                                             
     0     -3.7290856     23  2.500                                             
     0     20.4087390     23  2.500                                             
  local pseudopotential read in
  partial core-charges read in
  partial kinetic energy density read in
  atomic valenz-charges read in
  non local Contribution for L=           1  read in
    real space projection operators read in
  non local Contribution for L=           1  read in
    real space projection operators read in
  non local Contribution for L=           2  read in
    real space projection operators read in
  non local Contribution for L=           2  read in
    real space projection operators read in
  non local Contribution for L=           0  read in
    real space projection operators read in
  non local Contribution for L=           0  read in
    real space projection operators read in
    PAW grid and wavefunctions read in
 
   number of l-projection  operators is LMAX  =           6
   number of lm-projection operators is LMMAX =          18
 
 POTCAR:    PAW_PBE O 08Apr2002                   
   VRHFIN =O: s2p4                                                              
   LEXCH  = PE                                                                  
   EATOM  =   432.3788 eV,   31.7789 Ry                                         
                                                                                
   TITEL  = PAW_PBE O 08Apr2002                                                 
   LULTRA =        F    use ultrasoft PP ?                                      
   IUNSCR =        1    unscreen: 0-lin 1-nonlin 2-no                           
   RPACOR =    1.200    partial core radius                                     
   POMASS =   16.000; ZVAL   =    6.000    mass and valenz                      
   RCORE  =    1.520    outmost cutoff radius                                   
   RWIGS  =    1.550; RWIGS  =    0.820    wigner-seitz radius (au A)           
   ENMAX  =  400.000; ENMIN  =  300.000 eV                                      
   ICORE  =        2    local potential                                         
   LCOR   =        T    correct aug charges                                     
   LPAW   =        T    paw PP                                                  
   EAUG   =  605.392                                                            
   DEXC   =    0.000                                                            
   RMAX   =    1.553    core radius for proj-oper                               
   RAUG   =    1.300    factor for augmentation sphere                          
   RDEP   =    1.550    radius for radial grids                                 
   RDEPT  =    1.329    core radius for aug-charge                              
                                                                                
   Atomic configuration                                                         
    4 entries                                                                   
     n  l   j            E        occ.                                          
     1  0  0.50      -514.6923   2.0000                                         
     2  0  0.50       -23.9615   2.0000                                         
     2  1  0.50        -9.0305   4.0000                                         
     3  2  1.50        -9.5241   0.0000                                         
   Description                                                                  
     l       E           TYP  RCUT    TYP  RCUT                                 
     0    -23.9615318     23  1.200                                             
     0     -9.5240782     23  1.200                                             
     1     -9.0304911     23  1.520                                             
     1      8.1634956     23  1.520                                             
     2     -9.5240782      7  1.500                                             
  local pseudopotential read in
  partial core-charges read in
  partial kinetic energy density read in
  kinetic energy density of atom read in
  atomic valenz-charges read in
  non local Contribution for L=           0  read in
    real space projection operators read in
  non local Contribution for L=           0  read in
    real space projection operators read in
  non local Contribution for L=           1  read in
    real space projection operators read in
  non local Contribution for L=           1  read in
    real space projection operators read in
    PAW grid and wavefunctions read in
 
   number of l-projection  operators is LMAX  =           4
   number of lm-projection operators is LMMAX =           8
 
 POTCAR:    PAW_PBE F 08Apr2002                   
   VRHFIN =F: s2p5                                                              
   LEXCH  = PE                                                                  
   EATOM  =   659.6475 eV,   48.4827 Ry                                         
                                                                                
   TITEL  = PAW_PBE F 08Apr2002                                                 
   LULTRA =        F    use ultrasoft PP ?                                      
   IUNSCR =        1    unscreen: 0-lin 1-nonlin 2-no                           
   RPACOR =    1.200    partial core radius                                     
   POMASS =   18.998; ZVAL   =    7.000    mass and valenz                      
   RCORE  =    1.520    outmost cutoff radius                                   
   RWIGS  =    1.500; RWIGS  =    0.794    wigner-seitz radius (au A)           
   ENMAX  =  400.000; ENMIN  =  300.000 eV                                      
   ICORE  =        2    local potential                                         
   LCOR   =        T    correct aug charges                                     
   LPAW   =        T    paw PP                                                  
   EAUG   =  613.614                                                            
   RMAX   =    1.555    core radius for proj-oper                               
   RAUG   =    1.300    factor for augmentation sphere                          
   RDEP   =    1.539    radius for radial grids                                 
   RDEPT  =    1.299    core radius for aug-charge                              
                                                                                
   Atomic configuration                                                         
    4 entries                                                                   
     n  l   j            E        occ.                                          
     1  0  0.50      -663.3661   2.0000                                         
     2  0  0.50       -29.8995   2.0000                                         
     2  1  0.50       -11.1114   5.0000                                         
     3  2  1.50       -10.8847   0.0000                                         
   Description                                                                  
     l       E           TYP  RCUT    TYP  RCUT                                 
     0    -29.8995018     23  1.200                                             
     0     -9.5240782     23  1.200                                             
     1    -11.1113914     23  1.520                                             
     1      1.3605826     23  1.520                                             
     2    -10.8846608      7  1.500                                             
  local pseudopotential read in
  partial core-charges read in
  partial kinetic energy density read in
  atomic valenz-charges read in
  non local Contribution for L=           0  read in
    real space projection operators read in
  non local Contribution for L=           0  read in
    real space projection operators read in
  non local Contribution for L=           1  read in
    real space projection operators read in
  non local Contribution for L=           1  read in
    real space projection operators read in
    PAW grid and wavefunctions read in
 
   number of l-projection  operators is LMAX  =           4
   number of lm-projection operators is LMMAX =           8
 
 Optimization of the real space projectors (new method)

 maximal supplied QI-value         = 22.11
 optimisation between [QCUT,QGAM] = [ 11.28, 22.77] = [ 35.61,145.23] Ry 
 Optimized for a Real-space Cutoff    1.31 Angstroem

   l    n(q)    QCUT    max X(q) W(low)/X(q) W(high)/X(q)  e(spline) 
   0      9    11.276    10.506    0.19E-04    0.17E-04    0.32E-07
   0      9    11.276     8.367    0.38E-04    0.40E-04    0.65E-07
   1      8    11.276     8.983    0.55E-04    0.98E-04    0.20E-06
 Optimization of the real space projectors (new method)

 maximal supplied QI-value         = 15.12
 optimisation between [QCUT,QGAM] = [ 11.34, 22.83] = [ 36.00,145.93] Ry 
 Optimized for a Real-space Cutoff    1.56 Angstroem

   l    n(q)    QCUT    max X(q) W(low)/X(q) W(high)/X(q)  e(spline) 
   1     10    11.338     4.216    0.27E-04    0.12E-04    0.66E-07
   1     10    11.338     5.422    0.81E-04    0.24E-04    0.19E-06
   2     10    11.338    72.084    0.64E-04    0.21E-03    0.51E-06
   2     10    11.338    65.965    0.63E-04    0.21E-03    0.50E-06
   0     11    11.338    41.531    0.33E-04    0.54E-04    0.13E-06
   0     11    11.338    16.290    0.26E-04    0.41E-04    0.11E-06
 Optimization of the real space projectors (new method)

 maximal supplied QI-value         = 24.76
 optimisation between [QCUT,QGAM] = [ 11.39, 22.77] = [ 36.31,145.25] Ry 
 Optimized for a Real-space Cutoff    1.20 Angstroem

   l    n(q)    QCUT    max X(q) W(low)/X(q) W(high)/X(q)  e(spline) 
   0      8    11.387    20.381    0.89E-04    0.31E-03    0.27E-06
   0      8    11.387    15.268    0.93E-04    0.32E-03    0.29E-06
   1      8    11.387     5.964    0.53E-04    0.28E-03    0.29E-06
   1      8    11.387     5.382    0.37E-04    0.22E-03    0.26E-06
 Optimization of the real space projectors (new method)

 maximal supplied QI-value         = 24.76
 optimisation between [QCUT,QGAM] = [ 11.39, 22.77] = [ 36.31,145.25] Ry 
 Optimized for a Real-space Cutoff    1.20 Angstroem

   l    n(q)    QCUT    max X(q) W(low)/X(q) W(high)/X(q)  e(spline) 
   0      8    11.387    14.049    0.69E-04    0.23E-03    0.18E-06
   0      8    11.387     8.945    0.88E-04    0.30E-03    0.26E-06
   1      8    11.387     7.086    0.62E-04    0.27E-03    0.27E-06
   1      8    11.387     6.747    0.46E-04    0.23E-03    0.25E-06

 ----------------------------------------------------------------------------- 
|                                                                             |
|  ADVICE TO THIS USER RUNNING 'VASP/VAMP'   (HEAR YOUR MASTER'S VOICE ...):  |
|                                                                             |
|      You enforced a specific xc-type in the INCAR file,                     |
|      a different type was found on the POTCAR file                          |
|          I HOPE YOU KNOW, WHAT YOU ARE  DOING                               |
|                                                                             |
 ----------------------------------------------------------------------------- 

  PAW_PBE Li_sv 10Sep2004               :
 energy of atom  1       EATOM= -202.7858
 kinetic energy error for atom=    0.0143 (will be added to EATOM!!)
  PAW_PBE Ti_pv 07Sep2000               :
 energy of atom  2       EATOM=-1042.5995
 kinetic energy error for atom=    0.0024 (will be added to EATOM!!)
  PAW_PBE O 08Apr2002                   :
 energy of atom  3       EATOM= -432.3788
 kinetic energy error for atom=    0.0224 (will be added to EATOM!!)
  PAW_PBE F 08Apr2002                   :
 energy of atom  4       EATOM= -659.6475
 kinetic energy error for atom=    0.0354 (will be added to EATOM!!)
 
 
 POSCAR: config 20                               
  positions in direct lattice
  velocities in cartesian coordinates
 exchange correlation table for  LEXCH =       14
   RHO(1)=    0.500       N(1)  =     2000
   RHO(2)=  100.500       N(2)  =     4000

 VTST: version 3.2, (02/03/18)

 CHAIN: initializing optimizer
 
 OPT: Using VASP QUASI-newton optimizer
 CHAIN: Read ICHAIN            0
 
 POSCAR: config 20                               
  positions in direct lattice
  velocities in cartesian coordinates
 


--------------------------------------------------------------------------------------------------------


 ion  position               nearest neighbor table
   1  0.383  0.127  0.926- 101 1.97 109 1.97 216 2.04
   2  0.995  0.996  0.994- 118 1.86  68 1.88 103 1.89 212 2.03 130 2.05 171 2.05
   3  0.000  0.991  0.493- 119 1.81  67 1.83 172 1.95 193 1.96 131 2.00 213 2.08
   4  0.005  0.495  0.998-  89 1.84 117 1.86 138 1.93 132 1.98 214 2.02 194 2.02
   5  0.994  0.503  0.507-  66 1.82 104 1.84 215 1.93 223 2.00 173 2.01 137 2.03
   6  0.495  0.992  1.000- 121 1.81 101 1.88 140 1.94 133 1.97 174 1.99 216 2.06
   7  0.501  0.008  0.499- 112 1.77 134 1.91 191 1.91 139 1.94 175 1.94 225 2.02
   8  0.503  0.497  0.996-  70 1.86  90 1.88 120 1.90 192 2.02 217 2.03 135 2.04
   9  0.492  0.499  0.495- 102 1.81  69 1.87 224 1.97 218 1.99 136 2.00 176 2.06
  10  0.007  0.003  0.256-  91 1.84  67 1.85 219 1.94 227 1.97 130 2.00 197 2.05
  11  0.002  0.007  0.757-  68 1.80 113 1.84 177 1.94 198 1.98 228 2.04 131 2.06
  12  0.994  0.494  0.251- 107 1.82 122 1.86 137 1.93 132 1.96 220 2.00 178 2.02
  13  0.993  0.499  0.742- 108 1.82  66 1.83 226 1.93 221 1.97 138 2.02 179 2.04
  14  0.506  0.009  0.250- 114 1.82  92 1.83 133 1.95 139 1.98 195 2.00 231 2.05
  15  0.494  0.006  0.753- 115 1.75 105 1.87 140 1.97 134 2.02 180 2.03 232 2.06
  16  0.493  0.496  0.257-  69 1.82 106 1.85 229 1.96 222 2.01 135 2.02 181 2.04
  17  0.501  0.506  0.759-  70 1.82 116 1.87 182 1.95 230 1.97 196 1.97 136 2.08
  18  0.995  0.257  0.001- 117 1.82 110 1.87 146 1.96 141 1.96 212 2.02 183 2.03
  19  1.000  0.248  0.491-  74 1.78 213 1.91 202 1.93 184 1.93 223 1.94 142 2.01
  20  0.998  0.758  0.006- 118 1.81  71 1.85 203 1.95 185 1.97 148 2.04 214 2.06
  21  0.997  0.756  0.506- 119 1.83  72 1.83 204 1.94 186 1.96 215 2.02 147 2.02
  22  0.496  0.261  0.002- 120 1.77 109 1.90 150 1.91 143 1.98 187 2.00 216 2.14
  23  0.508  0.245  0.500-  93 1.81 144 1.88 112 1.90 149 1.95 224 1.98 199 2.01
  24  0.506  0.756  1.000-  94 1.81 121 1.86 152 1.93 145 1.98 217 1.99 200 2.01
  25  0.507  0.752  0.508-  73 1.78  95 1.84 218 1.96 225 1.96 201 2.01 151 2.07
  26  0.001  0.258  0.255- 122 1.79  74 1.87 209 1.94 188 1.96 141 1.99 219 2.03
  27  0.005  0.242  0.747- 113 1.80  96 1.84 142 1.96 146 1.97 210 2.01 226 2.05
  28  0.007  0.748  0.243-  71 1.82  97 1.83 220 1.95 227 1.98 147 2.04 211 2.05
  29  0.993  0.751  0.743- 111 1.83  72 1.84 228 1.93 221 1.97 189 2.01 148 2.03
  30  0.508  0.241  0.252-  98 1.81 114 1.83 143 1.94 149 1.95 229 2.02 205 2.02
  31  0.504  0.247  0.749-  99 1.93 115 1.98 150 2.01 144 2.03 206 2.03 230 2.05
  32  0.507  0.751  0.252- 100 1.79 151 1.92 145 1.94 231 1.94 222 1.94 207 2.00
  33  0.502  0.743  0.743- 116 1.81  73 1.84 190 1.94 208 1.97 232 2.00 152 2.04
  34  0.256  0.998  0.006-  75 1.82 101 1.90 246 1.91 233 1.99 171 1.99 157 2.05
  35  0.251  0.994  0.507-  76 1.83 128 1.83 172 1.95 191 1.99 234 2.02 156 2.05
  36  0.243  0.508  0.997- 123 1.81  89 1.84 159 1.93 153 1.97 192 2.01 245 2.04
  37  0.254  0.494  0.507-  77 1.85 102 1.88 127 1.88 173 2.03 235 2.04 158 2.05
  38  0.757  0.002  0.993- 103 1.79  81 1.85 236 1.96 249 1.96 154 2.05 174 2.09
  39  0.750  0.007  0.494- 124 1.83  80 1.84 193 1.93 175 1.99 155 1.99 250 2.03
  40  0.742  0.500  0.005-  90 1.80  78 1.87 237 1.95 247 1.96 161 2.02 194 2.05
  41  0.755  0.498  0.505-  79 1.84 104 1.85 248 1.95 238 1.98 176 2.01 160 2.03
  42  0.245  0.003  0.244-  91 1.84  75 1.86 239 1.93 252 1.96 156 2.01 195 2.06
  43  0.259  0.997  0.745- 105 1.80  76 1.86 253 1.93 240 1.98 157 2.04 177 2.04
  44  0.255  0.493  0.251- 106 1.83 129 1.84 158 1.93 153 1.97 241 2.03 178 2.04
  45  0.247  0.506  0.741-  77 1.79 125 1.83 179 1.95 196 1.97 251 2.03 159 2.06
  46  0.744  0.001  0.255-  92 1.85  80 1.85 256 1.94 242 1.96 154 2.00 197 2.01
  47  0.748  0.008  0.756- 126 1.80  81 1.84 180 1.95 198 1.97 257 2.05 155 2.06
  48  0.756  0.499  0.243-  78 1.81 107 1.85 243 1.95 254 1.96 181 2.02 160 2.04
  49  0.757  0.498  0.743- 108 1.83  79 1.84 255 1.93 244 1.98 182 2.02 161 2.04
  50  0.257  0.252  0.007-  82 1.83 109 1.86 245 1.91 233 2.00 183 2.01 168 2.03
  51  0.254  0.256  0.506- 127 1.80  83 1.85 199 1.95 184 2.01 167 2.04 234 2.05
  52  0.251  0.742  0.993- 123 1.81  86 1.83 200 1.94 185 1.96 162 2.03 246 2.04
  53  0.252  0.755  0.493-  85 1.83 128 1.85 201 1.95 186 1.97 235 2.01 163 2.04
  54  0.758  0.250  0.006- 110 1.80  84 1.85 236 1.94 247 1.94 170 2.01 187 2.06
  55  0.742  0.243  0.499- 124 1.82  93 1.83 169 1.94 164 1.94 248 2.02 202 2.04
  56  0.742  0.751  0.994-  88 1.82  94 1.83 237 1.94 249 1.95 203 2.01 165 2.04
  57  0.742  0.752  0.494-  95 1.81  87 1.86 250 1.94 238 1.96 166 2.01 204 2.03
  58  0.252  0.258  0.245- 129 1.81  82 1.85 205 1.95 188 1.98 167 2.01 239 2.04
  59  0.243  0.251  0.743-  96 1.83  83 1.84 251 1.94 240 1.98 206 2.03 168 2.05
  60  0.244  0.748  0.255-  97 1.83  85 1.84 241 1.94 252 1.98 162 2.03 207 2.05
  61  0.248  0.742  0.756- 125 1.81  86 1.84 189 1.93 208 1.97 253 2.03 163 2.03
  62  0.743  0.251  0.242-  84 1.79  98 1.83 254 1.93 242 1.95 209 2.04 169 2.05
  63  0.743  0.243  0.750-  99 1.77 126 1.85 170 1.96 164 2.01 255 2.04 210 2.06
  64  0.746  0.750  0.257-  87 1.81 100 1.90 243 1.94 256 1.95 211 1.98 165 2.02
  65  0.757  0.751  0.756- 111 1.82  88 1.85 257 1.92 244 1.97 190 2.02 166 2.05
  66  0.008  0.502  0.624-   5 1.82  13 1.83
  67  0.002  0.005  0.375-   3 1.83  10 1.85
  68  0.005  0.002  0.873-  11 1.80   2 1.88
  69  0.499  0.490  0.375-  16 1.82   9 1.87
  70  0.494  0.495  0.876-  17 1.82   8 1.86
  71  0.999  0.746  0.125-  28 1.82  20 1.85
  72  0.001  0.746  0.624-  21 1.83  29 1.84
  73  0.501  0.747  0.624-  25 1.78  33 1.84
  74  0.002  0.247  0.376-  19 1.78  26 1.87
  75  0.261  0.004  0.124-  34 1.82  42 1.86
  76  0.261  0.004  0.625-  35 1.83  43 1.86
  77  0.239  0.496  0.626-  45 1.79  37 1.85
  78  0.750  0.491  0.126-  48 1.81  40 1.87
  79  0.746  0.494  0.624-  41 1.84  49 1.84
  80  0.745  1.000  0.375-  39 1.84  46 1.85
  81  0.741  0.999  0.874-  47 1.84  38 1.85
  82  0.254  0.249  0.125-  50 1.83  58 1.85
  83  0.258  0.248  0.625-  59 1.84  51 1.85
  84  0.751  0.259  0.126-  62 1.79  54 1.85
  85  0.254  0.747  0.374-  53 1.83  60 1.84
  86  0.251  0.754  0.875-  52 1.83  61 1.84
  87  0.752  0.751  0.374-  64 1.81  57 1.86
  88  0.748  0.752  0.876-  56 1.82  65 1.85
  89  0.124  0.497  0.994-   4 1.84  36 1.84
  90  0.625  0.501  0.999-  40 1.80   8 1.88
  91  0.126  0.004  0.246-  42 1.84  10 1.84
  92  0.625  0.003  0.244-  14 1.83  46 1.85
  93  0.625  0.258  0.503-  23 1.81  55 1.83
  94  0.624  0.750  0.003-  24 1.81  56 1.83
  95  0.625  0.763  0.496-  57 1.81  25 1.84
  96  0.124  0.251  0.744-  59 1.83  27 1.84
  97  0.125  0.750  0.251-  60 1.83  28 1.83
  98  0.625  0.243  0.252-  30 1.81  62 1.83
  99  0.629  0.253  0.740-  63 1.77  31 1.93
 100  0.623  0.752  0.251-  32 1.79  64 1.90
 101  0.376  0.012  0.982-   6 1.88  34 1.90   1 1.97
 102  0.375  0.506  0.504-   9 1.81  37 1.88
 103  0.873  0.008  0.996-  38 1.79   2 1.89
 104  0.875  0.504  0.500-   5 1.84  41 1.85
 105  0.374  0.995  0.765-  43 1.80  15 1.87
 106  0.374  0.495  0.248-  44 1.83  16 1.85
 107  0.876  0.496  0.252-  12 1.82  48 1.85
 108  0.875  0.508  0.746-  13 1.82  49 1.83
 109  0.375  0.237  0.991-  50 1.86  22 1.90   1 1.97
 110  0.875  0.243  1.000-  54 1.80  18 1.87
 111  0.875  0.745  0.749-  65 1.82  29 1.83
 112  0.512  0.122  0.488-   7 1.77  23 1.90
 113  0.996  0.126  0.744-  27 1.80  11 1.84
 114  0.494  0.125  0.267-  14 1.82  30 1.83
 115  0.498  0.119  0.760-  15 1.75  31 1.98
 116  0.501  0.626  0.755-  33 1.81  17 1.87
 117  0.996  0.375  0.004-  18 1.82   4 1.86
 118  0.996  0.875  0.001-  20 1.81   2 1.86
 119  0.994  0.875  0.498-   3 1.81  21 1.83
 120  0.494  0.375  0.015-  22 1.77   8 1.90
 121  0.494  0.875  0.011-   6 1.81  24 1.86
 122  0.009  0.374  0.247-  26 1.79  12 1.86
 123  0.248  0.625  0.001-  52 1.81  36 1.81
 124  0.740  0.125  0.505-  55 1.82  39 1.83
 125  0.246  0.624  0.751-  61 1.81  45 1.83
 126  0.753  0.124  0.744-  47 1.80  63 1.85
 127  0.254  0.373  0.494-  51 1.80  37 1.88
 128  0.255  0.875  0.500-  35 1.83  53 1.85
 129  0.241  0.374  0.255-  58 1.81  44 1.84
 130  0.996  0.003  0.126-  10 2.00   2 2.05
 131  0.998  0.998  0.623-   3 2.00  11 2.06
 132  0.001  0.508  0.125-  12 1.96   4 1.98
 133  0.488  0.015  0.125-  14 1.95   6 1.97
 134  0.490  0.003  0.622-   7 1.91  15 2.02
 135  0.502  0.511  0.128-  16 2.02   8 2.04
 136  0.508  0.507  0.624-   9 2.00  17 2.08
 137  0.003  0.496  0.376-  12 1.93   5 2.03
 138  0.995  0.498  0.873-   4 1.93  13 2.02
 139  0.510  0.984  0.376-   7 1.94  14 1.98
 140  0.520  0.987  0.877-   6 1.94  15 1.97
 141  0.002  0.245  0.127-  18 1.96  26 1.99
 142  0.994  0.257  0.621-  27 1.96  19 2.01
 143  0.497  0.232  0.126-  30 1.94  22 1.98
 144  0.487  0.238  0.620-  23 1.88  31 2.03
 145  0.496  0.741  0.127-  32 1.94  24 1.98
 146  0.002  0.250  0.874-  18 1.96  27 1.97
 147  0.995  0.750  0.375-  21 2.02  28 2.04
 148  0.001  0.751  0.874-  29 2.03  20 2.04
 149  0.500  0.267  0.375-  23 1.95  30 1.95
 150  0.508  0.262  0.879-  22 1.91  31 2.01
 151  0.493  0.759  0.375-  32 1.92  25 2.07
 152  0.497  0.757  0.875-  24 1.93  33 2.04
 153  0.244  0.495  0.125-  44 1.97  36 1.97
 154  0.753  0.003  0.126-  46 2.00  38 2.05
 155  0.753  0.994  0.623-  39 1.99  47 2.06
 156  0.247  0.000  0.375-  42 2.01  35 2.05
 157  0.237  0.995  0.875-  43 2.04  34 2.05
 158  0.247  0.510  0.375-  44 1.93  37 2.05
 159  0.259  0.496  0.874-  36 1.93  45 2.06
 160  0.747  0.506  0.375-  41 2.03  48 2.04
 161  0.753  0.506  0.874-  40 2.02  49 2.04
 162  0.252  0.754  0.124-  60 2.03  52 2.03
 163  0.249  0.749  0.625-  61 2.03  53 2.04
 164  0.761  0.261  0.622-  55 1.94  63 2.01
 165  0.752  0.749  0.126-  64 2.02  56 2.04
 166  0.748  0.750  0.624-  57 2.01  65 2.05
 167  0.246  0.244  0.374-  58 2.01  51 2.04
 168  0.245  0.251  0.876-  50 2.03  59 2.05
 169  0.754  0.243  0.374-  55 1.94  62 2.05
 170  0.746  0.244  0.877-  63 1.96  54 2.01
 171  0.127  0.998  0.007-  34 1.99   2 2.05
 172  0.125  0.001  0.505-   3 1.95  35 1.95
 173  0.123  0.497  0.492-   5 2.01  37 2.03
 174  0.623  0.999  0.013-   6 1.99  38 2.09
 175  0.624  0.983  0.509-   7 1.94  39 1.99
 176  0.625  0.492  0.497-  41 2.01   9 2.06
 177  0.127  0.001  0.741-  11 1.94  43 2.04
 178  0.124  0.509  0.249-  12 2.02  44 2.04
 179  0.123  0.493  0.763-  45 1.95  13 2.04
 180  0.624  0.995  0.735-  47 1.95  15 2.03
 181  0.625  0.501  0.250-  48 2.02  16 2.04
 182  0.627  0.495  0.756-  17 1.95  49 2.02
 183  0.126  0.254  0.001-  50 2.01  18 2.03
 184  0.124  0.249  0.504-  19 1.93  51 2.01
 185  0.125  0.754  0.001-  52 1.96  20 1.97
 186  0.124  0.752  0.496-  21 1.96  53 1.97
 187  0.625  0.253  0.005-  22 2.00  54 2.06
 188  0.125  0.235  0.249-  26 1.96  58 1.98
 189  0.123  0.753  0.751-  61 1.93  29 2.01
 190  0.626  0.754  0.750-  33 1.94  65 2.02
 191  0.378  0.009  0.487-   7 1.91  35 1.99
 192  0.373  0.503  0.008-  36 2.01   8 2.02
 193  0.875  0.010  0.501-  39 1.93   3 1.96
 194  0.874  0.503  1.000-   4 2.02  40 2.05
 195  0.377  0.994  0.260-  14 2.00  42 2.06
 196  0.374  0.501  0.741-  45 1.97  17 1.97
 197  0.874  0.998  0.251-  46 2.01  10 2.05
 198  0.875  0.992  0.749-  47 1.97  11 1.98
 199  0.379  0.241  0.489-  51 1.95  23 2.01
 200  0.376  0.748  0.002-  52 1.94  24 2.01
 201  0.377  0.741  0.501-  53 1.95  25 2.01
 202  0.875  0.246  0.497-  19 1.93  55 2.04
 203  0.872  0.749  0.999-  20 1.95  56 2.01
 204  0.872  0.740  0.503-  21 1.94  57 2.03
 205  0.378  0.259  0.254-  58 1.95  30 2.02
 206  0.373  0.248  0.762-  31 2.03  59 2.03
 207  0.377  0.750  0.247-  32 2.00  60 2.05
 208  0.374  0.754  0.748-  61 1.97  33 1.97
 209  0.875  0.257  0.251-  26 1.94  62 2.04
 210  0.876  0.254  0.753-  27 2.01  63 2.06
 211  0.874  0.750  0.249-  64 1.98  28 2.05
 212  0.009  0.127  0.001-  18 2.02   2 2.03
 213  0.002  0.125  0.508-  19 1.91   3 2.08
 214  0.999  0.625  0.995-   4 2.02  20 2.06
 215  0.005  0.626  0.492-   5 1.93  21 2.02
 216  0.503  0.124  0.983-   1 2.04   6 2.06  22 2.14
 217  0.496  0.628  0.997-  24 1.99   8 2.03
 218  0.510  0.626  0.491-  25 1.96   9 1.99
 219  0.991  0.127  0.247-  10 1.94  26 2.03
 220  0.997  0.623  0.256-  28 1.95  12 2.00
 221  0.010  0.625  0.755-  13 1.97  29 1.97
 222  0.499  0.626  0.259-  32 1.94  16 2.01
 223  0.999  0.373  0.498-  19 1.94   5 2.00
 224  0.492  0.372  0.511-   9 1.97  23 1.98
 225  0.487  0.878  0.503-  25 1.96   7 2.02
 226  0.996  0.375  0.751-  13 1.93  27 2.05
 227  0.997  0.876  0.251-  10 1.97  28 1.98
 228  0.001  0.875  0.747-  29 1.93  11 2.04
 229  0.505  0.371  0.236-  16 1.96  30 2.02
 230  0.495  0.380  0.739-  17 1.97  31 2.05
 231  0.498  0.876  0.240-  32 1.94  14 2.05
 232  0.502  0.873  0.747-  33 2.00  15 2.06
 233  0.244  0.125  0.989-  34 1.99  50 2.00
 234  0.247  0.124  0.496-  35 2.02  51 2.05
 235  0.244  0.626  0.503-  53 2.01  37 2.04
 236  0.738  0.126  0.004-  54 1.94  38 1.96
 237  0.753  0.626  0.004-  56 1.94  40 1.95
 238  0.741  0.626  0.502-  57 1.96  41 1.98
 239  0.262  0.126  0.254-  42 1.93  58 2.04
 240  0.251  0.124  0.760-  59 1.98  43 1.98
 241  0.253  0.624  0.241-  60 1.94  44 2.03
 242  0.761  0.126  0.248-  62 1.95  46 1.96
 243  0.749  0.625  0.246-  64 1.94  48 1.95
 244  0.740  0.625  0.747-  65 1.97  49 1.98
 245  0.257  0.376  0.999-  50 1.91  36 2.04
 246  0.256  0.874  0.003-  34 1.91  52 2.04
 247  0.753  0.375  0.987-  54 1.94  40 1.96
 248  0.757  0.372  0.489-  41 1.95  55 2.02
 249  0.751  0.876  0.007-  56 1.95  38 1.96
 250  0.763  0.876  0.502-  57 1.94  39 2.03
 251  0.254  0.376  0.755-  59 1.94  45 2.03
 252  0.253  0.876  0.249-  42 1.96  60 1.98
 253  0.245  0.873  0.745-  43 1.93  61 2.03
 254  0.745  0.374  0.265-  62 1.93  48 1.96
 255  0.756  0.375  0.759-  49 1.93  63 2.04
 256  0.752  0.875  0.244-  46 1.94  64 1.95
 257  0.750  0.875  0.745-  65 1.92  47 2.05
 

IMPORTANT INFORMATION: All symmetrisations will be switched off!
NOSYMM: (Re-)initialisation of all symmetry stuff for point group C_1.

 
 
 KPOINTS: Title                                   

Automatic generation of k-mesh.
Space group operators:
 irot       det(A)        alpha          n_x          n_y          n_z        tau_x        tau_y        tau_z
    1     1.000000     0.000001     1.000000     0.000000     0.000000     0.000000     0.000000     0.000000
 
 Subroutine IBZKPT returns following result:
 ===========================================
 
 Found      4 irreducible k-points:
 
 Following reciprocal coordinates:
            Coordinates               Weight
  0.250000  0.250000  0.250000      2.000000
 -0.250000  0.250000  0.250000      2.000000
  0.250000 -0.250000  0.250000      2.000000
 -0.250000 -0.250000  0.250000      2.000000
 
 Following cartesian coordinates:
            Coordinates               Weight
  0.016206  0.016206  0.016206      2.000000
 -0.016206  0.016206  0.016206      2.000000
  0.016206 -0.016206  0.016206      2.000000
 -0.016206 -0.016206  0.016206      2.000000
 


--------------------------------------------------------------------------------------------------------




 Dimension of arrays:
   k-points           NKPTS =      4   k-points in BZ     NKDIM =      4   number of bands    NBANDS=   1164
   number of dos      NEDOS =   3001   number of ions     NIONS =    257
   non local maximal  LDIM  =      6   non local SUM 2l+1 LMDIM =     18
   total plane-waves  NPLWV = ******
   max r-space proj   IRMAX =   7595   max aug-charges    IRDMAX= 146383
   dimension x,y,z NGX =   120 NGY =  120 NGZ =  120
   dimension x,y,z NGXF=   240 NGYF=  240 NGZF=  240
   support grid    NGXF=   480 NGYF=  480 NGZF=  480
   ions per type =               1  64  64 128
   NGX,Y,Z   is equivalent  to a cutoff of  12.93, 12.93, 12.93 a.u.
   NGXF,Y,Z  is equivalent  to a cutoff of  25.86, 25.86, 25.86 a.u.

 SYSTEM =  LTO                                     
 POSCAR =  config 20                               

 Startparameter for this run:
   NWRITE =      2    write-flag & timer
   PREC   = accura    normal or accurate (medium, high low for compatibility)
   ISTART =      1    job   : 0-new  1-cont  2-samecut
   ICHARG =      0    charge: 1-file 2-atom 10-const
   ISPIN  =      2    spin polarized calculation?
   LNONCOLLINEAR =      F non collinear calculations
   LSORBIT =      F    spin-orbit coupling
   INIWAV =      1    electr: 0-lowe 1-rand  2-diag
   LASPH  =      T    aspherical Exc in radial PAW
   METAGGA=      F    non-selfconsistent MetaGGA calc.

 Electronic Relaxation 1
   ENCUT  =  500.0 eV  36.75 Ry    6.06 a.u.  28.13 28.13 28.13*2*pi/ulx,y,z
   ENINI  =  500.0     initial cutoff
   ENAUG  =  628.9 eV  augmentation charge cutoff
   NELM   =     60;   NELMIN=  2; NELMDL=  0     # of ELM steps 
   EDIFF  = 0.1E-05   stopping-criterion for ELM
   LREAL  =      T    real-space projection
   NLSPLINE    = F    spline interpolate recip. space projectors
   LCOMPAT=      F    compatible to vasp.4.4
   GGA_COMPAT  = T    GGA compatible to vasp.4.4-vasp.4.6
   LMAXPAW     = -100 max onsite density
   LMAXMIX     =    4 max onsite mixed and CHGCAR
   VOSKOWN=      0    Vosko Wilk Nusair interpolation
   ROPT   =   -0.00010  -0.00010  -0.00010  -0.00010
 Ionic relaxation
   EDIFFG = -.5E-01   stopping-criterion for IOM
   NSW    =    100    number of steps for IOM
   NBLOCK =      1;   KBLOCK =    100    inner block; outer block 
   IBRION =      1    ionic relax: 0-MD 1-quasi-New 2-CG
   NFREE  =      0    steps in history (QN), initial steepest desc. (CG)
   ISIF   =      2    stress and relaxation
   IWAVPR =     11    prediction:  0-non 1-charg 2-wave 3-comb
   ISYM   =      0    0-nonsym 1-usesym 2-fastsym
   LCORR  =      T    Harris-Foulkes like correction to forces

   POTIM  = 0.5000    time-step for ionic-motion
   TEIN   =    0.0    initial temperature
   TEBEG  =    0.0;   TEEND  =   0.0 temperature during run
   SMASS  =  -3.00    Nose mass-parameter (am)
   estimated Nose-frequenzy (Omega)   =  0.10E-29 period in steps =****** mass=  -0.544E-26a.u.
   SCALEE = 1.0000    scale energy and forces
   NPACO  =    256;   APACO  = 16.0  distance and # of slots for P.C.
   PSTRESS=    0.0 pullay stress

  Mass of Ions in am
   POMASS =   7.01 47.88 16.00 19.00
  Ionic Valenz
   ZVAL   =   3.00 10.00  6.00  7.00
  Atomic Wigner-Seitz radii
   RWIGS  =  -1.00 -1.00 -1.00 -1.00
  virtual crystal weights 
   VCA    =   1.00  1.00  1.00  1.00
   NELECT =    1923.0000    total number of electrons
   NUPDOWN=       1.0000    fix difference up-down

 DOS related values:
   EMIN   =  10.00;   EMAX   =-10.00  energy-range for DOS
   EFERMI =   0.00
   ISMEAR =     0;   SIGMA  =   0.01  broadening in eV -4-tet -1-fermi 0-gaus

 Electronic relaxation 2 (details)
   IALGO  =     38    algorithm
   LDIAG  =      T    sub-space diagonalisation (order eigenvalues)
   LSUBROT=      F    optimize rotation matrix (better conditioning)
   TURBO    =      0    0=normal 1=particle mesh
   IRESTART =      0    0=no restart 2=restart with 2 vectors
   NREBOOT  =      0    no. of reboots
   NMIN     =      0    reboot dimension
   EREF     =   0.00    reference energy to select bands
   IMIX   =      4    mixing-type and parameters
     AMIX     =   0.40;   BMIX     =  1.00
     AMIX_MAG =   1.60;   BMIX_MAG =  1.00
     AMIN     =   0.10
     WC   =   100.;   INIMIX=   1;  MIXPRE=   1;  MAXMIX= -45

 Intra band minimization:
   WEIMIN = 0.0010     energy-eigenvalue tresh-hold
   EBREAK =  0.21E-09  absolut break condition
   DEPER  =   0.30     relativ break condition  

   TIME   =   0.40     timestep for ELM

  volume/ion in A,a.u.               =      14.28        96.39
  Fermi-wavevector in a.u.,A,eV,Ry     =   1.319690  2.493853 23.695660  1.741582
  Thomas-Fermi vector in A             =   2.449570
 
 Write flags
   LWAVE        =      T    write WAVECAR
   LDOWNSAMPLE  =      F    k-point downsampling of WAVECAR
   LCHARG       =      T    write CHGCAR
   LVTOT        =      F    write LOCPOT, total local potential
   LVHAR        =      F    write LOCPOT, Hartree potential only
   LELF         =      F    write electronic localiz. function (ELF)
   LORBIT       =     11    0 simple, 1 ext, 2 COOP (PROOUT), +10 PAW based schemes


 Dipole corrections
   LMONO  =      F    monopole corrections only (constant potential shift)
   LDIPOL =      F    correct potential (dipole corrections)
   IDIPOL =      0    1-x, 2-y, 3-z, 4-all directions 
   EPSILON=  1.0000000 bulk dielectric constant

 LDA+U is selected, type is set to LDAUTYPE =  2
   angular momentum for each species LDAUL =    -1    2   -1   -1
   U (eV)           for each species LDAUU =   0.0  4.2  0.0  0.0
   J (eV)           for each species LDAUJ =   0.0  0.0  0.0  0.0
 Exchange correlation treatment:
   GGA     =    PS    GGA type
   LEXCH   =    14    internal setting for exchange type
   VOSKOWN=      0    Vosko Wilk Nusair interpolation
   LHFCALC =     F    Hartree Fock is set to
   LHFONE  =     F    Hartree Fock one center treatment
   AEXX    =    0.0000 exact exchange contribution

 Linear response parameters
   LEPSILON=     F    determine dielectric tensor
   LRPA    =     F    only Hartree local field effects (RPA)
   LNABLA  =     F    use nabla operator in PAW spheres
   LVEL    =     F    velocity operator in full k-point grid
   LINTERFAST=   F  fast interpolation
   KINTER  =     0    interpolate to denser k-point grid
   CSHIFT  =0.1000    complex shift for real part using Kramers Kronig
   OMEGAMAX=  -1.0    maximum frequency
   DEG_THRESHOLD= 0.2000000E-02 threshold for treating states as degnerate
   RTIME   =   -0.100 relaxation time in fs
  (WPLASMAI=    0.000 imaginary part of plasma frequency in eV, 0.658/RTIME)
   DFIELD  = 0.0000000 0.0000000 0.0000000 field for delta impulse in time
 
 Orbital magnetization related:
   ORBITALMAG=     F  switch on orbital magnetization
   LCHIMAG   =     F  perturbation theory with respect to B field
   DQ        =  0.001000  dq finite difference perturbation B field
   LLRAUG    =     F  two centre corrections for induced B field



--------------------------------------------------------------------------------------------------------


 quasi-Newton-method for relaxation of ions
 charge density and potential will be updated during run
 spin polarized calculation
 Variant of blocked Davidson
 Davidson routine will perform the subspace rotation
 perform sub-space diagonalisation
    after iterative eigenvector-optimisation
 modified Broyden-mixing scheme, WC =      100.0
 initial mixing is a Kerker type mixing with AMIX =  0.4000 and BMIX =      1.0000
 Hartree-type preconditioning will be used
 using additional bands          202
 real space projection scheme for non local part
 use partial core corrections
 calculate Harris-corrections to forces 
   (improved forces if not selfconsistent)
 use gradient corrections 
 use of overlap-Matrix (Vanderbilt PP)
 Gauss-broadening in eV      SIGMA  =   0.01


--------------------------------------------------------------------------------------------------------


  energy-cutoff  :      500.00
  volume of cell :     3671.03
      direct lattice vectors                 reciprocal lattice vectors
    15.426331000  0.000000000  0.000000000     0.064824228  0.000000000  0.000000000
     0.000000000 15.426331000  0.000000000     0.000000000  0.064824228  0.000000000
     0.000000000  0.000000000 15.426331000     0.000000000  0.000000000  0.064824228

  length of vectors
    15.426331000 15.426331000 15.426331000     0.064824228  0.064824228  0.064824228


 
 old parameters found on file WAVECAR:
  energy-cutoff  :      500.00
  volume of cell :     3671.03
      direct lattice vectors                 reciprocal lattice vectors
    15.426331000  0.000000000  0.000000000     0.064824228  0.000000000  0.000000000
     0.000000000 15.426331000  0.000000000     0.000000000  0.064824228  0.000000000
     0.000000000  0.000000000 15.426331000     0.000000000  0.000000000  0.064824228

  length of vectors

 
 k-points in units of 2pi/SCALE and weight: Title                                   
   0.01620606  0.01620606  0.01620606       0.250
  -0.01620606  0.01620606  0.01620606       0.250
   0.01620606 -0.01620606  0.01620606       0.250
  -0.01620606 -0.01620606  0.01620606       0.250
 
 k-points in reciprocal lattice and weights: Title                                   
   0.25000000  0.25000000  0.25000000       0.250
  -0.25000000  0.25000000  0.25000000       0.250
   0.25000000 -0.25000000  0.25000000       0.250
  -0.25000000 -0.25000000  0.25000000       0.250
 
 position of ions in fractional coordinates (direct lattice) 
   0.38318362  0.12682955  0.92582032
   0.99474258  0.99604263  0.99400551
   0.00008625  0.99146150  0.49335755
   0.00527333  0.49488217  0.99751343
   0.99408929  0.50267412  0.50711984
   0.49487691  0.99169192  0.99969541
   0.50121063  0.00813138  0.49855175
   0.50328655  0.49652173  0.99627374
   0.49193873  0.49877495  0.49537706
   0.00709342  0.00292760  0.25550251
   0.00233816  0.00722695  0.75655802
   0.99395414  0.49352287  0.25134412
   0.99271511  0.49902951  0.74184396
   0.50590896  0.00864282  0.25005958
   0.49409544  0.00631622  0.75287865
   0.49325901  0.49618120  0.25737397
   0.50087991  0.50553295  0.75873698
   0.99490673  0.25688919  0.00078827
   0.99954409  0.24774573  0.49117806
   0.99752977  0.75833593  0.00600586
   0.99727988  0.75621340  0.50573224
   0.49552861  0.26125902  0.00151214
   0.50817323  0.24477736  0.49964234
   0.50627537  0.75593895  0.99959411
   0.50672797  0.75234024  0.50839810
   0.00054101  0.25818388  0.25513022
   0.00510643  0.24211340  0.74675693
   0.00682261  0.74837252  0.24288214
   0.99280517  0.75054932  0.74305523
   0.50776925  0.24139291  0.25150667
   0.50434042  0.24736620  0.74941173
   0.50666511  0.75147297  0.25165805
   0.50151903  0.74316865  0.74325941
   0.25605285  0.99797086  0.00646917
   0.25149137  0.99382486  0.50722700
   0.24286233  0.50782517  0.99739752
   0.25437623  0.49428947  0.50658906
   0.75704256  0.00158883  0.99305936
   0.74961793  0.00696155  0.49427884
   0.74160696  0.49986476  0.00503029
   0.75543873  0.49794805  0.50546856
   0.24522985  0.00251265  0.24400131
   0.25937890  0.99683685  0.74490037
   0.25544945  0.49253608  0.25147670
   0.24682504  0.50603907  0.74120309
   0.74412920  0.00063316  0.25517359
   0.74822726  0.00752718  0.75552418
   0.75594002  0.49863782  0.24274420
   0.75721826  0.49844366  0.74267878
   0.25665736  0.25249258  0.00657528
   0.25394767  0.25641722  0.50554219
   0.25122142  0.74243442  0.99297627
   0.25186058  0.75538880  0.49261137
   0.75807184  0.25035977  0.00625405
   0.74232589  0.24280440  0.49909750
   0.74188828  0.75063218  0.99375962
   0.74150351  0.75241323  0.49385186
   0.25173492  0.25787872  0.24478156
   0.24289364  0.25129370  0.74300101
   0.24399290  0.74813471  0.25543142
   0.24773575  0.74163461  0.75621656
   0.74319450  0.25079771  0.24165604
   0.74276165  0.24308684  0.74997885
   0.74568603  0.75000454  0.25656386
   0.75725495  0.75125549  0.75639138
   0.00824720  0.50196631  0.62449071
   0.00182934  0.00535651  0.37542706
   0.00536969  0.00213483  0.87303758
   0.49938305  0.48974519  0.37497117
   0.49389444  0.49474251  0.87593533
   0.99883232  0.74607834  0.12536818
   0.00095568  0.74571170  0.62391405
   0.50147110  0.74720336  0.62379262
   0.00196964  0.24670129  0.37610488
   0.26113692  0.00446262  0.12431393
   0.26131349  0.00409174  0.62468614
   0.23907529  0.49593396  0.62570526
   0.75046446  0.49105485  0.12553702
   0.74580483  0.49359488  0.62416166
   0.74512790  0.99969881  0.37538744
   0.74126517  0.99926750  0.87426815
   0.25376091  0.24853410  0.12517852
   0.25790680  0.24811810  0.62491789
   0.75061427  0.25932248  0.12590058
   0.25430451  0.74711276  0.37400435
   0.25136838  0.75353315  0.87499779
   0.75214969  0.75095115  0.37378917
   0.74812460  0.75190590  0.87569454
   0.12422914  0.49743414  0.99442153
   0.62512325  0.50134905  0.99853184
   0.12625888  0.00425240  0.24590052
   0.62455241  0.00321067  0.24397302
   0.62474603  0.25836732  0.50286373
   0.62356568  0.75029929  0.00297595
   0.62455011  0.76325682  0.49580439
   0.12403657  0.25136573  0.74417012
   0.12541972  0.75025899  0.25119390
   0.62541066  0.24305189  0.25216221
   0.62878120  0.25282741  0.73973575
   0.62274863  0.75211505  0.25077828
   0.37596239  0.01236681  0.98224884
   0.37533275  0.50608992  0.50387340
   0.87308475  0.00775094  0.99590089
   0.87531770  0.50398961  0.49965730
   0.37433906  0.99473838  0.76529602
   0.37377256  0.49465025  0.24844404
   0.87576620  0.49559749  0.25197490
   0.87530752  0.50786508  0.74618173
   0.37543756  0.23662047  0.99115843
   0.87459932  0.24307079  0.99956035
   0.87476221  0.74500217  0.74948504
   0.51200666  0.12199544  0.48805758
   0.99614997  0.12560012  0.74402232
   0.49385473  0.12477297  0.26706673
   0.49797247  0.11938370  0.76035068
   0.50149099  0.62648173  0.75474123
   0.99585785  0.37465886  0.00397025
   0.99649658  0.87549473  0.00130933
   0.99396290  0.87460613  0.49792008
   0.49366589  0.37540131  0.01468304
   0.49388804  0.87510268  0.01126311
   0.00872326  0.37380286  0.24710240
   0.24777034  0.62527728  0.00068602
   0.74042108  0.12468515  0.50457941
   0.24647456  0.62441229  0.75123055
   0.75335169  0.12384193  0.74407336
   0.25381650  0.37282772  0.49426386
   0.25461608  0.87530012  0.50003363
   0.24064342  0.37413618  0.25476430
   0.99636589  0.00287279  0.12640119
   0.99799445  0.99769372  0.62316151
   0.00088641  0.50803620  0.12501283
   0.48761155  0.01455143  0.12525454
   0.48982212  0.00294180  0.62191728
   0.50247669  0.51145887  0.12791966
   0.50796830  0.50715826  0.62380580
   0.00321695  0.49622367  0.37589321
   0.99469490  0.49794980  0.87299873
   0.50996231  0.98365161  0.37570469
   0.52025812  0.98664866  0.87652888
   0.00169138  0.24526393  0.12700689
   0.99380256  0.25712569  0.62091822
   0.49668289  0.23227220  0.12644024
   0.48667039  0.23764277  0.61962464
   0.49601668  0.74111452  0.12688757
   0.00237697  0.25024557  0.87442381
   0.99452299  0.74985325  0.37470767
   0.00117517  0.75068225  0.87406530
   0.50021083  0.26711740  0.37529151
   0.50842438  0.26184527  0.87867214
   0.49259094  0.75919196  0.37498452
   0.49748493  0.75734213  0.87482536
   0.24417493  0.49491437  0.12452668
   0.75323086  0.00296713  0.12608975
   0.75293014  0.99430499  0.62264919
   0.24727964  0.00029746  0.37458658
   0.23747675  0.99465622  0.87497257
   0.24749242  0.50989221  0.37488947
   0.25907739  0.49629278  0.87385205
   0.74683652  0.50644383  0.37457065
   0.75265237  0.50645980  0.87448450
   0.25182380  0.75411011  0.12434571
   0.24890062  0.74935065  0.62455100
   0.76102156  0.26080359  0.62247984
   0.75190358  0.74918666  0.12560476
   0.74774578  0.74966802  0.62408908
   0.24615554  0.24374846  0.37395851
   0.24541843  0.25094770  0.87565529
   0.75436657  0.24342541  0.37410412
   0.74554197  0.24438322  0.87693462
   0.12727472  0.99759958  0.00733683
   0.12529959  0.00094669  0.50479895
   0.12338545  0.49705305  0.49198399
   0.62308649  0.99873345  0.01284383
   0.62387435  0.98254129  0.50855279
   0.62541960  0.49185591  0.49705502
   0.12695382  0.00068316  0.74107905
   0.12416691  0.50870510  0.24949162
   0.12312149  0.49294509  0.76292704
   0.62414383  0.99467486  0.73548993
   0.62517475  0.50121912  0.25030484
   0.62675082  0.49465414  0.75611673
   0.12619034  0.25405926  0.00097334
   0.12400029  0.24869939  0.50448845
   0.12518454  0.75358667  0.00051225
   0.12408795  0.75231654  0.49593886
   0.62461156  0.25322172  0.00482631
   0.12524386  0.23547090  0.24889419
   0.12303568  0.75323513  0.75069762
   0.62640701  0.75391296  0.75034764
   0.37772289  0.00863363  0.48673303
   0.37294400  0.50341099  0.00810777
   0.87478440  0.00967594  0.50061893
   0.87448285  0.50267048  0.99974678
   0.37737244  0.99436111  0.26022864
   0.37413991  0.50107092  0.74141442
   0.87408883  0.99754915  0.25107942
   0.87489215  0.99198126  0.74888356
   0.37854377  0.24054829  0.48875336
   0.37633149  0.74802545  0.00188653
   0.37708499  0.74130625  0.50139285
   0.87478103  0.24570313  0.49740943
   0.87191742  0.74876973  0.99909784
   0.87236621  0.74028657  0.50252783
   0.37782555  0.25865776  0.25449694
   0.37331259  0.24803018  0.76171771
   0.37685710  0.75032487  0.24683275
   0.37442268  0.75407850  0.74807563
   0.87466343  0.25665773  0.25137635
   0.87583701  0.25446505  0.75302555
   0.87375186  0.74973159  0.24861413
   0.00900282  0.12697750  0.00121411
   0.00174830  0.12515344  0.50829490
   0.99913038  0.62537159  0.99471953
   0.00508409  0.62628445  0.49222151
   0.50266667  0.12415417  0.98277410
   0.49568136  0.62766188  0.99690883
   0.50950479  0.62649346  0.49056112
   0.99094100  0.12745609  0.24667513
   0.99697770  0.62329552  0.25639623
   0.01027686  0.62450668  0.75548595
   0.49883294  0.62606627  0.25939664
   0.99865216  0.37349968  0.49824209
   0.49165062  0.37183088  0.51108391
   0.48661387  0.87778767  0.50304813
   0.99620948  0.37451420  0.75051223
   0.99725086  0.87600779  0.25078167
   0.00131582  0.87539295  0.74718895
   0.50526197  0.37134971  0.23621820
   0.49510862  0.37973292  0.73859441
   0.49788817  0.87628829  0.23983081
   0.50185340  0.87296292  0.74662881
   0.24442422  0.12493738  0.98853105
   0.24745439  0.12414641  0.49566007
   0.24363957  0.62608733  0.50335414
   0.73768972  0.12638069  0.00431611
   0.75339572  0.62577560  0.00441307
   0.74098792  0.62551570  0.50193247
   0.26158656  0.12631882  0.25360315
   0.25142900  0.12422054  0.75964732
   0.25302909  0.62362973  0.24128297
   0.76094809  0.12603544  0.24761412
   0.74939137  0.62496076  0.24587993
   0.74015884  0.62532848  0.74669837
   0.25745848  0.37622376  0.99885274
   0.25595726  0.87417490  0.00318434
   0.75277878  0.37463811  0.98727225
   0.75734510  0.37240926  0.48925972
   0.75105225  0.87569183  0.00745967
   0.76347542  0.87622814  0.50157090
   0.25397155  0.37566268  0.75520431
   0.25318886  0.87581566  0.24918295
   0.24481555  0.87264082  0.74454600
   0.74529591  0.37408779  0.26462515
   0.75606624  0.37453687  0.75886464
   0.75219795  0.87536425  0.24404341
   0.75041347  0.87509144  0.74533771
 
 position of ions in cartesian coordinates  (Angst):
   5.91111733  1.95651455 14.28201071
  15.34522824 15.36528335 15.33385797
   0.00133055 15.29461330  7.61069680
   0.08134807  7.63421620 15.38797240
  15.33515037  7.75441735  7.82299848
   7.63413498 15.29816787 15.42163235
   7.73184101  0.12543739  7.69082428
   7.76386488  7.65950863 15.36884853
   7.58880967  7.69426754  7.64185056
   0.10942545  0.04516213  3.94146636
   0.03606920  0.11148527 11.67091445
  15.33306557  7.61324708  3.87731758
  15.31395190  7.69819433 11.44393046
   7.80431913  0.13332702  3.85750182
   7.62207988  0.09743609 11.61415530
   7.60917671  7.65425543  3.97033606
   7.72673930  7.79851857 11.70452781
  15.34776050  3.96285767  0.01216004
  15.41929796  3.82180757  7.57707540
  15.38822448 11.69834112  0.09264844
  15.38436948 11.66559823  7.80159298
   7.64418843  4.03026808  0.02332674
   7.83924844  3.77601664  7.70764811
   7.80997144 11.66136444 15.42006954
   7.81695338 11.60584955  7.84271735
   0.00834577  3.98283000  3.93572320
   0.07877354  3.73492143 11.51971959
   0.10524779 11.54464223  3.74678025
  15.31534119 11.57822220 11.46261593
   7.83301658  3.72380699  3.87982513
   7.78012220  3.81595292 11.56067333
   7.81598362 11.59247076  3.88216034
   7.73659857 11.46436558 11.46576571
   3.94995598 15.39502874  0.09979557
   3.87958915 15.33107119  7.82465159
   3.74647474  7.83387917 15.38618431
   3.92409185  7.62507296  7.81481046
  11.67838916  0.02450974 15.31926243
  11.56385429  0.10739111  7.62490906
  11.44027444  7.71107919  0.07759891
  11.65364785  7.68151141  7.79752531
   3.78299682  0.03876090  3.76404505
   4.00126469 15.37753520 11.49107960
   3.94064775  7.59802458  3.87936277
   3.80760476  7.80632626 11.43404415
  11.47918328  0.00976735  3.93639226
  11.54240133  0.11611675 11.65496612
  11.66138089  7.69215200  3.74465242
  11.68109947  7.68915693 11.45680869
   3.95928140  3.89503417  0.10143244
   3.91748088  3.95557685  7.79866114
   3.87542481 11.45303915 15.31798069
   3.88528463 11.65287762  7.59918605
  11.69426717  3.86213261  0.09647697
  11.45136491  3.74558109  7.69924317
  11.44461422 11.57950041 15.33006484
  11.43867865 11.60697552  7.61832233
   3.88334618  3.97812254  3.77608141
   3.74695771  3.87653974 11.46177955
   3.76391527 11.54097373  3.94036956
   3.82165367 11.44070100 11.66564704
  11.46476432  3.86888848  3.72786607
  11.45808709  3.74993804 11.56942203
  11.50319955 11.56981823  3.95783895
  11.68166546 11.58911578 11.66834376
   0.12722410  7.74349846  9.63360047
   0.02821997  0.08263134  5.79146213
   0.08283463  0.03293254 13.46776671
   7.70364816  7.55497136  5.78442946
   7.61897916  7.63206175 13.51246826
  15.40831803 11.50925137  1.93397108
   0.01474260 11.50359548  9.62470461
   7.73585917 11.52660632  9.62283150
   0.03038435  3.80569574  5.80191836
   4.02838451  0.06884189  1.91770778
   4.03110836  0.06312061  9.63661513
   3.68805462  7.65044134  9.65233645
  11.57691322  7.57517461  1.93657562
  11.50503211  7.61435799  9.62852429
  11.49458958 15.42168468  5.79085092
  11.43500191 15.41503126 13.48674980
   3.91459981  3.83396929  1.93104535
   3.97855574  3.82755199  9.64019023
  11.57922420  4.00039448  1.94218398
   3.92298557 11.52520870  5.76951496
   3.87769188 11.62425184 13.49800560
  11.60291007 11.58442099  5.76619549
  11.54081770 11.59914926 13.50875376
   1.91639982  7.67358376 15.34027574
   9.64335814  7.73397634 15.40368263
   1.94771131  0.06559898  3.79334280
   9.63455214  0.04952879  3.76360859
   9.63753912  3.98565985  7.75734242
   9.61933065 11.57436523  0.04590797
   9.63451670 11.77425233  7.64844265
   1.91342911  3.87765100 11.47981459
   1.93476605 11.57374353  3.87500019
   9.64779190  3.74939887  3.88993777
   9.69978698  3.90019938 11.41140852
   9.60672652 11.60237576  3.86858876
   5.79972024  0.19077451 15.15249578
   5.79000720  7.80711057  7.77291791
  13.46849439  0.11956856 15.36309674
  13.50294054  7.77471058  7.70787891
   5.77467820 15.34516354 11.80570972
   5.76593920  7.63063851  3.83258004
  13.50985922  7.64525085  3.88704822
  13.50278347  7.83449480 11.51084638
   5.79162404  3.65018576 15.28993796
  13.49185861  3.74969047 15.41954878
  13.49437138 11.49265001 11.56180428
   7.89838427  1.88194200  7.52893774
  15.36693915  1.93754902 11.47753458
   7.61836649  1.92478918  4.11985973
   7.68188821  1.84165244 11.72942123
   7.73616600  9.66431450 11.64288804
  15.36243284  5.77961157  0.06124637
  15.37228614 13.50567142  0.02019813
  15.33320063 13.49196369  7.68107997
   7.61545339  5.79106483  0.22650537
   7.61888036 13.49962362  0.17374850
   0.13456786  5.76640657  3.81188347
   3.82218725  9.64573432  0.01058281
  11.42198067  1.92343440  7.78380895
   3.80219814  9.63239062 11.58873120
  11.62145260  1.91042665 11.47832187
   3.91545740  5.75136384  7.62467796
   3.92779190 13.50266937  7.71368425
   3.71224501  5.77154862  3.93007838
  15.37026998  0.04431660  1.94990658
  15.39539276 15.39075363  9.61309577
   0.01367400  7.83713460  1.92848924
   7.52205718  0.22447512  1.93221796
   7.55615819  0.04538122  9.59390183
   7.75137170  7.88993381  1.97333094
   7.83608711  7.82359122  9.62303481
   0.04962570  7.65491058  5.79865304
  15.34449279  7.68153850 13.46716743
   7.86684739 15.17413530  5.79574493
   8.02567391 15.22036886 13.52162469
   0.02609179  3.78352257  1.95925040
  15.33072725  3.96650597  9.57849001
   7.66199474  3.58310788  1.95050898
   7.50753845  3.66595602  9.55853484
   7.65171752 11.43267788  1.95740967
   0.03666800  3.86037104 13.48915108
  15.34184076 11.56748442  5.78036449
   0.01812850 11.58027283 13.48362065
   7.71641789  4.12064140  5.78937110
   7.84312273  4.03931175 13.55468729
   7.59887096 11.71154647  5.78463533
   7.67436713 11.68301041 13.49534553
   3.76672331  7.63471283  1.92098982
  11.61958862  0.04577194  1.94510222
  11.61494962 15.33847795  9.60519255
   3.81461762  0.00458877  5.77849660
   3.66339498 15.34389612 13.49761653
   3.81789996  7.86576600  5.78316911
   3.99661360  7.65597667 13.48033099
  11.52094729  7.81257015  5.77825083
  11.61066452  7.81281645 13.49008738
   3.88471723 11.63315219  1.91819803
   3.83962331 11.55973115  9.63453044
  11.73977055  4.02324257  9.60258004
  11.59911350 11.55720140  1.93762065
  11.53497396 11.56462698  9.62740473
   3.79727682  3.76014449  5.76880780
   3.78590598  3.87120225 13.50814836
  11.63710844  3.75516091  5.77105402
  11.50097715  3.76993642 13.52788366
   1.96338192 15.38930135  0.11318035
   1.93291288  0.01460401  7.78719572
   1.90338473  7.66770481  7.58950789
   9.61193838 15.40679271  0.19813317
   9.62409224 15.15700723  7.84510375
   9.64792977  7.58753204  7.66773532
   1.95843161  0.01053862 11.43213069
   1.91543985  7.84745331  3.84874031
   1.89931283  7.60433418 11.76916504
   9.62824935 15.34418360 11.34591110
   9.64415263  7.73197201  3.86128531
   9.66846559  7.63069848 11.66410691
   1.94665395  3.91920217  0.01501514
   1.91286950  3.83651904  7.78240575
   1.93113815 11.62507734  0.00790219
   1.91422171 11.60548394  7.65051701
   9.63546471  3.90628209  0.07445224
   1.93205318  3.63245200  3.83952420
   1.89798919 11.61965438 11.58050993
   9.66316189 11.63011090 11.57511104
   5.82687838  0.13318530  7.50850486
   5.75315761  7.76578455  0.12507320
  13.49471369  0.14926419  7.72271336
  13.49006182  7.75436127 15.42242471
   5.82147215 15.33934365  4.01437315
   5.77160605  7.72968593 11.43730418
  13.48398369 15.38852340  3.87323429
  13.49637584 15.30263126 11.55252569
   5.83954146  3.71077759  7.53967106
   5.80541408 11.53928826  0.02910230
   5.81703793 11.43563562  7.73465200
  13.49466176  3.79029781  7.67320254
  13.45048671 11.55076975 15.41241401
  13.45740986 11.41990573  7.75216061
   5.82846197  3.99014016  3.92595396
   5.75884351  3.82619558 11.75050948
   5.81352237 11.57475987  3.80772377
   5.77596816 11.63266455 11.54006234
  13.49284764  3.95928706  3.87781481
  13.51095156  3.92546217 11.61642136
  13.47878536 11.56560761  3.83520383
   0.13888044  1.95879696  0.01872924
   0.02696981  1.93065845  7.84112536
  15.41291595  9.64718920 15.34487276
   0.07842891  9.66127121  7.59317188
   7.75430248  1.91524329 15.16059860
   7.64654477  9.68251990 15.37864554
   7.85978951  9.66449546  7.56755829
  15.28658381  1.96617986  3.80529226
  15.37970802  9.61516299  3.95525310
   0.15853417  9.63384675 11.65437638
   7.69516212  9.65790548  4.00153844
  15.40553878  5.76172967  7.68604745
   7.58436515  5.73598626  7.88414957
   7.50666655 13.54104320  7.76018701
  15.36785724  5.77738003 11.57765000
  15.38392186 13.51358616  3.86864098
   0.02029830 13.50410142 11.52638409
   7.79433843  5.72856358  3.64398020
   7.63770953  5.85788572 11.39380181
   7.68058777 13.51791326  3.69970953
   7.74175661 13.46661489 11.51774321
   3.77056886  1.92732540 15.24940712
   3.81731332  1.91512361  7.64621637
   3.75846464  9.65823035  7.76490763
  11.37984580  1.94959035  0.06658168
  11.62213181  9.65342161  0.06807754
  11.43072493  9.64941227  7.74297640
   4.03532086  1.94863599  3.91216613
   3.87862700  1.91626719 11.71857100
   3.90331049  9.62031864  3.72211103
  11.73863713  1.94426439  3.81977745
  11.56035931  9.64085162  3.79302519
  11.41793526  9.64652417 11.51881619
   3.97163976  5.80375224 15.40863306
   3.94848138 13.48531139  0.04912262
  11.61261464  5.77929148 15.22998858
  11.68305626  5.74490847  7.54748233
  11.58598068 13.50871206  0.11507532
  11.77762458 13.51698531  7.73739866
   3.91784927  5.79509692 11.65003163
   3.90577520 13.51062226  3.84397861
   3.77660567 13.46164608 11.48561310
  11.49718136  5.77080205  4.08219519
  11.66332812  5.77772973 11.70649708
  11.60365457 13.50365871  3.76469444
  11.57612652 13.49945020 11.49782623
 


--------------------------------------------------------------------------------------------------------


 k-point  1 :   0.2500 0.2500 0.2500  plane waves:   93161
 k-point  2 :  -0.2500 0.2500 0.2500  plane waves:   93161
 k-point  3 :   0.2500-0.2500 0.2500  plane waves:   93161
 k-point  4 :  -0.2500-0.2500 0.2500  plane waves:   93161

 maximum and minimum number of plane-waves per node :     11686    11606

 maximum number of plane-waves:     93161
 maximum index in each direction: 
   IXMAX=   28   IYMAX=   28   IZMAX=   27
   IXMIN=  -28   IYMIN=  -28   IZMIN=  -28


 real space projection operators:
  total allocation   :     105578.41 KBytes
  max/ min on nodes  :      13251.70      13160.60


 parallel 3D FFT for wavefunctions:
    minimum data exchange during FFTs selected (reduces bandwidth)
 parallel 3D FFT for charge:
    minimum data exchange during FFTs selected (reduces bandwidth)


 total amount of memory used by VASP MPI-rank0   291461. kBytes
=======================================================================

   base      :      30000. kBytes
   nonlr-proj:      49426. kBytes
   fftplans  :      27976. kBytes
   grid      :      34041. kBytes
   one-center:       1026. kBytes
   wavefun   :     148992. kBytes
 
     INWAV:  cpu time   57.8319: real time   58.3588
 Broyden mixing: mesh for mixing (old mesh)
   NGX = 57   NGY = 57   NGZ = 57
  (NGX  =240   NGY  =240   NGZ  =240)
  gives a total of 185193 points

 charge density for first step will be calculated from the start-wavefunctions


--------------------------------------------------------------------------------------------------------


 Maximum index for non-local projection operator          968
 Maximum index for augmentation-charges         3291 (set IRDMAX)


--------------------------------------------------------------------------------------------------------


 initial charge from wavefunction
 First call to EWALD:  gamma=   0.115
 Maximum number of real-space cells 3x 3x 3
 Maximum number of reciprocal cells 3x 3x 3

    FEWALD:  cpu time    0.0275: real time    0.0274


--------------------------------------- Iteration      1(   1)  ---------------------------------------


    POTLOK:  cpu time    0.2966: real time    0.2998
    SETDIJ:  cpu time    1.4307: real time    1.4318
     EDDAV:  cpu time  133.0450: real time  133.8752
       DOS:  cpu time    0.0021: real time    0.0021
    CHARGE:  cpu time    5.2548: real time    5.2581
    MIXING:  cpu time    0.0074: real time    0.0075
    --------------------------------------------
      LOOP:  cpu time  140.0368: real time  140.8746

 eigenvalue-minimisations  : 23748
 total energy-change (2. order) :-0.1757904E+04  (-0.1522344E-05)
 number of electron    1923.0000022 magnetization       1.0000000
 augmentation part      496.9827455 magnetization       0.5899815

 Broyden mixing:
  rms(total) = 0.84837E-03    rms(broyden)= 0.83556E-03
  rms(prec ) = 0.94897E-03
  weight for this iteration     100.00

 Free energy of the ion-electron system (eV)
  ---------------------------------------------------
  alpha Z        PSCENC =      6118.73324990
  Ewald energy   TEWEN  =   -103297.47882831
  -Hartree energ DENC   =    -65327.40087948
  -exchange      EXHF   =         0.00000000
  -V(xc)+E(xc)   XCENC  =      8970.87272420
  PAW double counting   =    198168.95441605  -199175.12119842
  entropy T*S    EENTRO =        -0.00000000
  eigenvalues    EBANDS =    -25793.71619321
  atomic energy  EATOM  =    178577.25249613
  Solvation  Ediel_sol  =         0.00000000
  ---------------------------------------------------
  free energy    TOTEN  =     -1757.90421313 eV

  energy without entropy =    -1757.90421313  energy(sigma->0) =    -1757.90421313


--------------------------------------------------------------------------------------------------------




--------------------------------------- Iteration      1(   2)  ---------------------------------------


    POTLOK:  cpu time    0.2607: real time    0.2627
    SETDIJ:  cpu time    1.4375: real time    1.4383
     EDDAV:  cpu time  139.3453: real time  140.3926
       DOS:  cpu time    0.0020: real time    0.0020
    CHARGE:  cpu time    5.2501: real time    5.2536
    MIXING:  cpu time    0.0300: real time    0.0300
    --------------------------------------------
      LOOP:  cpu time  146.3256: real time  147.3793

 eigenvalue-minimisations  : 24528
 total energy-change (2. order) : 0.1001725E-05  (-0.1106827E-05)
 number of electron    1923.0000022 magnetization       1.0000000
 augmentation part      496.9825412 magnetization       0.5899830

 Broyden mixing:
  rms(total) = 0.58463E-03    rms(broyden)= 0.56624E-03
  rms(prec ) = 0.62850E-03
  weight for this iteration     100.00

 eigenvalues of (default mixing * dielectric matrix)
  average eigenvalue GAMMA=   0.6587
  0.6587

 Free energy of the ion-electron system (eV)
  ---------------------------------------------------
  alpha Z        PSCENC =      6118.73324990
  Ewald energy   TEWEN  =   -103297.47882831
  -Hartree energ DENC   =    -65327.39975684
  -exchange      EXHF   =         0.00000000
  -V(xc)+E(xc)   XCENC  =      8970.87230867
  PAW double counting   =    198168.94730604  -199175.11356038
  entropy T*S    EENTRO =        -0.00000000
  eigenvalues    EBANDS =    -25793.71742734
  atomic energy  EATOM  =    178577.25249613
  Solvation  Ediel_sol  =         0.00000000
  ---------------------------------------------------
  free energy    TOTEN  =     -1757.90421213 eV

  energy without entropy =    -1757.90421213  energy(sigma->0) =    -1757.90421213


--------------------------------------------------------------------------------------------------------




--------------------------------------- Iteration      1(   3)  ---------------------------------------


    POTLOK:  cpu time    0.3097: real time    0.3118
    SETDIJ:  cpu time    1.3856: real time    1.3865
     EDDAV:  cpu time   91.8429: real time   92.4703
       DOS:  cpu time    0.0020: real time    0.0020
    --------------------------------------------
      LOOP:  cpu time   93.5401: real time   94.1705

 eigenvalue-minimisations  : 14340
 total energy-change (2. order) : 0.2004090E-06  (-0.2724369E-06)
 number of electron    1923.0000022 magnetization       1.0000000
 augmentation part      496.9825412 magnetization       0.5899830

 Free energy of the ion-electron system (eV)
  ---------------------------------------------------
  alpha Z        PSCENC =      6118.73324990
  Ewald energy   TEWEN  =   -103297.47882831
  -Hartree energ DENC   =    -65327.39879379
  -exchange      EXHF   =         0.00000000
  -V(xc)+E(xc)   XCENC  =      8970.87245100
  PAW double counting   =    198168.96659904  -199175.13335974
  entropy T*S    EENTRO =        -0.00000000
  eigenvalues    EBANDS =    -25793.71802616
  atomic energy  EATOM  =    178577.25249613
  Solvation  Ediel_sol  =         0.00000000
  ---------------------------------------------------
  free energy    TOTEN  =     -1757.90421193 eV

  energy without entropy =    -1757.90421193  energy(sigma->0) =    -1757.90421193


--------------------------------------------------------------------------------------------------------




 average (electrostatic) potential at core
  the test charge radii are     0.7079  1.0397  0.7215  0.7167
  (the norm of the test charge is              1.0000)
       1 -62.9284       2 -58.4324       3 -58.8362       4 -58.8125       5 -58.8242
       6 -58.9363       7 -59.6488       8 -58.4756       9 -58.6889      10 -58.9073
      11 -58.5845      12 -58.9316      13 -58.7973      14 -59.0971      15 -58.2120
      16 -58.7537      17 -58.6232      18 -58.8572      19 -59.5128      20 -58.6023
      21 -58.8630      22 -58.6605      23 -59.2829      24 -58.9377      25 -58.8272
      26 -59.0965      27 -58.6818      28 -58.6831      29 -58.8494      30 -59.1142
      31 -56.7077      32 -59.4419      33 -58.7189      34 -58.9321      35 -58.7696
      36 -58.6919      37 -58.4089      38 -58.6464      39 -59.1099      40 -58.7216
      41 -58.8826      42 -58.9185      43 -58.6504      44 -58.7770      45 -58.5786
      46 -59.1361      47 -58.6704      48 -58.8390      49 -58.8285      50 -58.8895
      51 -58.6462      52 -58.6634      53 -58.7919      54 -58.9363      55 -59.1451
      56 -58.8986      57 -59.0056      58 -58.8582      59 -58.6884      60 -58.7394
      61 -58.6923      62 -58.9973      63 -58.4848      64 -59.1178      65 -58.8814
      66 -74.1218      67 -74.0017      68 -73.7971      69 -73.8488      70 -73.7728
      71 -73.8597      72 -73.9997      73 -74.2007      74 -74.5634      75 -74.0424
      76 -73.9350      77 -73.8968      78 -73.9757      79 -73.9783      80 -74.2302
      81 -73.9311      82 -74.0536      83 -73.8968      84 -74.3341      85 -73.9170
      86 -73.8804      87 -74.1963      88 -74.0938      89 -73.9054      90 -73.8453
      91 -74.0645      92 -74.2358      93 -74.5241      94 -74.2182      95 -74.2354
      96 -73.8997      97 -73.9558      98 -74.4076      99 -73.6216     100 -74.3453
     101 -74.0040     102 -73.8020     103 -73.8621     104 -73.9514     105 -73.9307
     106 -73.9463     107 -74.0389     108 -74.0908     109 -73.9629     110 -74.1111
     111 -74.1665     112 -74.7261     113 -74.0221     114 -74.4244     115 -73.5774
     116 -73.8584     117 -73.9490     118 -73.7668     119 -74.2278     120 -73.9948
     121 -74.1742     122 -74.3176     123 -74.0710     124 -74.4232     125 -73.9923
     126 -73.9864     127 -73.8069     128 -73.9253     129 -74.1378     130 -78.3670
     131 -78.3611     132 -79.1500     133 -79.5886     134 -79.6466     135 -78.2698
     136 -78.2221     137 -78.9833     138 -78.9393     139 -79.7520     140 -79.3220
     141 -79.1637     142 -79.0844     143 -79.5374     144 -79.3547     145 -79.3965
     146 -79.1795     147 -78.3731     148 -78.3771     149 -79.6400     150 -79.0347
     151 -79.2308     152 -79.0840     153 -79.0405     154 -78.5245     155 -78.5399
     156 -78.4129     157 -78.3743     158 -78.8233     159 -78.7976     160 -78.3817
     161 -78.4039     162 -78.3675     163 -78.3244     164 -79.2640     165 -78.5359
     166 -78.5790     167 -78.4729     168 -78.3847     169 -79.1794     170 -79.0057
     171 -78.4583     172 -79.4731     173 -78.3434     174 -78.4651     175 -79.7844
     176 -78.2964     177 -78.8045     178 -78.4068     179 -78.8564     180 -78.8765
     181 -78.4370     182 -78.8279     183 -78.5734     184 -79.4305     185 -79.0735
     186 -79.1418     187 -78.5598     188 -79.3241     189 -78.9586     190 -78.9580
     191 -79.7082     192 -78.3400     193 -79.5666     194 -78.2721     195 -78.5823
     196 -78.9684     197 -78.5191     198 -79.0019     199 -79.1142     200 -78.9712
     201 -79.0258     202 -79.3747     203 -78.9289     204 -79.0183     205 -79.1347
     206 -78.4006     207 -78.5432     208 -79.1265     209 -79.2184     210 -78.3241
     211 -78.6263     212 -78.3306     213 -79.2839     214 -78.3006     215 -79.0966
     216 -78.5914     217 -78.6107     218 -79.1872     219 -79.0247     220 -79.0014
     221 -79.1676     222 -79.3274     223 -79.4246     224 -79.1199     225 -79.1715
     226 -78.9545     227 -79.1326     228 -78.9505     229 -79.0835     230 -78.2644
     231 -79.2727     232 -78.2502     233 -79.3070     234 -78.3418     235 -78.3243
     236 -79.4025     237 -79.3869     238 -79.2515     239 -78.9895     240 -79.0492
     241 -78.9317     242 -79.5970     243 -79.5488     244 -79.1856     245 -79.0661
     246 -79.0933     247 -79.4130     248 -79.0962     249 -79.3889     250 -79.1592
     251 -78.8723     252 -79.1303     253 -78.8677     254 -79.5605     255 -78.9535
     256 -79.5892     257 -78.9676
 
 
 
 E-fermi :  -0.6741     XC(G=0):  -9.0426     alpha+bet : -7.7421


 spin component 1

 k-point     1 :       0.2500    0.2500    0.2500
  band No.  band energies     occupation 
      1     -43.6038      1.00000
      2     -35.6679      1.00000
      3     -35.6656      1.00000
      4     -35.4998      1.00000
      5     -35.4840      1.00000
      6     -35.4805      1.00000
      7     -35.4202      1.00000
      8     -35.4108      1.00000
      9     -35.3432      1.00000
     10     -35.3310      1.00000
     11     -35.2151      1.00000
     12     -35.1930      1.00000
     13     -35.1835      1.00000
     14     -35.1715      1.00000
     15     -35.1526      1.00000
     16     -35.1458      1.00000
     17     -35.1406      1.00000
     18     -35.1388      1.00000
     19     -35.1374      1.00000
     20     -35.1042      1.00000
     21     -35.0580      1.00000
     22     -35.0577      1.00000
     23     -35.0432      1.00000
     24     -35.0423      1.00000
     25     -35.0205      1.00000
     26     -35.0171      1.00000
     27     -35.0103      1.00000
     28     -34.9892      1.00000
     29     -34.9850      1.00000
     30     -34.9805      1.00000
     31     -34.9773      1.00000
     32     -34.9721      1.00000
     33     -34.9719      1.00000
     34     -34.9689      1.00000
     35     -34.9669      1.00000
     36     -34.9642      1.00000
     37     -34.9507      1.00000
     38     -34.9501      1.00000
     39     -34.9439      1.00000
     40     -34.9307      1.00000
     41     -34.9286      1.00000
     42     -34.9242      1.00000
     43     -34.9227      1.00000
     44     -34.9111      1.00000
     45     -34.9106      1.00000
     46     -34.9077      1.00000
     47     -34.9045      1.00000
     48     -34.9043      1.00000
     49     -34.9005      1.00000
     50     -34.8952      1.00000
     51     -34.8880      1.00000
     52     -34.8840      1.00000
     53     -34.8726      1.00000
     54     -34.8715      1.00000
     55     -34.8655      1.00000
     56     -34.8637      1.00000
     57     -34.8619      1.00000
     58     -34.8506      1.00000
     59     -34.8497      1.00000
     60     -34.8394      1.00000
     61     -34.8376      1.00000
     62     -34.8372      1.00000
     63     -34.8343      1.00000
     64     -34.8337      1.00000
     65     -34.8212      1.00000
     66     -34.8198      1.00000
     67     -34.8124      1.00000
     68     -34.8000      1.00000
     69     -34.7983      1.00000
     70     -34.7972      1.00000
     71     -34.7937      1.00000
     72     -34.7876      1.00000
     73     -34.7855      1.00000
     74     -34.7823      1.00000
     75     -34.7781      1.00000
     76     -34.7772      1.00000
     77     -34.7745      1.00000
     78     -34.7715      1.00000
     79     -34.7689      1.00000
     80     -34.7665      1.00000
     81     -34.7644      1.00000
     82     -34.7635      1.00000
     83     -34.7586      1.00000
     84     -34.7558      1.00000
     85     -34.7549      1.00000
     86     -34.7484      1.00000
     87     -34.7467      1.00000
     88     -34.7430      1.00000
     89     -34.7376      1.00000
     90     -34.7372      1.00000
     91     -34.7361      1.00000
     92     -34.7337      1.00000
     93     -34.7299      1.00000
     94     -34.7298      1.00000
     95     -34.7276      1.00000
     96     -34.7244      1.00000
     97     -34.7227      1.00000
     98     -34.7107      1.00000
     99     -34.7092      1.00000
    100     -34.7089      1.00000
    101     -34.7080      1.00000
    102     -34.7064      1.00000
    103     -34.7039      1.00000
    104     -34.7030      1.00000
    105     -34.6996      1.00000
    106     -34.6965      1.00000
    107     -34.6951      1.00000
    108     -34.6945      1.00000
    109     -34.6932      1.00000
    110     -34.6920      1.00000
    111     -34.6917      1.00000
    112     -34.6908      1.00000
    113     -34.6842      1.00000
[...]
   81        1.573   3.461   0.000   5.034
   82        1.574   3.463   0.000   5.037
   83        1.574   3.461   0.000   5.035
   84        1.576   3.473   0.000   5.049
   85        1.575   3.463   0.000   5.038
   86        1.575   3.467   0.000   5.041
   87        1.576   3.463   0.000   5.039
   88        1.575   3.465   0.000   5.040
   89        1.575   3.464   0.000   5.038
   90        1.575   3.460   0.000   5.035
   91        1.574   3.459   0.000   5.034
   92        1.574   3.459   0.000   5.034
   93        1.577   3.471   0.000   5.049
   94        1.577   3.474   0.000   5.050
   95        1.576   3.473   0.000   5.049
   96        1.575   3.465   0.000   5.040
   97        1.575   3.466   0.000   5.041
   98        1.576   3.475   0.000   5.051
   99        1.575   3.468   0.000   5.043
  100        1.576   3.458   0.000   5.033
  101        1.566   3.481   0.000   5.047
  102        1.575   3.459   0.000   5.034
  103        1.575   3.460   0.000   5.035
  104        1.574   3.460   0.000   5.034
  105        1.575   3.471   0.000   5.046
  106        1.575   3.463   0.000   5.037
  107        1.575   3.462   0.000   5.037
  108        1.576   3.473   0.000   5.049
  109        1.566   3.488   0.000   5.055
  110        1.575   3.462   0.000   5.038
  111        1.576   3.473   0.000   5.049
  112        1.577   3.461   0.000   5.038
  113        1.576   3.473   0.000   5.050
  114        1.577   3.471   0.000   5.048
  115        1.575   3.453   0.000   5.028
  116        1.575   3.465   0.000   5.040
  117        1.575   3.461   0.000   5.036
  118        1.575   3.463   0.000   5.038
  119        1.576   3.475   0.000   5.052
  120        1.577   3.463   0.000   5.040
  121        1.576   3.468   0.000   5.044
  122        1.577   3.468   0.000   5.045
  123        1.577   3.478   0.000   5.055
  124        1.576   3.470   0.000   5.046
  125        1.576   3.476   0.000   5.051
  126        1.575   3.471   0.000   5.047
  127        1.575   3.459   0.000   5.033
  128        1.574   3.461   0.000   5.035
  129        1.576   3.470   0.000   5.046
  130        1.737   4.369   0.000   6.106
  131        1.737   4.370   0.000   6.107
  132        1.737   4.379   0.000   6.117
  133        1.738   4.382   0.000   6.119
  134        1.738   4.380   0.000   6.118
  135        1.737   4.368   0.000   6.105
  136        1.736   4.365   0.000   6.101
  137        1.739   4.380   0.000   6.118
  138        1.738   4.381   0.000   6.119
  139        1.739   4.383   0.000   6.122
  140        1.739   4.382   0.000   6.121
  141        1.738   4.381   0.000   6.119
  142        1.738   4.380   0.000   6.118
  143        1.738   4.384   0.000   6.121
  144        1.739   4.381   0.000   6.120
  145        1.738   4.382   0.000   6.121
  146        1.737   4.382   0.000   6.119
  147        1.736   4.369   0.000   6.105
  148        1.736   4.368   0.000   6.104
  149        1.739   4.384   0.000   6.123
  150        1.738   4.387   0.000   6.125
  151        1.738   4.375   0.000   6.114
  152        1.738   4.377   0.000   6.115
  153        1.737   4.382   0.000   6.120
  154        1.737   4.371   0.000   6.107
  155        1.737   4.371   0.000   6.108
  156        1.737   4.368   0.000   6.105
  157        1.737   4.366   0.000   6.103
  158        1.738   4.376   0.000   6.114
  159        1.738   4.376   0.000   6.114
  160        1.737   4.368   0.000   6.105
  161        1.736   4.369   0.000   6.105
  162        1.736   4.370   0.000   6.106
  163        1.736   4.367   0.000   6.104
  164        1.738   4.378   0.000   6.116
  165        1.737   4.369   0.000   6.106
  166        1.736   4.369   0.000   6.106
  167        1.737   4.371   0.000   6.108
  168        1.737   4.371   0.000   6.107
  169        1.738   4.377   0.000   6.115
  170        1.737   4.380   0.000   6.117
  171        1.737   4.368   0.000   6.105
  172        1.738   4.387   0.000   6.125
  173        1.737   4.370   0.000   6.108
  174        1.737   4.367   0.000   6.103
  175        1.739   4.380   0.000   6.119
  176        1.737   4.366   0.000   6.103
  177        1.738   4.377   0.000   6.115
  178        1.737   4.369   0.000   6.105
  179        1.738   4.376   0.000   6.114
  180        1.738   4.378   0.000   6.116
  181        1.736   4.369   0.000   6.105
  182        1.738   4.377   0.000   6.115
  183        1.737   4.370   0.000   6.107
  184        1.738   4.380   0.000   6.118
  185        1.737   4.383   0.000   6.120
  186        1.737   4.381   0.000   6.119
  187        1.736   4.371   0.000   6.107
  188        1.738   4.379   0.000   6.117
  189        1.738   4.382   0.000   6.121
  190        1.738   4.381   0.000   6.119
  191        1.739   4.385   0.000   6.124
  192        1.737   4.371   0.000   6.108
  193        1.738   4.388   0.000   6.126
  194        1.737   4.368   0.000   6.104
  195        1.737   4.369   0.000   6.106
  196        1.737   4.381   0.000   6.119
  197        1.737   4.368   0.000   6.105
  198        1.737   4.380   0.000   6.117
  199        1.738   4.380   0.000   6.118
  200        1.738   4.383   0.000   6.121
  201        1.738   4.380   0.000   6.118
  202        1.738   4.379   0.000   6.117
  203        1.738   4.381   0.000   6.119
  204        1.738   4.377   0.000   6.115
  205        1.737   4.379   0.000   6.116
  206        1.736   4.375   0.000   6.111
  207        1.737   4.370   0.000   6.106
  208        1.737   4.382   0.000   6.119
  209        1.737   4.378   0.000   6.116
  210        1.737   4.371   0.000   6.107
  211        1.737   4.371   0.000   6.108
  212        1.737   4.369   0.000   6.106
  213        1.739   4.375   0.000   6.114
  214        1.736   4.367   0.000   6.103
  215        1.739   4.380   0.000   6.119
  216        1.736   4.372   0.000   6.108
  217        1.737   4.373   0.000   6.111
  218        1.737   4.379   0.000   6.116
  219        1.738   4.379   0.000   6.117
  220        1.738   4.380   0.000   6.118
  221        1.738   4.381   0.000   6.119
  222        1.737   4.378   0.000   6.116
  223        1.738   4.381   0.000   6.119
  224        1.738   4.378   0.000   6.116
  225        1.738   4.378   0.000   6.116
  226        1.738   4.378   0.000   6.117
  227        1.737   4.380   0.000   6.117
  228        1.738   4.378   0.000   6.116
  229        1.737   4.376   0.000   6.113
  230        1.736   4.375   0.000   6.112
  231        1.738   4.375   0.000   6.113
  232        1.737   4.372   0.000   6.109
  233        1.738   4.382   0.000   6.120
  234        1.737   4.370   0.000   6.106
  235        1.737   4.369   0.000   6.106
  236        1.739   4.387   0.000   6.125
  237        1.738   4.387   0.000   6.126
  238        1.737   4.379   0.000   6.117
  239        1.738   4.377   0.000   6.115
  240        1.737   4.380   0.000   6.117
  241        1.738   4.378   0.000   6.116
  242        1.738   4.386   0.000   6.125
  243        1.738   4.387   0.000   6.126
  244        1.738   4.380   0.000   6.118
  245        1.738   4.379   0.000   6.118
  246        1.739   4.380   0.000   6.119
  247        1.738   4.386   0.000   6.124
  248        1.738   4.378   0.000   6.116
  249        1.738   4.386   0.000   6.124
  250        1.738   4.377   0.000   6.115
  251        1.738   4.380   0.000   6.118
  252        1.737   4.381   0.000   6.118
  253        1.738   4.380   0.000   6.119
  254        1.739   4.386   0.000   6.125
  255        1.738   4.378   0.000   6.116
  256        1.739   4.386   0.000   6.125
  257        1.738   4.378   0.000   6.117
--------------------------------------------------
tot        345.5471195.431 112.6021653.581
 


 magnetization (x)
 
# of ion       s       p       d       tot
------------------------------------------
    1        0.000   0.000   0.000   0.000
    2        0.000  -0.000   0.000   0.000
    3       -0.000  -0.000  -0.000  -0.000
    4       -0.000  -0.000   0.000   0.000
    5       -0.000  -0.000   0.000   0.000
    6        0.000   0.000   0.002   0.002
    7        0.000   0.000   0.017   0.018
    8        0.000   0.000   0.004   0.004
    9        0.000   0.000   0.001   0.001
   10       -0.000  -0.000  -0.000  -0.000
   11       -0.000  -0.000  -0.000  -0.000
   12       -0.000  -0.000   0.000  -0.000
   13       -0.000  -0.000  -0.000  -0.000
   14        0.000   0.000   0.000   0.000
   15        0.000   0.001   0.083   0.084
   16        0.000   0.000   0.000   0.000
   17       -0.000   0.000   0.005   0.005
   18       -0.000  -0.000  -0.000  -0.000
   19       -0.000  -0.000  -0.000  -0.000
   20       -0.000  -0.000   0.000   0.000
   21        0.000   0.000   0.000   0.000
   22       -0.000   0.000   0.009   0.009
   23        0.000   0.000   0.028   0.028
   24        0.000   0.000   0.001   0.001
   25        0.000   0.000   0.001   0.001
   26        0.000   0.000   0.000   0.000
   27       -0.000  -0.000  -0.000  -0.000
   28        0.000  -0.000  -0.000  -0.000
   29       -0.000  -0.000   0.000   0.000
   30        0.000   0.000   0.001   0.001
   31        0.005   0.006   0.859   0.870
   32        0.000   0.000   0.000   0.000
   33       -0.000  -0.000   0.001   0.001
   34       -0.000  -0.000  -0.000  -0.000
   35       -0.000  -0.000  -0.000  -0.000
   36       -0.000  -0.000   0.000   0.000
   37       -0.000  -0.000   0.000   0.000
   38        0.000  -0.000   0.000   0.000
   39       -0.000  -0.000  -0.000  -0.000
   40       -0.000  -0.000  -0.000  -0.000
   41       -0.000  -0.000   0.000   0.000
   42        0.000  -0.000   0.000   0.000
   43       -0.000  -0.000  -0.000  -0.000
   44       -0.000  -0.000   0.000   0.000
   45       -0.000  -0.000   0.000   0.000
   46       -0.000  -0.000  -0.000  -0.000
   47       -0.000  -0.000  -0.000  -0.000
   48        0.000  -0.000   0.000   0.000
   49       -0.000  -0.000   0.000   0.000
   50       -0.000  -0.000   0.000   0.000
   51       -0.000  -0.000   0.000   0.000
   52       -0.000  -0.000   0.000   0.000
   53       -0.000  -0.000   0.000   0.000
   54        0.000   0.000   0.000   0.000
   55       -0.000  -0.000  -0.000  -0.000
   56       -0.000  -0.000  -0.000  -0.000
   57       -0.000  -0.000   0.000   0.000
   58        0.000  -0.000   0.000   0.000
   59       -0.000  -0.000   0.000  -0.000
   60       -0.000  -0.000   0.000   0.000
   61       -0.000  -0.000   0.000   0.000
   62       -0.000  -0.000   0.000   0.000
   63       -0.000  -0.000  -0.003  -0.004
   64       -0.000  -0.000  -0.000  -0.000
   65        0.000  -0.000   0.000   0.000
   66       -0.000  -0.000   0.000  -0.000
   67       -0.000  -0.000   0.000  -0.000
   68        0.000  -0.000   0.000  -0.000
   69       -0.000  -0.000   0.000  -0.000
   70       -0.000  -0.001   0.000  -0.001
   71       -0.000   0.000   0.000   0.000
   72       -0.000  -0.000   0.000  -0.000
   73       -0.000  -0.000   0.000  -0.000
   74       -0.000  -0.000   0.000  -0.000
   75       -0.000  -0.000   0.000  -0.000
   76       -0.000  -0.000   0.000  -0.000
   77       -0.000  -0.000   0.000  -0.000
   78       -0.000  -0.000   0.000  -0.000
   79       -0.000  -0.000   0.000  -0.000
   80       -0.000  -0.000   0.000  -0.000
   81       -0.000  -0.000   0.000  -0.000
   82       -0.000  -0.000   0.000  -0.000
   83       -0.000  -0.000   0.000  -0.000
   84       -0.000  -0.000   0.000  -0.000
   85       -0.000  -0.000   0.000  -0.000
   86       -0.000  -0.000   0.000  -0.000
   87       -0.000  -0.000   0.000  -0.000
   88       -0.000  -0.000   0.000  -0.000
   89       -0.000  -0.000   0.000  -0.000
   90       -0.000  -0.000   0.000  -0.000
   91       -0.000  -0.000   0.000  -0.000
   92       -0.000  -0.000   0.000  -0.000
   93       -0.000  -0.001   0.000  -0.001
   94       -0.000  -0.000   0.000  -0.000
   95       -0.000  -0.000   0.000  -0.000
   96       -0.000  -0.000   0.000  -0.000
   97        0.000  -0.000   0.000  -0.000
   98       -0.000  -0.000   0.000  -0.000
   99       -0.001  -0.014   0.000  -0.015
  100       -0.000  -0.000   0.000  -0.000
  101       -0.000  -0.000   0.000  -0.000
  102       -0.000  -0.000   0.000  -0.000
  103       -0.000  -0.000   0.000  -0.000
  104       -0.000  -0.000   0.000  -0.000
  105       -0.000  -0.003   0.000  -0.003
  106       -0.000  -0.000   0.000  -0.000
  107       -0.000  -0.000   0.000  -0.000
  108       -0.000  -0.000   0.000  -0.000
  109       -0.000  -0.000   0.000  -0.000
  110       -0.000  -0.000   0.000  -0.000
  111       -0.000  -0.000   0.000  -0.000
  112       -0.000  -0.006   0.000  -0.006
  113        0.000   0.000   0.000   0.000
  114       -0.000  -0.000   0.000  -0.000
  115       -0.002  -0.040   0.000  -0.042
  116       -0.000  -0.000   0.000  -0.000
  117        0.000  -0.000   0.000  -0.000
  118       -0.000  -0.000   0.000  -0.000
  119       -0.000  -0.000   0.000  -0.000
  120       -0.000  -0.001   0.000  -0.001
  121       -0.000  -0.000   0.000  -0.000
  122        0.000   0.000   0.000   0.000
  123       -0.000  -0.000   0.000  -0.000
  124       -0.000  -0.000   0.000  -0.000
  125       -0.000  -0.000   0.000  -0.000
  126        0.000  -0.000   0.000  -0.000
  127       -0.000  -0.000   0.000  -0.000
  128       -0.000  -0.000   0.000  -0.000
  129       -0.000  -0.000   0.000  -0.000
  130       -0.000  -0.000   0.000  -0.000
  131        0.000  -0.000   0.000  -0.000
  132        0.000   0.000   0.000   0.000
  133       -0.000  -0.000   0.000  -0.000
  134       -0.000  -0.002   0.000  -0.002
  135       -0.000   0.000   0.000   0.000
  136        0.000  -0.000   0.000  -0.000
  137       -0.000  -0.000   0.000  -0.000
  138        0.000   0.000   0.000   0.000
  139       -0.000  -0.000   0.000  -0.000
  140       -0.000   0.000   0.000   0.000
  141       -0.000  -0.000   0.000  -0.000
  142        0.000  -0.000   0.000  -0.000
  143       -0.000  -0.000   0.000  -0.000
  144       -0.000  -0.004   0.000  -0.005
  145        0.000  -0.000   0.000  -0.000
  146        0.000  -0.000   0.000  -0.000
  147       -0.000  -0.000   0.000  -0.000
  148       -0.000   0.000   0.000   0.000
  149       -0.000  -0.000   0.000  -0.000
  150       -0.000   0.001   0.000   0.001
  151        0.000  -0.000   0.000  -0.000
  152        0.000  -0.000   0.000  -0.000
  153       -0.000  -0.000   0.000  -0.000
  154       -0.000  -0.000   0.000  -0.000
  155       -0.000  -0.000   0.000  -0.000
  156       -0.000  -0.000   0.000  -0.000
  157       -0.000  -0.000   0.000  -0.000
  158       -0.000  -0.000   0.000  -0.000
  159       -0.000  -0.000   0.000  -0.000
  160       -0.000  -0.000   0.000  -0.000
  161       -0.000  -0.000   0.000  -0.000
  162       -0.000  -0.000   0.000  -0.000
  163       -0.000  -0.000   0.000  -0.000
  164       -0.000  -0.000   0.000  -0.000
  165       -0.000  -0.000   0.000  -0.000
  166       -0.000  -0.000   0.000  -0.000
  167       -0.000  -0.000   0.000  -0.000
  168       -0.000  -0.000   0.000  -0.000
  169       -0.000  -0.000   0.000  -0.000
  170        0.000  -0.000   0.000  -0.000
  171       -0.000  -0.000   0.000  -0.000
  172       -0.000  -0.000   0.000  -0.000
  173       -0.000  -0.000   0.000  -0.000
  174       -0.000  -0.000   0.000  -0.000
  175       -0.000  -0.000   0.000  -0.000
  176       -0.000  -0.000   0.000  -0.000
  177       -0.000  -0.000   0.000  -0.000
  178       -0.000  -0.000   0.000  -0.000
  179       -0.000  -0.000   0.000  -0.000
  180       -0.000  -0.000   0.000  -0.000
  181       -0.000  -0.000   0.000  -0.000
  182       -0.000  -0.000   0.000  -0.000
  183       -0.000  -0.000   0.000  -0.000
  184       -0.000  -0.000   0.000  -0.000
  185       -0.000  -0.000   0.000  -0.000
  186       -0.000  -0.000   0.000  -0.000
  187       -0.000  -0.000   0.000  -0.000
  188       -0.000  -0.000   0.000  -0.000
  189       -0.000  -0.000   0.000  -0.000
  190       -0.000  -0.000   0.000  -0.000
  191       -0.000  -0.000   0.000  -0.000
  192       -0.000  -0.000   0.000  -0.000
  193       -0.000  -0.000   0.000  -0.000
  194       -0.000  -0.000   0.000  -0.000
  195       -0.000  -0.000   0.000  -0.000
  196       -0.000  -0.000   0.000  -0.000
  197       -0.000  -0.000   0.000  -0.000
  198       -0.000  -0.000   0.000  -0.000
  199       -0.000  -0.000   0.000  -0.000
  200       -0.000  -0.000   0.000  -0.000
  201       -0.000  -0.000   0.000  -0.000
  202       -0.000  -0.000   0.000  -0.000
  203       -0.000  -0.000   0.000  -0.000
  204       -0.000  -0.000   0.000  -0.000
  205       -0.000  -0.000   0.000  -0.000
  206       -0.000  -0.005   0.000  -0.006
  207       -0.000  -0.000   0.000  -0.000
  208       -0.000  -0.000   0.000  -0.000
  209       -0.000  -0.000   0.000  -0.000
  210       -0.000  -0.000   0.000  -0.000
  211       -0.000  -0.000   0.000  -0.000
  212       -0.000  -0.000   0.000  -0.000
  213       -0.000   0.000   0.000   0.000
  214       -0.000  -0.000   0.000  -0.000
  215       -0.000  -0.000   0.000  -0.000
  216        0.000  -0.000   0.000  -0.000
  217       -0.000  -0.000   0.000  -0.000
  218        0.000  -0.000   0.000  -0.000
  219       -0.000  -0.000   0.000  -0.000
  220       -0.000  -0.000   0.000  -0.000
  221       -0.000  -0.000   0.000  -0.000
  222        0.000  -0.000   0.000  -0.000
  223        0.000   0.000   0.000   0.000
  224       -0.000  -0.000   0.000  -0.000
  225       -0.000  -0.000   0.000  -0.000
  226       -0.000  -0.000   0.000  -0.000
  227       -0.000  -0.000   0.000  -0.000
  228       -0.000  -0.000   0.000  -0.000
  229       -0.000  -0.000   0.000  -0.000
  230       -0.000   0.002   0.000   0.001
  231        0.000  -0.000   0.000  -0.000
  232       -0.000  -0.001   0.000  -0.001
  233       -0.000  -0.000   0.000  -0.000
  234       -0.000  -0.000   0.000  -0.000
  235       -0.000  -0.000   0.000  -0.000
  236       -0.000  -0.000   0.000  -0.000
  237       -0.000  -0.000   0.000  -0.000
  238       -0.000  -0.000   0.000  -0.000
  239       -0.000  -0.000   0.000  -0.000
  240       -0.000  -0.000   0.000  -0.000
  241       -0.000  -0.000   0.000  -0.000
  242       -0.000  -0.000   0.000  -0.000
  243        0.000   0.000   0.000   0.000
  244       -0.000  -0.000   0.000  -0.000
  245       -0.000  -0.000   0.000  -0.000
  246       -0.000  -0.000   0.000  -0.000
  247       -0.000  -0.000   0.000  -0.000
  248       -0.000  -0.000   0.000  -0.000
  249        0.000  -0.000   0.000  -0.000
  250       -0.000  -0.000   0.000  -0.000
  251       -0.000  -0.000   0.000  -0.000
  252       -0.000  -0.000   0.000  -0.000
  253       -0.000  -0.000   0.000  -0.000
  254       -0.000  -0.000   0.000  -0.000
  255       -0.000  -0.000   0.000  -0.000
  256       -0.000  -0.000   0.000  -0.000
  257        0.000  -0.000   0.000  -0.000
--------------------------------------------------
tot          0.001  -0.073   1.009   0.936
 

 total amount of memory used by VASP MPI-rank0   291461. kBytes
=======================================================================

   base      :      30000. kBytes
   nonlr-proj:      49426. kBytes
   fftplans  :      27976. kBytes
   grid      :      34041. kBytes
   one-center:       1026. kBytes
   wavefun   :     148992. kBytes
 
  
  
 General timing and accounting informations for this job:
 ========================================================
  
                  Total CPU time used (sec):     1003.101
                            User time (sec):      664.659
                          System time (sec):      338.442
                         Elapsed time (sec):     1033.957
  
                   Maximum memory used (kb):      623696.
                   Average memory used (kb):           0.
  
                          Minor page faults:        75814
                          Major page faults:            0
                 Voluntary context switches:        16540
