 vasp.5.4.4.18Apr17-6-g9f103f2a35 (build Jul 16 2019 12:12:28) complex          
  
 executed on             LinuxIFC date 2020.01.06  11:52:06
 running on   96 total cores
 distrk:  each k-point on   96 cores,    1 groups
 distr:  one band on NCORES_PER_BAND=   8 cores,   12 groups


--------------------------------------------------------------------------------------------------------


 INCAR:
 POTCAR:    PAW_PBE Li_sv 10Sep2004               
 POTCAR:    PAW_PBE Ti_pv 07Sep2000               
 POTCAR:    PAW_PBE O 08Apr2002                   
 POTCAR:    PAW_PBE F 08Apr2002                   
 POTCAR:    PAW_PBE Li_sv 10Sep2004               
   VRHFIN =Li: 1s2s2p                                                           
   LEXCH  = PE                                                                  
   EATOM  =   202.7858 eV,   14.9043 Ry                                         
                                                                                
   TITEL  = PAW_PBE Li_sv 10Sep2004                                             
   LULTRA =        F    use ultrasoft PP ?                                      
   IUNSCR =        0    unscreen: 0-lin 1-nonlin 2-no                           
   RPACOR =    0.000    partial core radius                                     
   POMASS =    7.010; ZVAL   =    3.000    mass and valenz                      
   RCORE  =    1.700    outmost cutoff radius                                   
   RWIGS  =    2.050; RWIGS  =    1.085    wigner-seitz radius (au A)           
   ENMAX  =  499.034; ENMIN  =  374.276 eV                                      
   ICORE  =        2    local potential                                         
   LCOR   =        T    correct aug charges                                     
   LPAW   =        T    paw PP                                                  
   EAUG   =  628.945                                                            
   RMAX   =    1.732    core radius for proj-oper                               
   RAUG   =    1.300    factor for augmentation sphere                          
   RDEP   =    1.728    radius for radial grids                                 
   RDEPT  =    1.329    core radius for aug-charge                              
                                                                                
   Atomic configuration                                                         
    4 entries                                                                   
     n  l   j            E        occ.                                          
     1  0  0.50       -51.8549   2.0000                                         
     2  0  0.50        -2.8742   1.0000                                         
     2  1  0.50        -1.3606   0.0000                                         
     3  2  1.50        -1.3606   0.0000                                         
   Description                                                                  
     l       E           TYP  RCUT    TYP  RCUT                                 
     0    -51.8548813     23  1.400                                             
     0     -2.8742052     23  1.700                                             
     1     -1.3605826     23  1.400                                             
     2     -1.3605826     23  1.400                                             
  local pseudopotential read in
  atomic valenz-charges read in
  non local Contribution for L=           0  read in
    real space projection operators read in
  non local Contribution for L=           0  read in
    real space projection operators read in
  non local Contribution for L=           1  read in
    real space projection operators read in
    PAW grid and wavefunctions read in
 
   number of l-projection  operators is LMAX  =           3
   number of lm-projection operators is LMMAX =           5
 
 POTCAR:    PAW_PBE Ti_pv 07Sep2000               
   VRHFIN =Ti: d3 s1                                                            
   LEXCH  = PE                                                                  
   EATOM  =  1042.5995 eV,   76.6289 Ry                                         
                                                                                
   TITEL  = PAW_PBE Ti_pv 07Sep2000                                             
   LULTRA =        F    use ultrasoft PP ?                                      
   IUNSCR =        1    unscreen: 0-lin 1-nonlin 2-no                           
   RPACOR =    2.200    partial core radius                                     
   POMASS =   47.880; ZVAL   =   10.000    mass and valenz                      
   RCORE  =    2.500    outmost cutoff radius                                   
   RWIGS  =    2.500; RWIGS  =    1.323    wigner-seitz radius (au A)           
   ENMAX  =  222.335; ENMIN  =  166.751 eV                                      
   RCLOC  =    1.701    cutoff for local pot                                    
   LCOR   =        T    correct aug charges                                     
   LPAW   =        T    paw PP                                                  
   EAUG   =  482.848                                                            
   DEXC   =    0.000                                                            
   RMAX   =    2.564    core radius for proj-oper                               
   RAUG   =    1.300    factor for augmentation sphere                          
   RDEP   =    2.538    radius for radial grids                                 
   RDEPT  =    1.952    core radius for aug-charge                              
                                                                                
   Atomic configuration                                                         
    8 entries                                                                   
     n  l   j            E        occ.                                          
     1  0  0.50     -4865.3608   2.0000                                         
     2  0  0.50      -533.1368   2.0000                                         
     2  1  1.50      -440.5031   6.0000                                         
     3  0  0.50       -59.3186   2.0000                                         
     3  1  1.50       -35.7012   6.0000                                         
     3  2  2.50        -1.9157   3.0000                                         
     4  0  0.50        -3.7291   1.0000                                         
     4  3  2.50        -1.3606   0.0000                                         
   Description                                                                  
     l       E           TYP  RCUT    TYP  RCUT                                 
     1    -35.7012140     23  2.300                                             
     1     -1.3605826     23  2.300                                             
     2     -1.9156996     23  2.500                                             
     2     -0.4063033     23  2.500                                             
     0     -3.7290856     23  2.500                                             
     0     20.4087390     23  2.500                                             
  local pseudopotential read in
  partial core-charges read in
  partial kinetic energy density read in
  atomic valenz-charges read in
  non local Contribution for L=           1  read in
    real space projection operators read in
  non local Contribution for L=           1  read in
    real space projection operators read in
  non local Contribution for L=           2  read in
    real space projection operators read in
  non local Contribution for L=           2  read in
    real space projection operators read in
  non local Contribution for L=           0  read in
    real space projection operators read in
  non local Contribution for L=           0  read in
    real space projection operators read in
    PAW grid and wavefunctions read in
 
   number of l-projection  operators is LMAX  =           6
   number of lm-projection operators is LMMAX =          18
 
 POTCAR:    PAW_PBE O 08Apr2002                   
   VRHFIN =O: s2p4                                                              
   LEXCH  = PE                                                                  
   EATOM  =   432.3788 eV,   31.7789 Ry                                         
                                                                                
   TITEL  = PAW_PBE O 08Apr2002                                                 
   LULTRA =        F    use ultrasoft PP ?                                      
   IUNSCR =        1    unscreen: 0-lin 1-nonlin 2-no                           
   RPACOR =    1.200    partial core radius                                     
   POMASS =   16.000; ZVAL   =    6.000    mass and valenz                      
   RCORE  =    1.520    outmost cutoff radius                                   
   RWIGS  =    1.550; RWIGS  =    0.820    wigner-seitz radius (au A)           
   ENMAX  =  400.000; ENMIN  =  300.000 eV                                      
   ICORE  =        2    local potential                                         
   LCOR   =        T    correct aug charges                                     
   LPAW   =        T    paw PP                                                  
   EAUG   =  605.392                                                            
   DEXC   =    0.000                                                            
   RMAX   =    1.553    core radius for proj-oper                               
   RAUG   =    1.300    factor for augmentation sphere                          
   RDEP   =    1.550    radius for radial grids                                 
   RDEPT  =    1.329    core radius for aug-charge                              
                                                                                
   Atomic configuration                                                         
    4 entries                                                                   
     n  l   j            E        occ.                                          
     1  0  0.50      -514.6923   2.0000                                         
     2  0  0.50       -23.9615   2.0000                                         
     2  1  0.50        -9.0305   4.0000                                         
     3  2  1.50        -9.5241   0.0000                                         
   Description                                                                  
     l       E           TYP  RCUT    TYP  RCUT                                 
     0    -23.9615318     23  1.200                                             
     0     -9.5240782     23  1.200                                             
     1     -9.0304911     23  1.520                                             
     1      8.1634956     23  1.520                                             
     2     -9.5240782      7  1.500                                             
  local pseudopotential read in
  partial core-charges read in
  partial kinetic energy density read in
  kinetic energy density of atom read in
  atomic valenz-charges read in
  non local Contribution for L=           0  read in
    real space projection operators read in
  non local Contribution for L=           0  read in
    real space projection operators read in
  non local Contribution for L=           1  read in
    real space projection operators read in
  non local Contribution for L=           1  read in
    real space projection operators read in
    PAW grid and wavefunctions read in
 
   number of l-projection  operators is LMAX  =           4
   number of lm-projection operators is LMMAX =           8
 
 POTCAR:    PAW_PBE F 08Apr2002                   
   VRHFIN =F: s2p5                                                              
   LEXCH  = PE                                                                  
   EATOM  =   659.6475 eV,   48.4827 Ry                                         
                                                                                
   TITEL  = PAW_PBE F 08Apr2002                                                 
   LULTRA =        F    use ultrasoft PP ?                                      
   IUNSCR =        1    unscreen: 0-lin 1-nonlin 2-no                           
   RPACOR =    1.200    partial core radius                                     
   POMASS =   18.998; ZVAL   =    7.000    mass and valenz                      
   RCORE  =    1.520    outmost cutoff radius                                   
   RWIGS  =    1.500; RWIGS  =    0.794    wigner-seitz radius (au A)           
   ENMAX  =  400.000; ENMIN  =  300.000 eV                                      
   ICORE  =        2    local potential                                         
   LCOR   =        T    correct aug charges                                     
   LPAW   =        T    paw PP                                                  
   EAUG   =  613.614                                                            
   RMAX   =    1.555    core radius for proj-oper                               
   RAUG   =    1.300    factor for augmentation sphere                          
   RDEP   =    1.539    radius for radial grids                                 
   RDEPT  =    1.299    core radius for aug-charge                              
                                                                                
   Atomic configuration                                                         
    4 entries                                                                   
     n  l   j            E        occ.                                          
     1  0  0.50      -663.3661   2.0000                                         
     2  0  0.50       -29.8995   2.0000                                         
     2  1  0.50       -11.1114   5.0000                                         
     3  2  1.50       -10.8847   0.0000                                         
   Description                                                                  
     l       E           TYP  RCUT    TYP  RCUT                                 
     0    -29.8995018     23  1.200                                             
     0     -9.5240782     23  1.200                                             
     1    -11.1113914     23  1.520                                             
     1      1.3605826     23  1.520                                             
     2    -10.8846608      7  1.500                                             
  local pseudopotential read in
  partial core-charges read in
  partial kinetic energy density read in
  atomic valenz-charges read in
  non local Contribution for L=           0  read in
    real space projection operators read in
  non local Contribution for L=           0  read in
    real space projection operators read in
  non local Contribution for L=           1  read in
    real space projection operators read in
  non local Contribution for L=           1  read in
    real space projection operators read in
    PAW grid and wavefunctions read in
 
   number of l-projection  operators is LMAX  =           4
   number of lm-projection operators is LMMAX =           8
 
 Optimization of the real space projectors (new method)

 maximal supplied QI-value         = 22.11
 optimisation between [QCUT,QGAM] = [ 11.28, 22.77] = [ 35.61,145.23] Ry 
 Optimized for a Real-space Cutoff    1.31 Angstroem

   l    n(q)    QCUT    max X(q) W(low)/X(q) W(high)/X(q)  e(spline) 
   0      9    11.276    10.506    0.19E-04    0.17E-04    0.32E-07
   0      9    11.276     8.367    0.38E-04    0.40E-04    0.65E-07
   1      8    11.276     8.983    0.55E-04    0.98E-04    0.20E-06
 Optimization of the real space projectors (new method)

 maximal supplied QI-value         = 15.12
 optimisation between [QCUT,QGAM] = [ 11.34, 22.83] = [ 36.00,145.93] Ry 
 Optimized for a Real-space Cutoff    1.56 Angstroem

   l    n(q)    QCUT    max X(q) W(low)/X(q) W(high)/X(q)  e(spline) 
   1     10    11.338     4.216    0.27E-04    0.12E-04    0.66E-07
   1     10    11.338     5.422    0.81E-04    0.24E-04    0.19E-06
   2     10    11.338    72.084    0.64E-04    0.21E-03    0.51E-06
   2     10    11.338    65.965    0.63E-04    0.21E-03    0.50E-06
   0     11    11.338    41.531    0.33E-04    0.54E-04    0.13E-06
   0     11    11.338    16.290    0.26E-04    0.41E-04    0.11E-06
 Optimization of the real space projectors (new method)

 maximal supplied QI-value         = 24.76
 optimisation between [QCUT,QGAM] = [ 11.39, 22.77] = [ 36.31,145.25] Ry 
 Optimized for a Real-space Cutoff    1.20 Angstroem

   l    n(q)    QCUT    max X(q) W(low)/X(q) W(high)/X(q)  e(spline) 
   0      8    11.387    20.381    0.89E-04    0.31E-03    0.27E-06
   0      8    11.387    15.268    0.93E-04    0.32E-03    0.29E-06
   1      8    11.387     5.964    0.53E-04    0.28E-03    0.29E-06
   1      8    11.387     5.382    0.37E-04    0.22E-03    0.26E-06
 Optimization of the real space projectors (new method)

 maximal supplied QI-value         = 24.76
 optimisation between [QCUT,QGAM] = [ 11.39, 22.77] = [ 36.31,145.25] Ry 
 Optimized for a Real-space Cutoff    1.20 Angstroem

   l    n(q)    QCUT    max X(q) W(low)/X(q) W(high)/X(q)  e(spline) 
   0      8    11.387    14.049    0.69E-04    0.23E-03    0.18E-06
   0      8    11.387     8.945    0.88E-04    0.30E-03    0.26E-06
   1      8    11.387     7.086    0.62E-04    0.27E-03    0.27E-06
   1      8    11.387     6.747    0.46E-04    0.23E-03    0.25E-06

 ----------------------------------------------------------------------------- 
|                                                                             |
|  ADVICE TO THIS USER RUNNING 'VASP/VAMP'   (HEAR YOUR MASTER'S VOICE ...):  |
|                                                                             |
|      You enforced a specific xc-type in the INCAR file,                     |
|      a different type was found on the POTCAR file                          |
|          I HOPE YOU KNOW, WHAT YOU ARE  DOING                               |
|                                                                             |
 ----------------------------------------------------------------------------- 

  PAW_PBE Li_sv 10Sep2004               :
 energy of atom  1       EATOM= -202.7858
 kinetic energy error for atom=    0.0143 (will be added to EATOM!!)
  PAW_PBE Ti_pv 07Sep2000               :
 energy of atom  2       EATOM=-1042.5995
 kinetic energy error for atom=    0.0024 (will be added to EATOM!!)
  PAW_PBE O 08Apr2002                   :
 energy of atom  3       EATOM= -432.3788
 kinetic energy error for atom=    0.0224 (will be added to EATOM!!)
  PAW_PBE F 08Apr2002                   :
 energy of atom  4       EATOM= -659.6475
 kinetic energy error for atom=    0.0354 (will be added to EATOM!!)
 
 
 POSCAR: config 62                               
  positions in direct lattice
  velocities in cartesian coordinates
 exchange correlation table for  LEXCH =       14
   RHO(1)=    0.500       N(1)  =     2000
   RHO(2)=  100.500       N(2)  =     4000

 VTST: version 3.2, (02/03/18)

 CHAIN: initializing optimizer
 
 OPT: Using VASP QUASI-newton optimizer
 CHAIN: Read ICHAIN            0
 
 POSCAR: config 62                               
  positions in direct lattice
  velocities in cartesian coordinates
 


--------------------------------------------------------------------------------------------------------


 ion  position               nearest neighbor table
   1  0.935  0.874  0.373- 119 1.97 147 1.97  67 2.02 227 2.06   3 2.87
   2  0.995  0.995  0.995- 118 1.87  68 1.88 103 1.89 171 2.03 212 2.03 130 2.04
   3  0.999  0.997  0.498-  67 1.96 119 1.98 131 1.99 172 2.02 193 2.03 213 2.07   1 2.87
   4  0.006  0.496  0.997-  89 1.84 117 1.86 138 1.93 132 1.98 214 2.01 194 2.03
   5  0.994  0.505  0.507-  66 1.83 104 1.84 215 1.92 223 2.00 173 2.02 137 2.03
   6  0.494  0.993  0.002- 101 1.83 121 1.85 140 1.96 133 1.97 216 2.02 174 2.03
   7  0.502  0.009  0.499- 112 1.78 191 1.91 134 1.92 139 1.93 175 1.94 225 2.04
   8  0.504  0.495  0.996-  70 1.88 120 1.89  90 1.89 192 2.03 135 2.04 217 2.06
   9  0.492  0.499  0.496- 102 1.81  69 1.86 224 1.99 218 2.00 136 2.01 176 2.07
  10  0.006  0.005  0.257-  67 1.83  91 1.84 219 1.93 130 2.00 227 2.03 197 2.10
  11  0.001  0.008  0.758-  68 1.79 113 1.84 177 1.95 198 1.99 228 2.04 131 2.06
  12  0.993  0.492  0.251- 107 1.82 122 1.85 137 1.93 132 1.96 220 2.01 178 2.03
  13  0.993  0.500  0.741- 108 1.82  66 1.83 226 1.93 221 1.97 138 2.03 179 2.05
  14  0.505  0.009  0.252- 114 1.82  92 1.84 133 1.93 139 1.99 195 2.00 231 2.06
  15  0.493  0.006  0.751- 105 1.81 115 1.84 140 1.94 134 2.00 232 2.02 180 2.04
  16  0.492  0.496  0.258-  69 1.82 106 1.84 229 1.96 222 2.01 135 2.02 181 2.05
  17  0.501  0.504  0.759-  70 1.80 116 1.88 182 1.95 196 1.97 230 2.04 136 2.08
  18  0.996  0.258  0.001- 117 1.82 110 1.88 141 1.97 146 1.97 183 2.01 212 2.02
  19  0.998  0.251  0.491-  74 1.78 213 1.90 223 1.94 184 1.94 202 1.95 142 2.01
  20  0.999  0.758  0.004- 118 1.80  71 1.86 203 1.96 185 1.98 148 2.01 214 2.06
  21  0.996  0.758  0.508- 119 1.77  72 1.84 204 1.98 186 1.99 215 2.05 147 2.12
  22  0.496  0.258  0.002- 120 1.80 109 1.85 150 1.96 143 1.99 187 2.04 216 2.08
  23  0.509  0.246  0.498-  93 1.81 112 1.91 144 1.93 149 1.95 224 1.98 199 2.01
  24  0.507  0.756  0.999-  94 1.83 121 1.84 152 1.95 145 2.00 217 2.02 200 2.03
  25  0.508  0.753  0.509-  73 1.79  95 1.84 218 1.97 225 1.97 201 2.02 151 2.09
  26  0.999  0.259  0.255- 122 1.79  74 1.87 209 1.95 188 1.97 141 1.99 219 2.03
  27  0.007  0.243  0.747- 113 1.81  96 1.83 142 1.97 146 1.98 226 2.05 210 2.05
  28  0.008  0.745  0.240-  71 1.79  97 1.82 220 1.93 227 2.01 147 2.08 211 2.09
  29  0.993  0.751  0.743-  72 1.82 111 1.84 228 1.93 221 1.98 148 2.02 189 2.03
  30  0.508  0.241  0.252-  98 1.82 114 1.83 143 1.94 149 1.97 229 2.02 205 2.03
  31  0.508  0.243  0.751-  99 1.84 115 1.84 150 1.93 144 1.99 206 2.02 230 2.03
  32  0.506  0.751  0.253- 100 1.80 151 1.93 231 1.94 222 1.94 145 1.95 207 2.01
  33  0.503  0.742  0.744- 116 1.81  73 1.85 190 1.94 208 1.97 152 2.04 232 2.07
  34  0.255  0.998  0.007-  75 1.84 101 1.86 246 1.94 233 1.96 171 2.02 157 2.05
  35  0.250  0.993  0.505- 128 1.84  76 1.85 172 1.91 191 2.01 156 2.03 234 2.04
  36  0.244  0.508  0.997- 123 1.82  89 1.84 159 1.93 153 1.98 192 2.02 245 2.04
  37  0.255  0.495  0.507-  77 1.85 102 1.88 127 1.88 158 2.05 173 2.05 235 2.05
  38  0.758  0.999  0.995- 103 1.79  81 1.87 236 1.96 249 1.96 174 2.05 154 2.06
  39  0.750  0.007  0.494- 124 1.84  80 1.85 193 1.90 155 2.00 175 2.00 250 2.05
  40  0.741  0.502  0.005-  90 1.80  78 1.87 237 1.96 247 1.96 161 2.02 194 2.06
  41  0.755  0.499  0.506-  79 1.84 104 1.85 248 1.96 238 1.99 176 2.02 160 2.02
  42  0.244  0.002  0.244-  75 1.83  91 1.85 239 1.94 252 1.97 156 2.04 195 2.07
  43  0.257  0.998  0.742-  76 1.83 105 1.84 253 1.93 240 1.97 177 2.03 157 2.04
  44  0.255  0.491  0.252- 129 1.83 106 1.84 158 1.93 153 1.97 241 2.05 178 2.05
  45  0.246  0.506  0.741-  77 1.79 125 1.83 179 1.95 196 1.98 251 2.03 159 2.06
  46  0.744  0.000  0.257-  92 1.85  80 1.86 256 1.96 242 1.96 197 2.01 154 2.01
  47  0.749  0.006  0.757-  81 1.82 126 1.83 180 1.95 198 1.97 257 2.04 155 2.09
  48  0.755  0.499  0.243-  78 1.81 107 1.86 254 1.96 243 1.96 181 2.03 160 2.04
  49  0.757  0.499  0.742- 108 1.83  79 1.83 255 1.94 244 1.98 182 2.03 161 2.04
  50  0.257  0.252  0.006- 109 1.83  82 1.86 245 1.94 233 1.97 168 2.02 183 2.06
  51  0.254  0.257  0.505- 127 1.81  83 1.85 199 1.97 184 2.02 167 2.04 234 2.06
  52  0.253  0.742  0.994- 123 1.82  86 1.84 200 1.95 185 1.97 246 2.04 162 2.04
  53  0.252  0.756  0.494-  85 1.84 128 1.85 201 1.97 186 1.99 235 2.01 163 2.04
  54  0.757  0.250  0.008- 110 1.81  84 1.86 236 1.94 247 1.94 170 2.03 187 2.05
  55  0.742  0.243  0.496- 124 1.82  93 1.85 169 1.93 164 1.96 248 2.03 202 2.05
  56  0.742  0.750  0.993-  94 1.82  88 1.83 237 1.95 249 1.95 203 2.03 165 2.06
  57  0.742  0.753  0.494-  95 1.82  87 1.87 250 1.95 238 1.97 166 2.02 204 2.04
  58  0.250  0.258  0.243- 129 1.82  82 1.83 205 1.97 188 2.01 167 2.03 239 2.04
  59  0.244  0.252  0.743-  83 1.83  96 1.85 251 1.94 240 1.98 168 2.04 206 2.05
  60  0.244  0.747  0.257-  85 1.83  97 1.85 241 1.94 252 1.98 162 2.04 207 2.06
  61  0.248  0.742  0.757- 125 1.81  86 1.84 189 1.94 208 1.98 253 2.04 163 2.05
  62  0.741  0.249  0.243-  84 1.79  98 1.84 254 1.94 242 1.95 209 2.05 169 2.06
  63  0.744  0.242  0.752- 126 1.82  99 1.84 170 1.94 164 2.00 210 2.02 255 2.05
  64  0.745  0.750  0.258-  87 1.83 100 1.89 243 1.94 256 1.95 211 2.00 165 2.03
  65  0.758  0.751  0.756- 111 1.82  88 1.84 257 1.94 244 1.97 190 2.05 166 2.06
  66  0.010  0.503  0.624-  13 1.83   5 1.83
  67  0.981  0.996  0.372-  10 1.83   3 1.96   1 2.02
  68  0.990  0.004  0.874-  11 1.79   2 1.88
  69  0.497  0.488  0.376-  16 1.82   9 1.86
  70  0.492  0.492  0.875-  17 1.80   8 1.88
  71  0.008  0.746  0.124-  28 1.79  20 1.86
  72  0.009  0.749  0.626-  29 1.82  21 1.84
  73  0.511  0.745  0.625-  25 1.79  33 1.85
  74  0.989  0.249  0.376-  19 1.78  26 1.87
  75  0.244  0.001  0.126-  42 1.83  34 1.84
  76  0.242  0.002  0.624-  43 1.83  35 1.85
  77  0.238  0.495  0.626-  45 1.79  37 1.85
  78  0.747  0.501  0.126-  48 1.81  40 1.87
  79  0.743  0.502  0.624-  49 1.83  41 1.84
  80  0.762  0.990  0.376-  39 1.85  46 1.86
  81  0.756  0.992  0.874-  47 1.82  38 1.87
  82  0.241  0.251  0.125-  58 1.83  50 1.86
  83  0.246  0.251  0.624-  59 1.83  51 1.85
  84  0.738  0.247  0.126-  62 1.79  54 1.86
  85  0.260  0.745  0.375-  60 1.83  53 1.84
  86  0.261  0.750  0.876-  52 1.84  61 1.84
  87  0.762  0.761  0.374-  64 1.83  57 1.87
  88  0.758  0.758  0.876-  56 1.83  65 1.84
  89  0.124  0.508  0.992-   4 1.84  36 1.84
  90  0.625  0.512  0.995-  40 1.80   8 1.89
  91  0.125  0.008  0.261-  10 1.84  42 1.85
  92  0.624  0.008  0.262-  14 1.84  46 1.85
  93  0.625  0.264  0.488-  23 1.81  55 1.85
  94  0.624  0.738  0.993-  56 1.82  24 1.83
  95  0.625  0.767  0.488-  57 1.82  25 1.84
  96  0.125  0.258  0.755-  27 1.83  59 1.85
  97  0.125  0.745  0.259-  28 1.82  60 1.85
  98  0.625  0.238  0.266-  30 1.82  62 1.84
  99  0.626  0.257  0.755-  63 1.84  31 1.84
 100  0.623  0.745  0.261-  32 1.80  64 1.89
 101  0.376  0.994  0.005-   6 1.83  34 1.86
 102  0.376  0.511  0.506-   9 1.81  37 1.88
 103  0.873  0.995  0.010-  38 1.79   2 1.89
 104  0.875  0.511  0.502-   5 1.84  41 1.85
 105  0.376  0.003  0.741-  15 1.81  43 1.84
 106  0.373  0.490  0.246-  44 1.84  16 1.84
 107  0.875  0.490  0.248-  12 1.82  48 1.86
 108  0.875  0.512  0.743-  13 1.82  49 1.83
 109  0.376  0.253  0.009-  50 1.83  22 1.85
 110  0.874  0.254  0.010-  54 1.81  18 1.88
 111  0.874  0.740  0.741-  65 1.82  29 1.84
 112  0.515  0.123  0.486-   7 1.78  23 1.91
 113  0.003  0.126  0.744-  27 1.81  11 1.84
 114  0.488  0.125  0.267-  14 1.82  30 1.83
 115  0.506  0.124  0.757-  15 1.84  31 1.84
 116  0.506  0.625  0.757-  33 1.81  17 1.88
 117  0.005  0.375  0.003-  18 1.82   4 1.86
 118  0.007  0.874  0.999-  20 1.80   2 1.87
 119  0.977  0.870  0.493-  21 1.77   1 1.97   3 1.98
 120  0.508  0.374  0.012-  22 1.80   8 1.89
 121  0.509  0.875  0.011-  24 1.84   6 1.85
 122  0.012  0.374  0.247-  26 1.79  12 1.85
 123  0.260  0.625  0.004-  52 1.82  36 1.82
 124  0.734  0.125  0.493-  55 1.82  39 1.84
 125  0.242  0.625  0.749-  61 1.81  45 1.83
 126  0.746  0.124  0.752-  63 1.82  47 1.83
 127  0.260  0.374  0.493-  51 1.81  37 1.88
 128  0.264  0.875  0.499-  35 1.84  53 1.85
 129  0.237  0.374  0.257-  58 1.82  44 1.83
 130  0.007  1.000  0.127-  10 2.00   2 2.04
 131  0.012  0.995  0.626-   3 1.99  11 2.06
 132  0.004  0.507  0.125-  12 1.96   4 1.98
 133  0.508  0.014  0.127-  14 1.93   6 1.97
 134  0.514  0.007  0.622-   7 1.92  15 2.00
 135  0.504  0.511  0.128-  16 2.02   8 2.04
 136  0.510  0.506  0.625-   9 2.01  17 2.08
 137  0.999  0.496  0.376-  12 1.93   5 2.03
 138  0.992  0.499  0.872-   4 1.93  13 2.03
 139  0.488  0.983  0.377-   7 1.93  14 1.99
 140  0.498  0.989  0.875-  15 1.94   6 1.96
 141  0.012  0.245  0.127-  18 1.97  26 1.99
 142  0.006  0.258  0.621-  27 1.97  19 2.01
 143  0.513  0.234  0.127-  30 1.94  22 1.99
 144  0.507  0.239  0.623-  23 1.93  31 1.99
 145  0.506  0.740  0.128-  32 1.95  24 2.00
 146  0.990  0.250  0.874-  18 1.97  27 1.98
 147  0.981  0.755  0.372-   1 1.97  28 2.08  21 2.12
 148  0.991  0.748  0.875-  20 2.01  29 2.02
 149  0.486  0.267  0.375-  23 1.95  30 1.97
 150  0.493  0.260  0.875-  31 1.93  22 1.96
 151  0.486  0.762  0.376-  32 1.93  25 2.09
 152  0.488  0.760  0.874-  24 1.95  33 2.04
 153  0.241  0.493  0.125-  44 1.97  36 1.98
 154  0.740  0.010  0.127-  46 2.01  38 2.06
 155  0.734  0.002  0.623-  39 2.00  47 2.09
 156  0.265  0.003  0.375-  35 2.03  42 2.04
 157  0.255  0.997  0.874-  43 2.04  34 2.05
 158  0.250  0.511  0.375-  44 1.93  37 2.05
 159  0.261  0.499  0.874-  36 1.93  45 2.06
 160  0.750  0.497  0.375-  41 2.02  48 2.04
 161  0.755  0.499  0.874-  40 2.02  49 2.04
 162  0.244  0.755  0.125-  60 2.04  52 2.04
 163  0.241  0.752  0.625-  53 2.04  61 2.05
 164  0.744  0.251  0.623-  55 1.96  63 2.00
 165  0.743  0.742  0.127-  64 2.03  56 2.06
 166  0.738  0.745  0.624-  57 2.02  65 2.06
 167  0.259  0.243  0.374-  58 2.03  51 2.04
 168  0.258  0.250  0.875-  50 2.02  59 2.04
 169  0.767  0.254  0.374-  55 1.93  62 2.06
 170  0.759  0.254  0.876-  63 1.94  54 2.03
 171  0.126  0.007  0.993-  34 2.02   2 2.03
 172  0.128  0.987  0.484-  35 1.91   3 2.02
 173  0.123  0.491  0.490-   5 2.02  37 2.05
 174  0.625  0.007  0.996-   6 2.03  38 2.05
 175  0.623  0.980  0.489-   7 1.94  39 2.00
 176  0.625  0.488  0.496-  41 2.02   9 2.07
 177  0.126  0.993  0.759-  11 1.95  43 2.03
 178  0.123  0.512  0.253-  12 2.03  44 2.05
 179  0.123  0.489  0.764-  45 1.95  13 2.05
 180  0.624  0.989  0.755-  47 1.95  15 2.04
 181  0.625  0.508  0.254-  48 2.03  16 2.05
 182  0.627  0.489  0.758-  17 1.95  49 2.03
 183  0.125  0.244  0.990-  18 2.01  50 2.06
 184  0.124  0.261  0.490-  19 1.94  51 2.02
 185  0.125  0.740  0.990-  52 1.97  20 1.98
 186  0.124  0.762  0.489-  53 1.99  21 1.99
 187  0.626  0.243  0.989-  22 2.04  54 2.05
 188  0.124  0.233  0.261-  26 1.97  58 2.01
 189  0.123  0.760  0.762-  61 1.94  29 2.03
 190  0.626  0.760  0.761-  33 1.94  65 2.05
 191  0.378  0.015  0.511-   7 1.91  35 2.01
 192  0.373  0.491  0.010-  36 2.02   8 2.03
 193  0.870  0.019  0.519-  39 1.90   3 2.03
 194  0.874  0.493  0.003-   4 2.03  40 2.06
 195  0.378  0.991  0.243-  14 2.00  42 2.07
 196  0.375  0.504  0.739-  17 1.97  45 1.98
 197  0.872  0.990  0.238-  46 2.01  10 2.10
 198  0.874  0.001  0.734-  47 1.97  11 1.99
 199  0.379  0.235  0.505-  51 1.97  23 2.01
 200  0.376  0.761  0.012-  52 1.95  24 2.03
 201  0.378  0.738  0.510-  53 1.97  25 2.02
 202  0.874  0.238  0.510-  19 1.95  55 2.05
 203  0.872  0.760  0.010-  20 1.96  56 2.03
 204  0.870  0.730  0.512-  21 1.98  57 2.04
 205  0.378  0.261  0.240-  58 1.97  30 2.03
 206  0.377  0.245  0.744-  31 2.02  59 2.05
 207  0.377  0.755  0.241-  32 2.01  60 2.06
 208  0.375  0.748  0.739-  33 1.97  61 1.98
 209  0.874  0.261  0.239-  26 1.95  62 2.05
 210  0.875  0.248  0.741-  63 2.02  27 2.05
 211  0.873  0.758  0.240-  64 2.00  28 2.09
 212  0.997  0.127  0.003-  18 2.02   2 2.03
 213  0.014  0.129  0.505-  19 1.90   3 2.07
 214  0.988  0.625  0.996-   4 2.01  20 2.06
 215  0.012  0.627  0.490-   5 1.92  21 2.05
 216  0.498  0.124  0.991-   6 2.02  22 2.08
 217  0.486  0.627  0.996-  24 2.02   8 2.06
 218  0.513  0.627  0.489-  25 1.97   9 2.00
 219  0.986  0.128  0.247-  10 1.93  26 2.03
 220  0.989  0.622  0.256-  28 1.93  12 2.01
 221  0.014  0.625  0.756-  13 1.97  29 1.98
 222  0.492  0.626  0.262-  32 1.94  16 2.01
 223  0.989  0.376  0.499-  19 1.94   5 2.00
 224  0.488  0.372  0.513-  23 1.98   9 1.99
 225  0.485  0.879  0.509-  25 1.97   7 2.04
 226  0.990  0.375  0.750-  13 1.93  27 2.05
 227  0.998  0.874  0.255-  28 2.01  10 2.03   1 2.06
 228  0.993  0.876  0.752-  29 1.93  11 2.04
 229  0.511  0.371  0.238-  16 1.96  30 2.02
 230  0.494  0.373  0.739-  31 2.03  17 2.04
 231  0.505  0.876  0.241-  32 1.94  14 2.06
 232  0.497  0.875  0.743-  15 2.02  33 2.07
 233  0.253  0.125  0.995-  34 1.96  50 1.97
 234  0.241  0.125  0.497-  35 2.04  51 2.06
 235  0.239  0.627  0.505-  53 2.01  37 2.05
 236  0.752  0.125  0.994-  54 1.94  38 1.96
 237  0.766  0.626  0.996-  56 1.95  40 1.96
 238  0.734  0.626  0.493-  57 1.97  41 1.99
 239  0.264  0.126  0.251-  42 1.94  58 2.04
 240  0.245  0.125  0.755-  43 1.97  59 1.98
 241  0.257  0.623  0.240-  60 1.94  44 2.05
 242  0.766  0.125  0.258-  62 1.95  46 1.96
 243  0.758  0.625  0.257-  64 1.94  48 1.96
 244  0.735  0.625  0.754-  65 1.97  49 1.98
 245  0.243  0.376  0.995-  50 1.94  36 2.04
 246  0.239  0.873  0.000-  34 1.94  52 2.04
 247  0.740  0.375  0.998-  54 1.94  40 1.96
 248  0.763  0.372  0.500-  41 1.96  55 2.03
 249  0.738  0.875  0.014-  56 1.95  38 1.96
 250  0.767  0.876  0.510-  57 1.95  39 2.05
 251  0.259  0.376  0.756-  59 1.94  45 2.03
 252  0.247  0.875  0.253-  42 1.97  60 1.98
 253  0.254  0.873  0.748-  43 1.93  61 2.04
 254  0.737  0.374  0.253-  62 1.94  48 1.96
 255  0.759  0.374  0.749-  49 1.94  63 2.05
 256  0.743  0.875  0.237-  64 1.95  46 1.96
 257  0.756  0.875  0.739-  65 1.94  47 2.04
 

IMPORTANT INFORMATION: All symmetrisations will be switched off!
NOSYMM: (Re-)initialisation of all symmetry stuff for point group C_1.

 
 
 KPOINTS: Title                                   

Automatic generation of k-mesh.
Space group operators:
 irot       det(A)        alpha          n_x          n_y          n_z        tau_x        tau_y        tau_z
    1     1.000000     0.000001     1.000000     0.000000     0.000000     0.000000     0.000000     0.000000
 
 Subroutine IBZKPT returns following result:
 ===========================================
 
 Found      4 irreducible k-points:
 
 Following reciprocal coordinates:
            Coordinates               Weight
  0.250000  0.250000  0.250000      2.000000
 -0.250000  0.250000  0.250000      2.000000
  0.250000 -0.250000  0.250000      2.000000
 -0.250000 -0.250000  0.250000      2.000000
 
 Following cartesian coordinates:
            Coordinates               Weight
  0.016206  0.016206  0.016206      2.000000
 -0.016206  0.016206  0.016206      2.000000
  0.016206 -0.016206  0.016206      2.000000
 -0.016206 -0.016206  0.016206      2.000000
 


--------------------------------------------------------------------------------------------------------




 Dimension of arrays:
   k-points           NKPTS =      4   k-points in BZ     NKDIM =      4   number of bands    NBANDS=   1164
   number of dos      NEDOS =   3001   number of ions     NIONS =    257
   non local maximal  LDIM  =      6   non local SUM 2l+1 LMDIM =     18
   total plane-waves  NPLWV = ******
   max r-space proj   IRMAX =   7595   max aug-charges    IRDMAX= 146383
   dimension x,y,z NGX =   120 NGY =  120 NGZ =  120
   dimension x,y,z NGXF=   240 NGYF=  240 NGZF=  240
   support grid    NGXF=   480 NGYF=  480 NGZF=  480
   ions per type =               1  64  64 128
   NGX,Y,Z   is equivalent  to a cutoff of  12.93, 12.93, 12.93 a.u.
   NGXF,Y,Z  is equivalent  to a cutoff of  25.86, 25.86, 25.86 a.u.

 SYSTEM =  LTO                                     
 POSCAR =  config 62                               

 Startparameter for this run:
   NWRITE =      2    write-flag & timer
   PREC   = accura    normal or accurate (medium, high low for compatibility)
   ISTART =      1    job   : 0-new  1-cont  2-samecut
   ICHARG =      0    charge: 1-file 2-atom 10-const
   ISPIN  =      2    spin polarized calculation?
   LNONCOLLINEAR =      F non collinear calculations
   LSORBIT =      F    spin-orbit coupling
   INIWAV =      1    electr: 0-lowe 1-rand  2-diag
   LASPH  =      T    aspherical Exc in radial PAW
   METAGGA=      F    non-selfconsistent MetaGGA calc.

 Electronic Relaxation 1
   ENCUT  =  500.0 eV  36.75 Ry    6.06 a.u.  28.13 28.13 28.13*2*pi/ulx,y,z
   ENINI  =  500.0     initial cutoff
   ENAUG  =  628.9 eV  augmentation charge cutoff
   NELM   =     60;   NELMIN=  2; NELMDL=  0     # of ELM steps 
   EDIFF  = 0.1E-05   stopping-criterion for ELM
   LREAL  =      T    real-space projection
   NLSPLINE    = F    spline interpolate recip. space projectors
   LCOMPAT=      F    compatible to vasp.4.4
   GGA_COMPAT  = T    GGA compatible to vasp.4.4-vasp.4.6
   LMAXPAW     = -100 max onsite density
   LMAXMIX     =    4 max onsite mixed and CHGCAR
   VOSKOWN=      0    Vosko Wilk Nusair interpolation
   ROPT   =   -0.00010  -0.00010  -0.00010  -0.00010
 Ionic relaxation
   EDIFFG = -.5E-01   stopping-criterion for IOM
   NSW    =    100    number of steps for IOM
   NBLOCK =      1;   KBLOCK =    100    inner block; outer block 
   IBRION =      1    ionic relax: 0-MD 1-quasi-New 2-CG
   NFREE  =      0    steps in history (QN), initial steepest desc. (CG)
   ISIF   =      2    stress and relaxation
   IWAVPR =     11    prediction:  0-non 1-charg 2-wave 3-comb
   ISYM   =      0    0-nonsym 1-usesym 2-fastsym
   LCORR  =      T    Harris-Foulkes like correction to forces

   POTIM  = 0.5000    time-step for ionic-motion
   TEIN   =    0.0    initial temperature
   TEBEG  =    0.0;   TEEND  =   0.0 temperature during run
   SMASS  =  -3.00    Nose mass-parameter (am)
   estimated Nose-frequenzy (Omega)   =  0.10E-29 period in steps =****** mass=  -0.544E-26a.u.
   SCALEE = 1.0000    scale energy and forces
   NPACO  =    256;   APACO  = 16.0  distance and # of slots for P.C.
   PSTRESS=    0.0 pullay stress

  Mass of Ions in am
   POMASS =   7.01 47.88 16.00 19.00
  Ionic Valenz
   ZVAL   =   3.00 10.00  6.00  7.00
  Atomic Wigner-Seitz radii
   RWIGS  =  -1.00 -1.00 -1.00 -1.00
  virtual crystal weights 
   VCA    =   1.00  1.00  1.00  1.00
   NELECT =    1923.0000    total number of electrons
   NUPDOWN=       1.0000    fix difference up-down

 DOS related values:
   EMIN   =  10.00;   EMAX   =-10.00  energy-range for DOS
   EFERMI =   0.00
   ISMEAR =     0;   SIGMA  =   0.01  broadening in eV -4-tet -1-fermi 0-gaus

 Electronic relaxation 2 (details)
   IALGO  =     38    algorithm
   LDIAG  =      T    sub-space diagonalisation (order eigenvalues)
   LSUBROT=      F    optimize rotation matrix (better conditioning)
   TURBO    =      0    0=normal 1=particle mesh
   IRESTART =      0    0=no restart 2=restart with 2 vectors
   NREBOOT  =      0    no. of reboots
   NMIN     =      0    reboot dimension
   EREF     =   0.00    reference energy to select bands
   IMIX   =      4    mixing-type and parameters
     AMIX     =   0.40;   BMIX     =  1.00
     AMIX_MAG =   1.60;   BMIX_MAG =  1.00
     AMIN     =   0.10
     WC   =   100.;   INIMIX=   1;  MIXPRE=   1;  MAXMIX= -45

 Intra band minimization:
   WEIMIN = 0.0010     energy-eigenvalue tresh-hold
   EBREAK =  0.21E-09  absolut break condition
   DEPER  =   0.30     relativ break condition  

   TIME   =   0.40     timestep for ELM

  volume/ion in A,a.u.               =      14.28        96.39
  Fermi-wavevector in a.u.,A,eV,Ry     =   1.319690  2.493853 23.695660  1.741582
  Thomas-Fermi vector in A             =   2.449570
 
 Write flags
   LWAVE        =      T    write WAVECAR
   LDOWNSAMPLE  =      F    k-point downsampling of WAVECAR
   LCHARG       =      T    write CHGCAR
   LVTOT        =      F    write LOCPOT, total local potential
   LVHAR        =      F    write LOCPOT, Hartree potential only
   LELF         =      F    write electronic localiz. function (ELF)
   LORBIT       =     11    0 simple, 1 ext, 2 COOP (PROOUT), +10 PAW based schemes


 Dipole corrections
   LMONO  =      F    monopole corrections only (constant potential shift)
   LDIPOL =      F    correct potential (dipole corrections)
   IDIPOL =      0    1-x, 2-y, 3-z, 4-all directions 
   EPSILON=  1.0000000 bulk dielectric constant

 LDA+U is selected, type is set to LDAUTYPE =  2
   angular momentum for each species LDAUL =    -1    2   -1   -1
   U (eV)           for each species LDAUU =   0.0  4.2  0.0  0.0
   J (eV)           for each species LDAUJ =   0.0  0.0  0.0  0.0
 Exchange correlation treatment:
   GGA     =    PS    GGA type
   LEXCH   =    14    internal setting for exchange type
   VOSKOWN=      0    Vosko Wilk Nusair interpolation
   LHFCALC =     F    Hartree Fock is set to
   LHFONE  =     F    Hartree Fock one center treatment
   AEXX    =    0.0000 exact exchange contribution

 Linear response parameters
   LEPSILON=     F    determine dielectric tensor
   LRPA    =     F    only Hartree local field effects (RPA)
   LNABLA  =     F    use nabla operator in PAW spheres
   LVEL    =     F    velocity operator in full k-point grid
   LINTERFAST=   F  fast interpolation
   KINTER  =     0    interpolate to denser k-point grid
   CSHIFT  =0.1000    complex shift for real part using Kramers Kronig
   OMEGAMAX=  -1.0    maximum frequency
   DEG_THRESHOLD= 0.2000000E-02 threshold for treating states as degnerate
   RTIME   =   -0.100 relaxation time in fs
  (WPLASMAI=    0.000 imaginary part of plasma frequency in eV, 0.658/RTIME)
   DFIELD  = 0.0000000 0.0000000 0.0000000 field for delta impulse in time
 
 Orbital magnetization related:
   ORBITALMAG=     F  switch on orbital magnetization
   LCHIMAG   =     F  perturbation theory with respect to B field
   DQ        =  0.001000  dq finite difference perturbation B field
   LLRAUG    =     F  two centre corrections for induced B field



--------------------------------------------------------------------------------------------------------


 quasi-Newton-method for relaxation of ions
 charge density and potential will be updated during run
 spin polarized calculation
 Variant of blocked Davidson
 Davidson routine will perform the subspace rotation
 perform sub-space diagonalisation
    after iterative eigenvector-optimisation
 modified Broyden-mixing scheme, WC =      100.0
 initial mixing is a Kerker type mixing with AMIX =  0.4000 and BMIX =      1.0000
 Hartree-type preconditioning will be used
 using additional bands          202
 real space projection scheme for non local part
 use partial core corrections
 calculate Harris-corrections to forces 
   (improved forces if not selfconsistent)
 use gradient corrections 
 use of overlap-Matrix (Vanderbilt PP)
 Gauss-broadening in eV      SIGMA  =   0.01


--------------------------------------------------------------------------------------------------------


  energy-cutoff  :      500.00
  volume of cell :     3671.03
      direct lattice vectors                 reciprocal lattice vectors
    15.426331000  0.000000000  0.000000000     0.064824228  0.000000000  0.000000000
     0.000000000 15.426331000  0.000000000     0.000000000  0.064824228  0.000000000
     0.000000000  0.000000000 15.426331000     0.000000000  0.000000000  0.064824228

  length of vectors
    15.426331000 15.426331000 15.426331000     0.064824228  0.064824228  0.064824228


 
 old parameters found on file WAVECAR:
  energy-cutoff  :      500.00
  volume of cell :     3671.03
      direct lattice vectors                 reciprocal lattice vectors
    15.426331000  0.000000000  0.000000000     0.064824228  0.000000000  0.000000000
     0.000000000 15.426331000  0.000000000     0.000000000  0.064824228  0.000000000
     0.000000000  0.000000000 15.426331000     0.000000000  0.000000000  0.064824228

  length of vectors

 
 k-points in units of 2pi/SCALE and weight: Title                                   
   0.01620606  0.01620606  0.01620606       0.250
  -0.01620606  0.01620606  0.01620606       0.250
   0.01620606 -0.01620606  0.01620606       0.250
  -0.01620606 -0.01620606  0.01620606       0.250
 
 k-points in reciprocal lattice and weights: Title                                   
   0.25000000  0.25000000  0.25000000       0.250
  -0.25000000  0.25000000  0.25000000       0.250
   0.25000000 -0.25000000  0.25000000       0.250
  -0.25000000 -0.25000000  0.25000000       0.250
 
 position of ions in fractional coordinates (direct lattice) 
   0.93496852  0.87402550  0.37277086
   0.99454337  0.99490771  0.99535765
   0.99861329  0.99668533  0.49780486
   0.00584419  0.49561696  0.99690145
   0.99387419  0.50512430  0.50699080
   0.49415009  0.99340783  0.00155695
   0.50165302  0.00941506  0.49853823
   0.50408661  0.49507447  0.99646057
   0.49168415  0.49935902  0.49577484
   0.00616400  0.00490259  0.25676172
   0.00082193  0.00770332  0.75827802
   0.99315951  0.49202424  0.25077903
   0.99250838  0.49986393  0.74119257
   0.50528503  0.00904399  0.25214586
   0.49267550  0.00584495  0.75057412
   0.49221149  0.49566924  0.25780219
   0.50104641  0.50381259  0.75921044
   0.99583501  0.25764212  0.00136518
   0.99839352  0.25054874  0.49056478
   0.99860802  0.75795778  0.00414887
   0.99593340  0.75769631  0.50834240
   0.49550827  0.25828189  0.00198781
   0.50926900  0.24607455  0.49764241
   0.50735645  0.75627405  0.99913453
   0.50771639  0.75299003  0.50916594
   0.99931028  0.25858685  0.25488907
   0.00736152  0.24308052  0.74734446
   0.00811846  0.74506775  0.24020999
   0.99284075  0.75059810  0.74334126
   0.50766328  0.24105587  0.25234597
   0.50752043  0.24340608  0.75141025
   0.50644442  0.75078265  0.25343484
   0.50263132  0.74155918  0.74429126
   0.25542104  0.99770533  0.00672397
   0.24974605  0.99324858  0.50526799
   0.24352811  0.50809727  0.99746652
   0.25473423  0.49479498  0.50661376
   0.75760017  0.99879088  0.99524554
   0.75029892  0.00725334  0.49435732
   0.74113864  0.50187463  0.00463429
   0.75534021  0.49926150  0.50580927
   0.24370985  0.00247044  0.24435285
   0.25654880  0.99841896  0.74217755
   0.25455471  0.49132058  0.25159261
   0.24620001  0.50632087  0.74094192
   0.74413097  0.00031329  0.25737129
   0.74850122  0.00574709  0.75745253
   0.75502923  0.49921299  0.24253892
   0.75711688  0.49942910  0.74218059
   0.25736570  0.25172194  0.00594985
   0.25363422  0.25731308  0.50489252
   0.25287610  0.74213322  0.99403684
   0.25224495  0.75604110  0.49358390
   0.75726593  0.25032359  0.00762858
   0.74205752  0.24298552  0.49600435
   0.74198804  0.74976689  0.99308367
   0.74159491  0.75307386  0.49393302
   0.25049998  0.25759870  0.24313831
   0.24379974  0.25240041  0.74336192
   0.24445333  0.74717350  0.25714954
   0.24784737  0.74183979  0.75724864
   0.74118615  0.24874779  0.24265702
   0.74407961  0.24236628  0.75180749
   0.74505013  0.75030962  0.25768256
   0.75816915  0.75110454  0.75630769
   0.01036281  0.50329157  0.62423578
   0.98122088  0.99633495  0.37218020
   0.99039663  0.00395292  0.87401534
   0.49673197  0.48830706  0.37570239
   0.49204404  0.49173330  0.87511239
   0.00751481  0.74573250  0.12395362
   0.00947825  0.74872145  0.62641697
   0.51144561  0.74462642  0.62474959
   0.98873299  0.24921360  0.37558192
   0.24442393  0.00087044  0.12568204
   0.24165695  0.00200832  0.62438868
   0.23758450  0.49497074  0.62557675
   0.74676362  0.50147168  0.12566160
   0.74252521  0.50155068  0.62426896
   0.76180890  0.99018631  0.37612492
   0.75592248  0.99236852  0.87422529
   0.24118344  0.25078013  0.12532745
   0.24624495  0.25054103  0.62445773
   0.73761415  0.24692412  0.12640765
   0.26040551  0.74522444  0.37479533
   0.26050234  0.75048661  0.87550038
   0.76186388  0.76116823  0.37442792
   0.75752307  0.75808414  0.87560342
   0.12413606  0.50837299  0.99168428
   0.62528286  0.51184563  0.99546635
   0.12511839  0.00817416  0.26108817
   0.62440897  0.00763709  0.26214853
   0.62451781  0.26393038  0.48771272
   0.62441042  0.73802147  0.99260682
   0.62459107  0.76651156  0.48838294
   0.12478203  0.25754666  0.75485996
   0.12484288  0.74459697  0.25934625
   0.62507726  0.23798728  0.26642299
   0.62589218  0.25721760  0.75498782
   0.62270676  0.74519619  0.26079746
   0.37572543  0.99443716  0.00512224
   0.37555997  0.51063154  0.50644668
   0.87282349  0.99471517  0.00968134
   0.87476943  0.51147625  0.50248503
   0.37593361  0.00347620  0.74129894
   0.37343813  0.49032449  0.24624342
   0.87498510  0.48955999  0.24834933
   0.87505034  0.51197152  0.74343350
   0.37600162  0.25337068  0.00904909
   0.87428160  0.25438386  0.01037042
   0.87436545  0.73951099  0.74133010
   0.51481699  0.12324427  0.48595078
   0.00348475  0.12605927  0.74354307
   0.48827561  0.12493495  0.26685423
   0.50627612  0.12412181  0.75705453
   0.50605029  0.62529661  0.75704750
   0.00547431  0.37502451  0.00268308
   0.00719664  0.87431569  0.99909359
   0.97710140  0.87010584  0.49306976
   0.50819103  0.37393870  0.01205555
   0.50917512  0.87478161  0.01090645
   0.01236142  0.37364131  0.24708377
   0.25953294  0.62494536  0.00421660
   0.73368550  0.12538428  0.49323826
   0.24153545  0.62479229  0.74917763
   0.74614530  0.12447571  0.75190962
   0.26042344  0.37361626  0.49343682
   0.26364809  0.87519456  0.49901674
   0.23730541  0.37412272  0.25713261
   0.00743856  0.99983784  0.12699569
   0.01225523  0.99450333  0.62616865
   0.00372056  0.50727021  0.12489164
   0.50845759  0.01360522  0.12710665
   0.51406179  0.00725979  0.62243063
   0.50382922  0.51068676  0.12800325
   0.50984091  0.50587993  0.62474809
   0.99882237  0.49646977  0.37562910
   0.99199152  0.49856445  0.87248719
   0.48772488  0.98307912  0.37695281
   0.49757609  0.98932537  0.87488253
   0.01208488  0.24542947  0.12714077
   0.00572939  0.25802913  0.62074587
   0.51339146  0.23391076  0.12719219
   0.50732225  0.23896723  0.62260804
   0.50596786  0.73955694  0.12784976
   0.98984372  0.24958366  0.87402507
   0.98064920  0.75470020  0.37206834
   0.99137969  0.74825924  0.87453712
   0.48551979  0.26699093  0.37546199
   0.49270309  0.26011476  0.87478715
   0.48550837  0.76181734  0.37609246
   0.48830555  0.76011518  0.87431935
   0.24075793  0.49330866  0.12471137
   0.73950388  0.00993609  0.12720110
   0.73446638  0.00155188  0.62282022
   0.26522759  0.00294518  0.37485793
   0.25482738  0.99673821  0.87416250
   0.25014247  0.51135215  0.37509389
   0.26089585  0.49948068  0.87354725
   0.74958031  0.49694640  0.37485613
   0.75528919  0.49858942  0.87418772
   0.24369187  0.75521159  0.12537971
   0.24068214  0.75219921  0.62515291
   0.74424090  0.25104217  0.62254906
   0.74292938  0.74186679  0.12654019
   0.73833090  0.74483881  0.62449012
   0.25931758  0.24297047  0.37387336
   0.25785934  0.24955336  0.87479121
   0.76704462  0.25420466  0.37361360
   0.75921950  0.25365787  0.87609488
   0.12566062  0.00706461  0.99323626
   0.12820775  0.98697386  0.48383055
   0.12301598  0.49135623  0.48975556
   0.62489724  0.00696693  0.99585630
   0.62348103  0.97974579  0.48860422
   0.62519768  0.48760892  0.49550551
   0.12636422  0.99323191  0.75879397
   0.12330222  0.51228851  0.25267341
   0.12293841  0.48871660  0.76377215
   0.62355389  0.98904122  0.75473130
   0.62453872  0.50800596  0.25379406
   0.62657997  0.48925138  0.75805020
   0.12487799  0.24408019  0.98997693
   0.12378020  0.26086595  0.49005718
   0.12494688  0.73958765  0.99037089
   0.12362878  0.76156320  0.48850740
   0.62608007  0.24279077  0.98910664
   0.12411134  0.23315844  0.26109201
   0.12315636  0.75971074  0.76164788
   0.62594193  0.75950806  0.76087009
   0.37836773  0.01531741  0.51077526
   0.37307295  0.49118665  0.00974135
   0.87045400  0.01873647  0.51882816
   0.87426493  0.49253609  0.00267399
   0.37750134  0.99053985  0.24329322
   0.37461472  0.50406907  0.73935547
   0.87224974  0.99022197  0.23750937
   0.87407383  0.00065978  0.73384774
   0.37948291  0.23549371  0.50523394
   0.37646798  0.76074534  0.01155267
   0.37751268  0.73792152  0.50984136
   0.87432433  0.23839072  0.50979913
   0.87192023  0.76008530  0.00964810
   0.87049506  0.73033138  0.51150116
   0.37802691  0.26149488  0.24034887
   0.37669899  0.24528156  0.74433693
   0.37695303  0.75509118  0.24079288
   0.37501340  0.74775756  0.73934572
   0.87367095  0.26139422  0.23888601
   0.87451379  0.24846985  0.74058134
   0.87311140  0.75782357  0.24041655
   0.99728882  0.12650218  0.00298272
   0.01394058  0.12947060  0.50512843
   0.98822918  0.62491302  0.99581346
   0.01170227  0.62735238  0.48976514
   0.49824178  0.12414230  0.99118601
   0.48613671  0.62728356  0.99552218
   0.51256656  0.62685704  0.48920319
   0.98579583  0.12799400  0.24692892
   0.98946902  0.62249042  0.25587892
   0.01443357  0.62473893  0.75553867
   0.49182300  0.62604670  0.26180106
   0.98875583  0.37565511  0.49927021
   0.48757775  0.37153844  0.51317534
   0.48524023  0.87889435  0.50935593
   0.99032150  0.37483756  0.74975267
   0.99758333  0.87392072  0.25484287
   0.99330692  0.87571754  0.75163970
   0.51094664  0.37126448  0.23801705
   0.49356142  0.37347610  0.73850325
   0.50498258  0.87571630  0.24066244
   0.49670740  0.87534627  0.74278859
   0.25262542  0.12455064  0.99549302
   0.24073490  0.12460933  0.49663674
   0.23894614  0.62672782  0.50464394
   0.75231239  0.12541398  0.99419378
   0.76570848  0.62595055  0.99618655
   0.73432737  0.62576453  0.49285747
   0.26368403  0.12634114  0.25089113
   0.24488476  0.12479019  0.75526435
   0.25706330  0.62341521  0.24049206
   0.76594668  0.12542868  0.25772283
   0.75768115  0.62545215  0.25718321
   0.73546001  0.62542296  0.75429332
   0.24316005  0.37596333  0.99548375
   0.23941888  0.87344534  0.00036548
   0.74036781  0.37486114  0.99815350
   0.76341316  0.37246820  0.50000971
   0.73777988  0.87459244  0.01376998
   0.76696173  0.87608356  0.50999765
   0.25945544  0.37632382  0.75630928
   0.24734133  0.87528328  0.25349884
   0.25368002  0.87341538  0.74785478
   0.73749167  0.37384953  0.25285378
   0.75934719  0.37405405  0.74888404
   0.74274324  0.87519124  0.23721924
   0.75582394  0.87533637  0.73851430
 
 position of ions in cartesian coordinates  (Angst):
  14.42313390 13.48300670  5.75048661
  15.34215525 15.34777569 15.35471661
  15.40493908 15.37519776  7.67930258
   0.09015436  7.64555133 15.37853173
  15.33183219  7.79221460  7.82100785
   7.62292290 15.32463800  0.02401796
   7.73866546  0.14523989  7.69061569
   7.77620687  7.63718270 15.37173053
   7.58488249  7.70327755  7.64798682
   0.09508794  0.07562901  3.96089124
   0.01267933  0.11883397 11.69744780
  15.32080740  7.59012883  3.86860032
  15.31076272  7.71106637 11.43388193
   7.79469407  0.13951560  3.88968551
   7.60017527  0.09016607 11.57860480
   7.59301732  7.64635773  3.97694186
   7.72930773  7.77197984 11.71183162
  15.36208045  3.97447261  0.02105971
  15.40154892  3.86504777  7.56761466
  15.40485793 11.69250764  0.06400189
  15.36359821 11.68847411  7.84185809
   7.64387453  3.98434193  0.03066457
   7.85615212  3.79602752  7.67679649
   7.82664859 11.66653385 15.41298003
   7.83220107 11.61587345  7.85456238
  15.41569118  3.98904640  3.93200321
   0.11356126  3.74984057 11.52878306
   0.12523806 11.49366175  3.70555884
  15.31589000 11.57897468 11.46702831
   7.83138178  3.71860759  3.89277248
   7.82917810  3.75486274 11.59150331
   7.81257926 11.58182166  3.90956974
   7.75375718 11.43953731 11.48168336
   3.94020953 15.39093268  0.10372615
   3.85266528 15.32218131  7.79443123
   3.75674524  7.83807662 15.38724869
   3.92961455  7.63287106  7.81519149
  11.68699105 15.40767871 15.35298712
  11.57435956  0.11189242  7.62611968
  11.43305005  7.74208409  0.07149006
  11.65212810  7.70177315  7.80278121
   3.75954875  0.03810979  3.76946788
   3.95760669 15.40194132 11.44907660
   3.92684520  7.57927393  3.88115083
   3.79796283  7.81067328 11.43001534
  11.47921071  0.00483292  3.97029465
  11.54662758  0.08865652 11.68471343
  11.64733085  7.70102477  3.74148564
  11.67953555  7.70435866 11.44912348
   3.97020853  3.88314599  0.09178440
   3.91264547  3.96939671  7.78863914
   3.90095046 11.44839272 15.33434128
   3.89121407 11.66294022  7.61418867
  11.68183484  3.86157450  0.11768101
  11.44722487  3.74837514  7.65152734
  11.44615307 11.56615215 15.31963733
  11.44008849 11.61716666  7.61957429
   3.86429555  3.97380283  3.75073202
   3.76093553  3.89361229 11.46734710
   3.77101799 11.52614568  3.96687385
   3.82337561 11.44386615 11.68156821
  11.43378291  3.83726571  3.74330749
  11.47841841  3.73882240 11.59763122
  11.49338999 11.57452453  3.97509643
  11.69576830 11.58678718 11.66705270
   0.15986020  7.76394238  9.62966772
  15.13663808 15.36979268  5.74137499
  15.27818627  0.06097911 13.48284986
   7.66275181  7.53278634  5.79570949
   7.59043415  7.58564067 13.49977345
   0.11592589 11.50391641  1.91214950
   0.14621466 11.55002499  9.66331549
   7.88972934 11.48685361  9.63759404
  15.25252240  3.84445149  5.79385108
   3.77056447  0.01342767  1.93881281
   3.72788011  0.03098109  9.63202642
   3.66505718  7.63558243  9.65035401
  11.51982282  7.73586817  1.93849737
  11.45443974  7.73708686  9.63017962
  11.75191622 15.27494170  5.80222753
  11.66111031 15.30860524 13.48608868
   3.72057554  3.86861731  1.93334273
   3.79865613  3.86492890  9.63309171
  11.37868009  3.80913317  1.95000626
   4.01710152 11.49607896  5.78171685
   4.01859529 11.57725481 13.50575870
  11.75276439 11.74203300  5.77604899
  11.68580156 11.69445684 13.50734812
   1.91496394  7.84233001 15.29804997
   9.64582044  7.89590016 15.35639335
   1.93011773  0.12609734  4.02763250
   9.63233938  0.11781222  4.04399005
   9.63401852  4.07147739  7.52361779
   9.63236181 11.38496343 15.31228135
   9.63514852 11.82446111  7.53395692
   1.92492890  3.97300010 11.64471962
   1.92586761 11.48639934  4.00076107
   9.64264875  3.67127062  4.10992917
   9.65522001  3.96792384 11.64669196
   9.60608057 11.49564308  4.02314801
   5.79606488 15.34051680  0.07901741
   5.79351234  7.87717118  7.81261418
  13.46446404 15.34480547  0.14934752
  13.49448270  7.89020196  7.75150033
   5.79927631  0.05362501 11.43552288
   5.76078018  7.56390789  3.79863251
  13.49780976  7.55211450  3.83111903
  13.49881623  7.89784219 11.46845127
   5.80032538  3.90857991  0.13959430
  13.48695731  3.92420961  0.15997758
  13.48825080 11.40794125 11.43600356
   7.94173734  1.90120689  7.49643752
   0.05375698  1.94463202 11.47014150
   7.53230114  1.92728793  4.11658167
   7.80998296  1.91474407 11.67857370
   7.80649934  9.64603253 11.67846524
   0.08444846  5.78525226  0.04139007
   0.11101781 13.48748319 15.41234837
  15.07308958 13.42254075  7.60625731
   7.83952309  5.76850209  0.18597286
   7.85470391 13.49467071  0.16824653
   0.19069143  5.76391458  3.81159605
   4.00364103  9.64061397  0.06504667
  11.31807540  1.93421946  7.60885660
   3.72600586  9.63825274 11.55706207
  11.51028437  1.92020347 11.59920662
   4.01737826  5.76352802  7.61191975
   4.06712267 13.50104104  7.69799737
   3.66075187  5.77134088  3.96661281
   0.11474970 15.42382952  1.95907762
   0.18905330 15.34153758  9.65948482
   0.05739465  7.82531821  1.92661980
   7.84363515  0.20987864  1.96078919
   7.93008728  0.11199197  9.60182100
   7.77223625  7.87802296  1.97462048
   7.86497470  7.80387126  9.63757076
  15.40816455  7.65870699  5.79457885
  15.30278956  7.69102019 13.45927623
   7.52380542 15.16530391  5.81499885
   7.67577346 15.26166070 13.49622743
   0.18642540  3.78607619  1.96131565
   0.08838351  3.98044270  9.57583118
   7.91974667  3.60838475  1.96210881
   7.82612089  3.68638760  9.60455774
   7.80522770 11.40865013  1.97225269
  15.26965686  3.85016009 13.48300006
  15.12781919 11.64225502  5.73964938
  15.29335122 11.54289469 13.49089909
   7.48978900  4.11869041  5.79200091
   7.60060088  4.01261639 13.49475605
   7.48961283 11.75204639  5.80172680
   7.53276310 11.72578842 13.48753966
   3.71401155  7.60994272  1.92383880
  11.40783163  0.15327743  1.96224630
  11.33012152  0.02393988  9.60783093
   4.09148853  0.04543338  5.78268255
   3.93105145 15.37601357 13.48512006
   3.85878051  7.88828745  5.78632256
   4.02466576  7.70515427 13.47562900
  11.56327404  7.66605964  5.78265467
  11.65134105  7.69140541 13.48550915
   3.75927140 11.65014396  1.93414896
   3.71284232 11.60367405  9.64381564
  11.48090653  3.87265968  9.60364793
  11.46067454 11.44428260  1.95205091
  11.38973688 11.49013000  9.63359125
   4.00031877  3.74814291  5.76749420
   3.97782350  3.84969270 13.49481882
  11.83268422  3.92144524  5.76348701
  11.71197135  3.91301029 13.51492959
   1.93848234  0.10898108 15.32199133
   1.97777519 15.22538547  7.46373019
   1.89768523  7.57982386  7.55513137
   9.63987167  0.10747414 15.36240896
   9.61802473 15.11388288  7.53737048
   9.64450641  7.52201654  7.64383195
   1.94933635 15.32192413 11.70540687
   1.90210092  7.90273215  3.89782366
   1.89648860  7.53910410 11.78220200
   9.61914873 15.25727721 11.64273485
   9.63434101  7.83666814  3.91511123
   9.66582998  7.54735379 11.69393336
   1.92640915  3.76526176 15.27171179
   1.90947436  4.02420452  7.55978427
   1.92747200 11.40912390 15.27778915
   1.90713847 11.74812598  7.53587685
   9.65811838  3.74537071 15.25828644
   1.91458258  3.59677931  4.02769177
   1.89985080 11.71954930 11.74943233
   9.65598743 11.71642269 11.73743382
   5.83682587  0.23629145  7.87938818
   5.75514687  7.57720780  0.15027329
  13.42791154  0.28903504  8.00361492
  13.48670013  7.59802468  0.04124985
   5.82346060 15.28039567  3.75312175
   5.77893067  7.77593635 11.40554223
  13.45561319 15.27549181  3.66389811
  13.48375229  0.01017802 11.32057816
   5.85402894  3.63280390  7.79390605
   5.80751963 11.73550942  0.17821538
   5.82363563 11.38342163  7.86498162
  13.48761646  3.67749410  7.86433012
  13.45053010 11.72532738  0.14883474
  13.42854487 11.26633357  7.89058613
   5.83156828  4.03390653  3.70770124
   5.81108337  3.78379446 11.48238780
   5.81500222 11.64828654  3.71455060
   5.78508087 11.53515568 11.40539178
  13.47753731  4.03235382  3.68513464
  13.49053920  3.83297814 11.42445286
  13.46890546 11.69043722  3.70874522
  15.38450748  1.95146453  0.04601237
   0.21505206  1.99725635  7.79227840
  15.24475045  9.64011507 15.36174805
   0.18052315  9.67774547  7.55527924
   7.68604254  1.91506017 15.29036346
   7.49930581  9.67668384 15.35725471
   7.90702148  9.67010426  7.54661034
  15.20721277  1.97447786  3.80920728
  15.26387669  9.60274326  3.94727295
   0.22265700  9.63742946 11.65518958
   7.58702445  9.65760354  4.03862982
  15.25287465  5.79498014  7.70190753
   7.52153575  5.73147495  7.91641266
   7.48547648 13.55811516  7.85749325
  15.27702721  5.78236831 11.56593280
  15.38905069 13.48139029  3.93129053
  15.32308133 13.50910862 11.59504283
   7.88203203  5.72724880  3.67172982
   7.61384190  5.76136589 11.39239561
   7.79002850 13.50908948  3.71253848
   7.66237269 13.50338132 11.45850268
   3.89708339  1.92135944 15.35680490
   3.71365627  1.92226477  7.66128276
   3.68606223  9.66811087  7.78480448
  11.60541991  1.93467762 15.33676233
  11.81207252  9.65612036 15.36750348
  11.32797709  9.65325082  7.60298239
   4.06767710  1.94898028  3.87032954
   3.77767338  1.92505485 11.65095784
   3.96554352  9.61700933  3.70991013
  11.81574697  1.93490427  3.97571762
  11.68824018  9.64843185  3.96739335
  11.34544948  9.64798156 11.63597849
   3.75106743  5.79973480 15.35666190
   3.69335489 13.47405688  0.00563799
  11.42115895  5.78273208 15.39784631
  11.77666411  5.74581772  7.71331532
  11.38123666 13.49175244  0.21242028
  11.83140556 13.51475497  7.86739261
   4.00244543  5.80529583 11.66707726
   3.81556922 13.50240954  3.91055700
   3.91335191 13.47359473 11.53665541
  11.37679056  5.76712657  3.90060608
  11.71394113  5.77028160 11.55253312
  11.45780314 13.50098976  3.65942256
  11.65959033 13.50322857 11.39256599
 


--------------------------------------------------------------------------------------------------------


 k-point  1 :   0.2500 0.2500 0.2500  plane waves:   93161
 k-point  2 :  -0.2500 0.2500 0.2500  plane waves:   93161
 k-point  3 :   0.2500-0.2500 0.2500  plane waves:   93161
 k-point  4 :  -0.2500-0.2500 0.2500  plane waves:   93161

 maximum and minimum number of plane-waves per node :     11686    11606

 maximum number of plane-waves:     93161
 maximum index in each direction: 
   IXMAX=   28   IYMAX=   28   IZMAX=   27
   IXMIN=  -28   IYMIN=  -28   IZMIN=  -28


 real space projection operators:
  total allocation   :     105583.44 KBytes
  max/ min on nodes  :      13238.09      13160.35


 parallel 3D FFT for wavefunctions:
    minimum data exchange during FFTs selected (reduces bandwidth)
 parallel 3D FFT for charge:
    minimum data exchange during FFTs selected (reduces bandwidth)


 total amount of memory used by VASP MPI-rank0   291485. kBytes
=======================================================================

   base      :      30000. kBytes
   nonlr-proj:      49450. kBytes
   fftplans  :      27976. kBytes
   grid      :      34041. kBytes
   one-center:       1026. kBytes
   wavefun   :     148992. kBytes
 
     INWAV:  cpu time   51.9316: real time   52.2921
 Broyden mixing: mesh for mixing (old mesh)
   NGX = 57   NGY = 57   NGZ = 57
  (NGX  =240   NGY  =240   NGZ  =240)
  gives a total of 185193 points

 charge density for first step will be calculated from the start-wavefunctions


--------------------------------------------------------------------------------------------------------


 Maximum index for non-local projection operator          967
 Maximum index for augmentation-charges         3289 (set IRDMAX)


--------------------------------------------------------------------------------------------------------


 initial charge from wavefunction
 First call to EWALD:  gamma=   0.115
 Maximum number of real-space cells 3x 3x 3
 Maximum number of reciprocal cells 3x 3x 3

    FEWALD:  cpu time    0.0417: real time    0.0417


--------------------------------------- Iteration      1(   1)  ---------------------------------------


    POTLOK:  cpu time    0.2919: real time    0.3029
    SETDIJ:  cpu time    1.4077: real time    1.4087
     EDDAV:  cpu time  130.6081: real time  131.4566
       DOS:  cpu time    0.0033: real time    0.0033
    CHARGE:  cpu time    5.2810: real time    5.2854
    MIXING:  cpu time    0.0075: real time    0.0077
    --------------------------------------------
      LOOP:  cpu time  137.5996: real time  138.4647

 eigenvalue-minimisations  : 23232
 total energy-change (2. order) :-0.1848524E+04  (-0.3547227E+03)
 number of electron    1923.0000024 magnetization       1.0000000
 augmentation part      503.7822614 magnetization       0.8776953

 Broyden mixing:
  rms(total) = 0.80492E+01    rms(broyden)= 0.80461E+01
  rms(prec ) = 0.12378E+02
  weight for this iteration     100.00

 Free energy of the ion-electron system (eV)
  ---------------------------------------------------
  alpha Z        PSCENC =      6118.73324990
  Ewald energy   TEWEN  =   -103742.79282410
  -Hartree energ DENC   =    -64883.03416968
  -exchange      EXHF   =         0.00000000
  -V(xc)+E(xc)   XCENC  =      8956.31541146
  PAW double counting   =    197302.68300176  -198296.17113177
  entropy T*S    EENTRO =        -0.00724595
  eigenvalues    EBANDS =    -25881.50284866
  atomic energy  EATOM  =    178577.25249613
  Solvation  Ediel_sol  =         0.00000000
  ---------------------------------------------------
  free energy    TOTEN  =     -1848.52406092 eV

  energy without entropy =    -1848.51681496  energy(sigma->0) =    -1848.52043794


--------------------------------------------------------------------------------------------------------




--------------------------------------- Iteration      1(   2)  ---------------------------------------


    POTLOK:  cpu time    0.2605: real time    0.2632
    SETDIJ:  cpu time    1.3833: real time    1.3839
     EDDAV:  cpu time  142.9073: real time  143.6570
       DOS:  cpu time    0.0029: real time    0.0029
    CHARGE:  cpu time    5.2414: real time    5.3211
    MIXING:  cpu time    0.0372: real time    0.0382
    --------------------------------------------
      LOOP:  cpu time  149.8325: real time  150.6663

 eigenvalue-minimisations  : 26796
 total energy-change (2. order) :-0.9483037E+01  (-0.3309062E+03)
 number of electron    1923.0000024 magnetization       1.0000000
 augmentation part      505.7479376 magnetization       0.8032740

 Broyden mixing:
  rms(total) = 0.96123E+01    rms(broyden)= 0.96082E+01
  rms(prec ) = 0.14139E+02
  weight for this iteration     100.00

 eigenvalues of (default mixing * dielectric matrix)
  average eigenvalue GAMMA=   0.4247
  0.4247

 Free energy of the ion-electron system (eV)
  ---------------------------------------------------
  alpha Z        PSCENC =      6118.73324990
  Ewald energy   TEWEN  =   -103742.79282410
  -Hartree energ DENC   =    -64949.52571207
  -exchange      EXHF   =         0.00000000
  -V(xc)+E(xc)   XCENC  =      8955.78288303
  PAW double counting   =    199285.99944763  -200254.40540390
  entropy T*S    EENTRO =        -0.00368618
  eigenvalues    EBANDS =    -25849.04754813
  atomic energy  EATOM  =    178577.25249613
  Solvation  Ediel_sol  =         0.00000000
  ---------------------------------------------------
  free energy    TOTEN  =     -1858.00709768 eV

  energy without entropy =    -1858.00341150  energy(sigma->0) =    -1858.00525459


--------------------------------------------------------------------------------------------------------




--------------------------------------- Iteration      1(   3)  ---------------------------------------


    POTLOK:  cpu time    0.2583: real time    0.2714
    SETDIJ:  cpu time    1.3985: real time    1.4684
     EDDAV:  cpu time  146.6494: real time  147.5141
       DOS:  cpu time    0.0022: real time    0.0022
    CHARGE:  cpu time    5.2605: real time    5.2650
    MIXING:  cpu time    0.0184: real time    0.0184
    --------------------------------------------
      LOOP:  cpu time  153.5873: real time  154.5394

 eigenvalue-minimisations  : 27336
 total energy-change (2. order) : 0.1478198E+02  (-0.1207331E+03)
 number of electron    1923.0000023 magnetization       1.0000000
 augmentation part      492.2901703 magnetization       0.6729652

 Broyden mixing:
  rms(total) = 0.55464E+01    rms(broyden)= 0.55442E+01
  rms(prec ) = 0.63786E+01
  weight for this iteration     100.00

 eigenvalues of (default mixing * dielectric matrix)
  average eigenvalue GAMMA=   0.4521
  0.4521  0.4521

 Free energy of the ion-electron system (eV)
  ---------------------------------------------------
  alpha Z        PSCENC =      6118.73324990
  Ewald energy   TEWEN  =   -103742.79282410
  -Hartree energ DENC   =    -65030.15827185
  -exchange      EXHF   =         0.00000000
  -V(xc)+E(xc)   XCENC  =      8958.17654231
  PAW double counting   =    199293.44092017  -200257.20896347
  entropy T*S    EENTRO =        -0.00011398
  eigenvalues    EBANDS =    -25760.66814901
  atomic energy  EATOM  =    178577.25249613
  Solvation  Ediel_sol  =         0.00000000
  ---------------------------------------------------
  free energy    TOTEN  =     -1843.22511389 eV

  energy without entropy =    -1843.22499991  energy(sigma->0) =    -1843.22505690


--------------------------------------------------------------------------------------------------------




--------------------------------------- Iteration      1(   4)  ---------------------------------------


    POTLOK:  cpu time    0.2944: real time    0.2972
    SETDIJ:  cpu time    1.4057: real time    1.4064
     EDDAV:  cpu time  139.0360: real time  139.9837
       DOS:  cpu time    0.0022: real time    0.0022
    CHARGE:  cpu time    5.2499: real time    5.3186
    MIXING:  cpu time    0.0263: real time    0.0263
    --------------------------------------------
      LOOP:  cpu time  146.0145: real time  147.0343

 eigenvalue-minimisations  : 25428
 total energy-change (2. order) : 0.4125067E+02  (-0.2929745E+02)
 number of electron    1923.0000023 magnetization       1.0000000
 augmentation part      493.6743477 magnetization       0.6390528

 Broyden mixing:
  rms(total) = 0.40317E+01    rms(broyden)= 0.40310E+01
  rms(prec ) = 0.46841E+01
  weight for this iteration     100.00

 eigenvalues of (default mixing * dielectric matrix)
  average eigenvalue GAMMA=   0.5746
  0.6265  0.6265  0.4706

 Free energy of the ion-electron system (eV)
  ---------------------------------------------------
  alpha Z        PSCENC =      6118.73324990
  Ewald energy   TEWEN  =   -103742.79282410
  -Hartree energ DENC   =    -64993.84768638
  -exchange      EXHF   =         0.00000000
  -V(xc)+E(xc)   XCENC  =      8963.82678558
  PAW double counting   =    199358.64932475  -200338.56072165
  entropy T*S    EENTRO =        -0.00000334
  eigenvalues    EBANDS =    -25745.23506947
  atomic energy  EATOM  =    178577.25249613
  Solvation  Ediel_sol  =         0.00000000
  ---------------------------------------------------
  free energy    TOTEN  =     -1801.97444858 eV

  energy without entropy =    -1801.97444524  energy(sigma->0) =    -1801.97444691


--------------------------------------------------------------------------------------------------------




--------------------------------------- Iteration      1(   5)  ---------------------------------------


    POTLOK:  cpu time    0.2594: real time    0.2844
    SETDIJ:  cpu time    1.3820: real time    1.3832
     EDDAV:  cpu time  145.5757: real time  146.4948
       DOS:  cpu time    0.0018: real time    0.0018
    CHARGE:  cpu time    5.2943: real time    5.2986
    MIXING:  cpu time    0.0081: real time    0.0081
    --------------------------------------------
      LOOP:  cpu time  152.5213: real time  153.4708

 eigenvalue-minimisations  : 26784
 total energy-change (2. order) : 0.3055629E+02  (-0.1020163E+02)
 number of electron    1923.0000023 magnetization       1.0000000
 augmentation part      494.2232994 magnetization       0.6451631

 Broyden mixing:
  rms(total) = 0.23183E+01    rms(broyden)= 0.23177E+01
  rms(prec ) = 0.27022E+01
  weight for this iteration     100.00

 eigenvalues of (default mixing * dielectric matrix)
  average eigenvalue GAMMA=   0.6058
  0.7429  0.7429  0.4686  0.4686

 Free energy of the ion-electron system (eV)
  ---------------------------------------------------
  alpha Z        PSCENC =      6118.73324990
  Ewald energy   TEWEN  =   -103742.79282410
  -Hartree energ DENC   =    -64998.25193927
  -exchange      EXHF   =         0.00000000
  -V(xc)+E(xc)   XCENC  =      8968.32887083
  PAW double counting   =    198865.52510457  -199857.89470988
  entropy T*S    EENTRO =        -0.00000000
  eigenvalues    EBANDS =    -25702.31840237
  atomic energy  EATOM  =    178577.25249613
  Solvation  Ediel_sol  =         0.00000000
  ---------------------------------------------------
  free energy    TOTEN  =     -1771.41815417 eV

  energy without entropy =    -1771.41815417  energy(sigma->0) =    -1771.41815417


--------------------------------------------------------------------------------------------------------




--------------------------------------- Iteration      1(   6)  ---------------------------------------


    POTLOK:  cpu time    0.2613: real time    0.2634
    SETDIJ:  cpu time    1.3822: real time    1.3834
     EDDAV:  cpu time  145.6380: real time  146.6360
       DOS:  cpu time    0.0059: real time    0.0061
    CHARGE:  cpu time    5.2546: real time    5.2600
    MIXING:  cpu time    0.0078: real time    0.0078
    --------------------------------------------
      LOOP:  cpu time  152.5499: real time  153.5568

 eigenvalue-minimisations  : 26988
 total energy-change (2. order) : 0.9659082E+01  (-0.3673466E+01)
 number of electron    1923.0000023 magnetization       1.0000000
 augmentation part      495.2590512 magnetization       0.5887409

 Broyden mixing:
  rms(total) = 0.14534E+01    rms(broyden)= 0.14531E+01
  rms(prec ) = 0.16296E+01
  weight for this iteration     100.00

 eigenvalues of (default mixing * dielectric matrix)
  average eigenvalue GAMMA=   0.6798
  0.9160  0.9160  0.4571  0.5548  0.5548

 Free energy of the ion-electron system (eV)
  ---------------------------------------------------
  alpha Z        PSCENC =      6118.73324990
  Ewald energy   TEWEN  =   -103742.79282410
  -Hartree energ DENC   =    -64957.60153014
  -exchange      EXHF   =         0.00000000
  -V(xc)+E(xc)   XCENC  =      8968.79056411
  PAW double counting   =    198497.26092113  -199495.35941517
  entropy T*S    EENTRO =        -0.00000000
  eigenvalues    EBANDS =    -25728.04253421
  atomic energy  EATOM  =    178577.25249613
  Solvation  Ediel_sol  =         0.00000000
  ---------------------------------------------------
  free energy    TOTEN  =     -1761.75907235 eV

  energy without entropy =    -1761.75907235  energy(sigma->0) =    -1761.75907235


--------------------------------------------------------------------------------------------------------




--------------------------------------- Iteration      1(   7)  ---------------------------------------


    POTLOK:  cpu time    0.2598: real time    0.2627
    SETDIJ:  cpu time    1.3809: real time    1.3813
     EDDAV:  cpu time  145.4837: real time  146.4244
       DOS:  cpu time    0.0018: real time    0.0018
    CHARGE:  cpu time    5.1911: real time    5.2712
    MIXING:  cpu time    0.0233: real time    0.0248
    --------------------------------------------
      LOOP:  cpu time  152.3406: real time  153.3661

 eigenvalue-minimisations  : 27300
 total energy-change (2. order) : 0.2880869E+01  (-0.1225659E+01)
 number of electron    1923.0000023 magnetization       1.0000000
 augmentation part      496.1752729 magnetization       0.5852163

 Broyden mixing:
  rms(total) = 0.10846E+01    rms(broyden)= 0.10844E+01
  rms(prec ) = 0.11390E+01
  weight for this iteration     100.00

 eigenvalues of (default mixing * dielectric matrix)
  average eigenvalue GAMMA=   0.7654
  1.1322  1.1322  0.6491  0.6491  0.5150  0.5150

 Free energy of the ion-electron system (eV)
  ---------------------------------------------------
  alpha Z        PSCENC =      6118.73324990
  Ewald energy   TEWEN  =   -103742.79282410
  -Hartree energ DENC   =    -64924.38021828
  -exchange      EXHF   =         0.00000000
  -V(xc)+E(xc)   XCENC  =      8968.24556734
  PAW double counting   =    198111.10322951  -199113.48008713
  entropy T*S    EENTRO =        -0.00000000
  eigenvalues    EBANDS =    -25753.55961672
  atomic energy  EATOM  =    178577.25249613
  Solvation  Ediel_sol  =         0.00000000
  ---------------------------------------------------
  free energy    TOTEN  =     -1758.87820335 eV

  energy without entropy =    -1758.87820335  energy(sigma->0) =    -1758.87820335


--------------------------------------------------------------------------------------------------------




--------------------------------------- Iteration      1(   8)  ---------------------------------------


    POTLOK:  cpu time    0.3558: real time    0.3574
    SETDIJ:  cpu time    1.4287: real time    1.4558
     EDDAV:  cpu time  142.2971: real time  143.3107
       DOS:  cpu time    0.0018: real time    0.0018
    CHARGE:  cpu time    5.2600: real time    5.2646
    MIXING:  cpu time    0.0240: real time    0.0240
    --------------------------------------------
      LOOP:  cpu time  149.3673: real time  150.4141

 eigenvalue-minimisations  : 26892
 total energy-change (2. order) :-0.9723305E-01  (-0.8579589E+00)
[...]
   81        1.574   3.459   0.000   5.033
   82        1.575   3.459   0.000   5.034
   83        1.574   3.459   0.000   5.033
   84        1.576   3.470   0.000   5.046
   85        1.575   3.460   0.000   5.035
   86        1.575   3.463   0.000   5.038
   87        1.574   3.458   0.000   5.032
   88        1.575   3.462   0.000   5.037
   89        1.575   3.460   0.000   5.035
   90        1.575   3.456   0.000   5.031
   91        1.573   3.459   0.000   5.033
   92        1.574   3.458   0.000   5.031
   93        1.578   3.465   0.000   5.043
   94        1.576   3.468   0.000   5.044
   95        1.576   3.466   0.000   5.042
   96        1.575   3.462   0.000   5.037
   97        1.574   3.464   0.000   5.039
   98        1.576   3.467   0.000   5.043
   99        1.575   3.462   0.000   5.037
  100        1.576   3.456   0.000   5.032
  101        1.575   3.459   0.000   5.033
  102        1.575   3.457   0.000   5.032
  103        1.576   3.457   0.000   5.033
  104        1.574   3.458   0.000   5.032
  105        1.576   3.470   0.000   5.046
  106        1.575   3.460   0.000   5.035
  107        1.575   3.461   0.000   5.035
  108        1.576   3.470   0.000   5.046
  109        1.574   3.460   0.000   5.035
  110        1.575   3.458   0.000   5.033
  111        1.576   3.469   0.000   5.045
  112        1.577   3.458   0.000   5.034
  113        1.576   3.472   0.000   5.048
  114        1.577   3.468   0.000   5.045
  115        1.574   3.462   0.000   5.037
  116        1.575   3.460   0.000   5.035
  117        1.575   3.460   0.000   5.035
  118        1.576   3.461   0.000   5.037
  119        1.570   3.487   0.000   5.057
  120        1.575   3.456   0.000   5.031
  121        1.575   3.460   0.000   5.034
  122        1.578   3.471   0.000   5.049
  123        1.577   3.472   0.000   5.049
  124        1.576   3.467   0.000   5.043
  125        1.576   3.474   0.000   5.049
  126        1.575   3.470   0.000   5.046
  127        1.575   3.457   0.000   5.032
  128        1.575   3.459   0.000   5.034
  129        1.577   3.468   0.000   5.045
  130        1.737   4.369   0.000   6.105
  131        1.736   4.376   0.000   6.113
  132        1.737   4.379   0.000   6.116
  133        1.738   4.384   0.000   6.122
  134        1.738   4.381   0.000   6.119
  135        1.737   4.365   0.000   6.102
  136        1.736   4.364   0.000   6.100
  137        1.738   4.380   0.000   6.118
  138        1.738   4.379   0.000   6.118
  139        1.739   4.380   0.000   6.120
  140        1.738   4.386   0.000   6.124
  141        1.738   4.378   0.000   6.116
  142        1.737   4.378   0.000   6.116
  143        1.738   4.381   0.000   6.119
  144        1.738   4.383   0.000   6.121
  145        1.738   4.378   0.000   6.115
  146        1.737   4.379   0.000   6.116
  147        1.735   4.378   0.000   6.113
  148        1.737   4.372   0.000   6.109
  149        1.739   4.379   0.000   6.119
  150        1.738   4.384   0.000   6.122
  151        1.738   4.370   0.000   6.108
  152        1.737   4.374   0.000   6.111
  153        1.737   4.380   0.000   6.117
  154        1.736   4.366   0.000   6.102
  155        1.737   4.366   0.000   6.102
  156        1.736   4.367   0.000   6.103
  157        1.736   4.365   0.000   6.102
  158        1.738   4.375   0.000   6.113
  159        1.738   4.375   0.000   6.112
  160        1.737   4.368   0.000   6.105
  161        1.736   4.369   0.000   6.105
  162        1.736   4.366   0.000   6.102
  163        1.736   4.365   0.000   6.101
  164        1.737   4.379   0.000   6.116
  165        1.736   4.365   0.000   6.101
  166        1.736   4.365   0.000   6.102
  167        1.737   4.368   0.000   6.104
  168        1.736   4.368   0.000   6.104
  169        1.738   4.374   0.000   6.112
  170        1.738   4.378   0.000   6.115
  171        1.737   4.367   0.000   6.104
  172        1.738   4.383   0.000   6.120
  173        1.737   4.366   0.000   6.103
  174        1.737   4.367   0.000   6.104
  175        1.739   4.377   0.000   6.116
  176        1.736   4.364   0.000   6.100
  177        1.737   4.377   0.000   6.114
  178        1.736   4.365   0.000   6.102
  179        1.738   4.373   0.000   6.110
  180        1.738   4.377   0.000   6.115
  181        1.736   4.366   0.000   6.102
  182        1.738   4.375   0.000   6.113
  183        1.736   4.365   0.000   6.102
  184        1.737   4.377   0.000   6.114
  185        1.737   4.378   0.000   6.115
  186        1.736   4.374   0.000   6.110
  187        1.736   4.366   0.000   6.102
  188        1.737   4.374   0.000   6.111
  189        1.738   4.376   0.000   6.114
  190        1.738   4.376   0.000   6.114
  191        1.739   4.379   0.000   6.118
  192        1.737   4.367   0.000   6.103
  193        1.739   4.379   0.000   6.118
  194        1.736   4.365   0.000   6.101
  195        1.737   4.367   0.000   6.104
  196        1.737   4.378   0.000   6.115
  197        1.737   4.364   0.000   6.101
  198        1.737   4.376   0.000   6.114
  199        1.738   4.376   0.000   6.113
  200        1.738   4.376   0.000   6.114
  201        1.737   4.373   0.000   6.111
  202        1.738   4.373   0.000   6.111
  203        1.737   4.376   0.000   6.114
  204        1.737   4.371   0.000   6.109
  205        1.737   4.373   0.000   6.110
  206        1.736   4.366   0.000   6.102
  207        1.737   4.366   0.000   6.103
  208        1.737   4.378   0.000   6.115
  209        1.737   4.373   0.000   6.110
  210        1.736   4.368   0.000   6.104
  211        1.737   4.368   0.000   6.104
  212        1.737   4.368   0.000   6.105
  213        1.738   4.377   0.000   6.115
  214        1.736   4.366   0.000   6.103
  215        1.739   4.377   0.000   6.115
  216        1.736   4.364   0.000   6.100
  217        1.736   4.364   0.000   6.100
  218        1.737   4.375   0.000   6.112
  219        1.738   4.379   0.000   6.118
  220        1.738   4.381   0.000   6.119
  221        1.738   4.378   0.000   6.116
  222        1.737   4.376   0.000   6.114
  223        1.738   4.381   0.000   6.118
  224        1.738   4.375   0.000   6.113
  225        1.737   4.373   0.000   6.111
  226        1.738   4.377   0.000   6.114
  227        1.736   4.388   0.000   6.124
  228        1.738   4.378   0.000   6.115
  229        1.737   4.374   0.000   6.112
  230        1.736   4.366   0.000   6.103
  231        1.738   4.373   0.000   6.110
  232        1.736   4.367   0.000   6.103
  233        1.738   4.380   0.000   6.118
  234        1.736   4.365   0.000   6.101
  235        1.737   4.366   0.000   6.102
  236        1.738   4.387   0.000   6.125
  237        1.739   4.384   0.000   6.123
  238        1.737   4.376   0.000   6.114
  239        1.738   4.376   0.000   6.114
  240        1.737   4.379   0.000   6.117
  241        1.738   4.375   0.000   6.113
  242        1.738   4.383   0.000   6.121
  243        1.738   4.385   0.000   6.123
  244        1.738   4.378   0.000   6.115
  245        1.738   4.377   0.000   6.115
  246        1.738   4.376   0.000   6.114
  247        1.738   4.385   0.000   6.123
  248        1.737   4.375   0.000   6.113
  249        1.738   4.383   0.000   6.121
  250        1.738   4.371   0.000   6.109
  251        1.738   4.378   0.000   6.116
  252        1.737   4.380   0.000   6.117
  253        1.738   4.378   0.000   6.116
  254        1.738   4.387   0.000   6.125
  255        1.738   4.376   0.000   6.114
  256        1.739   4.383   0.000   6.122
  257        1.738   4.377   0.000   6.115
--------------------------------------------------
tot        345.3681194.545 112.0601651.974
 


 magnetization (x)
 
# of ion       s       p       d       tot
------------------------------------------
    1       -0.000  -0.000   0.000  -0.000
    2       -0.000  -0.000  -0.000  -0.000
    3        0.005   0.007   0.882   0.894
    4        0.000   0.000   0.000   0.000
    5       -0.000  -0.000   0.001   0.000
    6        0.000   0.000  -0.000  -0.000
    7        0.000   0.000   0.001   0.001
    8       -0.000   0.000  -0.000  -0.000
    9        0.000   0.000   0.000   0.000
   10       -0.000  -0.000  -0.002  -0.002
   11       -0.000  -0.000   0.000  -0.000
   12        0.000  -0.000  -0.000  -0.000
   13       -0.000  -0.000   0.000   0.000
   14       -0.000  -0.000  -0.000  -0.000
   15       -0.000  -0.000  -0.000  -0.000
   16       -0.000   0.000   0.000   0.000
   17        0.000   0.000   0.000   0.000
   18       -0.000  -0.000  -0.000  -0.000
   19        0.000   0.000   0.015   0.015
   20       -0.000  -0.000  -0.000  -0.000
   21        0.000   0.001   0.059   0.060
   22        0.000   0.000  -0.000  -0.000
   23        0.000   0.000   0.001   0.001
   24        0.000   0.000   0.000   0.000
   25        0.000   0.000   0.000   0.000
   26       -0.000  -0.000  -0.000  -0.000
   27       -0.000  -0.000   0.000  -0.000
   28       -0.000  -0.000   0.000   0.000
   29       -0.000  -0.000   0.000  -0.000
   30       -0.000  -0.000   0.000   0.000
   31       -0.000  -0.000  -0.000  -0.000
   32       -0.000  -0.000  -0.000  -0.000
   33       -0.000  -0.000  -0.000  -0.000
   34        0.000  -0.000  -0.000  -0.000
   35       -0.000   0.000   0.009   0.009
   36        0.000   0.000   0.000   0.000
   37        0.000   0.000   0.000   0.000
   38       -0.000  -0.000   0.000  -0.000
   39        0.000   0.000   0.012   0.012
   40        0.000   0.000   0.000   0.000
   41        0.000   0.000   0.000   0.000
   42        0.000  -0.000  -0.000  -0.000
   43       -0.000  -0.000  -0.000  -0.000
   44        0.000  -0.000   0.000   0.000
   45       -0.000  -0.000  -0.000  -0.000
   46       -0.000  -0.000  -0.000  -0.000
   47       -0.000  -0.000   0.000   0.000
   48       -0.000  -0.000   0.000   0.000
   49       -0.000  -0.000  -0.000  -0.000
   50       -0.000  -0.000  -0.000  -0.000
   51        0.000  -0.000   0.000   0.000
   52       -0.000  -0.000  -0.000  -0.000
   53        0.000   0.000   0.004   0.004
   54       -0.000  -0.000  -0.000  -0.000
   55        0.000   0.000   0.003   0.003
   56        0.000  -0.000   0.000   0.000
   57        0.000   0.000   0.001   0.001
   58       -0.000  -0.000   0.000   0.000
   59       -0.000  -0.000  -0.000  -0.000
   60       -0.000  -0.000  -0.000  -0.000
   61        0.000  -0.000   0.000   0.000
   62       -0.000  -0.000   0.000  -0.000
   63       -0.000  -0.000   0.000   0.000
   64       -0.000  -0.000  -0.000  -0.000
   65       -0.000  -0.000  -0.000  -0.000
   66       -0.000  -0.000   0.000  -0.000
   67       -0.001  -0.014   0.000  -0.015
   68       -0.000  -0.000   0.000  -0.000
   69       -0.000  -0.000   0.000  -0.000
   70       -0.000   0.000   0.000   0.000
   71       -0.000  -0.000   0.000  -0.000
   72       -0.000  -0.002   0.000  -0.002
   73       -0.000  -0.000   0.000  -0.000
   74       -0.000  -0.001   0.000  -0.001
   75       -0.000  -0.000   0.000  -0.000
   76       -0.000  -0.000   0.000  -0.000
   77       -0.000  -0.000   0.000  -0.000
   78       -0.000  -0.000   0.000  -0.000
   79       -0.000  -0.000   0.000  -0.000
   80       -0.000  -0.001   0.000  -0.001
   81       -0.000  -0.000   0.000  -0.000
   82       -0.000  -0.000   0.000  -0.000
   83       -0.000  -0.000   0.000  -0.000
   84       -0.000  -0.000   0.000  -0.000
   85       -0.000  -0.000   0.000  -0.000
   86       -0.000  -0.000   0.000  -0.000
   87       -0.000  -0.000   0.000  -0.000
   88       -0.000  -0.000   0.000  -0.000
   89       -0.000  -0.000   0.000  -0.000
   90       -0.000  -0.000   0.000  -0.000
   91       -0.000  -0.000   0.000  -0.000
   92       -0.000  -0.000   0.000  -0.000
   93       -0.000  -0.000   0.000  -0.000
   94       -0.000  -0.000   0.000  -0.000
   95       -0.000  -0.000   0.000  -0.000
   96       -0.000  -0.000   0.000  -0.000
   97       -0.000  -0.000   0.000  -0.000
   98       -0.000  -0.000   0.000  -0.000
   99       -0.000  -0.000   0.000  -0.000
  100       -0.000  -0.000   0.000  -0.000
  101       -0.000  -0.000   0.000  -0.000
  102       -0.000  -0.000   0.000  -0.000
  103        0.000  -0.000   0.000  -0.000
  104       -0.000  -0.000   0.000  -0.000
  105       -0.000  -0.000   0.000  -0.000
  106       -0.000  -0.000   0.000  -0.000
  107        0.000  -0.000   0.000  -0.000
  108       -0.000  -0.000   0.000  -0.000
  109        0.000   0.000   0.000   0.000
  110       -0.000  -0.000   0.000  -0.000
  111       -0.000  -0.000   0.000  -0.000
  112       -0.000  -0.000   0.000  -0.000
  113       -0.000  -0.000   0.000  -0.000
  114       -0.000  -0.000   0.000  -0.000
  115        0.000   0.000   0.000   0.000
  116       -0.000  -0.000   0.000  -0.000
  117       -0.000  -0.000   0.000  -0.000
  118        0.000   0.000   0.000   0.000
  119       -0.001  -0.024   0.000  -0.025
  120       -0.000   0.000   0.000   0.000
  121       -0.000  -0.000   0.000  -0.000
  122       -0.000  -0.000   0.000  -0.000
  123       -0.000   0.000   0.000   0.000
  124       -0.000  -0.001   0.000  -0.001
  125       -0.000  -0.000   0.000  -0.000
  126       -0.000  -0.000   0.000  -0.000
  127        0.000   0.000   0.000   0.000
  128       -0.000  -0.001   0.000  -0.001
  129       -0.000  -0.000   0.000  -0.000
  130       -0.000  -0.000   0.000  -0.000
  131       -0.000  -0.007   0.000  -0.007
  132       -0.000  -0.000   0.000  -0.000
  133       -0.000  -0.000   0.000  -0.000
  134       -0.000  -0.000   0.000  -0.000
  135        0.000   0.000   0.000   0.000
  136       -0.000  -0.000   0.000  -0.000
  137       -0.000  -0.000   0.000  -0.000
  138       -0.000  -0.000   0.000  -0.000
  139       -0.000  -0.000   0.000  -0.000
  140        0.000  -0.000   0.000  -0.000
  141       -0.000  -0.000   0.000  -0.000
  142       -0.000  -0.000   0.000  -0.000
  143       -0.000   0.000   0.000   0.000
  144       -0.000  -0.000   0.000  -0.000
  145       -0.000  -0.000   0.000  -0.000
  146       -0.000  -0.000   0.000  -0.000
  147       -0.000  -0.000   0.000  -0.000
  148       -0.000  -0.000   0.000  -0.000
  149       -0.000  -0.000   0.000  -0.000
  150       -0.000  -0.000   0.000  -0.000
  151       -0.000  -0.000   0.000  -0.000
  152       -0.000   0.000   0.000   0.000
  153       -0.000  -0.000   0.000  -0.000
  154       -0.000  -0.000   0.000  -0.000
  155       -0.000  -0.000   0.000  -0.000
  156       -0.000  -0.000   0.000  -0.000
  157       -0.000  -0.000   0.000  -0.000
  158       -0.000  -0.000   0.000  -0.000
  159       -0.000  -0.000   0.000  -0.000
  160       -0.000  -0.000   0.000  -0.000
  161       -0.000  -0.000   0.000  -0.000
  162       -0.000  -0.000   0.000  -0.000
  163       -0.000  -0.000   0.000  -0.000
  164       -0.000  -0.000   0.000  -0.000
  165       -0.000  -0.000   0.000  -0.000
  166       -0.000  -0.000   0.000  -0.000
  167       -0.000  -0.000   0.000  -0.000
  168        0.000  -0.000   0.000  -0.000
  169       -0.000  -0.000   0.000  -0.000
  170        0.000  -0.000   0.000   0.000
  171        0.000  -0.000   0.000  -0.000
  172       -0.000   0.002   0.000   0.001
  173       -0.000  -0.000   0.000  -0.000
  174       -0.000  -0.000   0.000  -0.000
  175       -0.000  -0.000   0.000  -0.000
  176       -0.000  -0.000   0.000  -0.000
  177       -0.000  -0.000   0.000  -0.000
  178       -0.000   0.000   0.000  -0.000
  179       -0.000  -0.000   0.000  -0.000
  180       -0.000  -0.000   0.000  -0.000
  181       -0.000   0.000   0.000   0.000
  182        0.000   0.000   0.000   0.000
  183       -0.000  -0.000   0.000  -0.000
  184        0.000   0.000   0.000   0.000
  185       -0.000   0.000   0.000   0.000
  186       -0.000  -0.001   0.000  -0.001
  187       -0.000   0.000   0.000   0.000
  188       -0.000  -0.000   0.000  -0.000
  189       -0.000  -0.000   0.000  -0.000
  190       -0.000   0.000   0.000   0.000
  191       -0.000  -0.000   0.000  -0.000
  192       -0.000  -0.000   0.000  -0.000
  193       -0.000  -0.001   0.000  -0.001
  194       -0.000  -0.000   0.000  -0.000
  195       -0.000  -0.000   0.000  -0.000
  196       -0.000  -0.000   0.000  -0.000
  197       -0.000  -0.000   0.000  -0.000
  198       -0.000  -0.000   0.000  -0.000
  199        0.000  -0.000   0.000  -0.000
  200       -0.000  -0.000   0.000  -0.000
  201       -0.000  -0.000   0.000  -0.000
  202       -0.000  -0.000   0.000  -0.000
  203       -0.000   0.000   0.000   0.000
  204       -0.000   0.000   0.000   0.000
  205       -0.000  -0.000   0.000  -0.000
  206        0.000  -0.000   0.000  -0.000
  207       -0.000  -0.000   0.000  -0.000
  208       -0.000   0.000   0.000   0.000
  209       -0.000  -0.000   0.000  -0.000
  210       -0.000  -0.000   0.000  -0.000
  211       -0.000  -0.000   0.000  -0.000
  212       -0.000  -0.000   0.000  -0.000
  213       -0.000  -0.002   0.000  -0.002
  214       -0.000  -0.000   0.000  -0.000
  215       -0.000  -0.000   0.000  -0.000
  216        0.000  -0.000   0.000  -0.000
  217        0.000  -0.000   0.000  -0.000
  218       -0.000  -0.000   0.000  -0.000
  219        0.000  -0.000   0.000  -0.000
  220       -0.000  -0.000   0.000  -0.000
  221       -0.000  -0.000   0.000  -0.000
  222        0.000  -0.000   0.000  -0.000
  223       -0.000  -0.000   0.000  -0.000
  224       -0.000  -0.000   0.000  -0.000
  225       -0.000  -0.000   0.000  -0.000
  226       -0.000  -0.000   0.000  -0.000
  227       -0.000  -0.000   0.000  -0.000
  228       -0.000  -0.000   0.000  -0.000
  229       -0.000   0.000   0.000   0.000
  230       -0.000   0.000   0.000   0.000
  231       -0.000   0.000   0.000   0.000
  232       -0.000   0.000   0.000   0.000
  233        0.000   0.000   0.000   0.000
  234        0.000   0.000   0.000   0.000
  235       -0.000   0.000   0.000   0.000
  236       -0.000  -0.000   0.000  -0.000
  237       -0.000   0.000   0.000   0.000
  238        0.000   0.000   0.000   0.000
  239        0.000   0.000   0.000   0.000
  240       -0.000  -0.000   0.000  -0.000
  241       -0.000  -0.000   0.000  -0.000
  242        0.000  -0.000   0.000  -0.000
  243        0.000  -0.000   0.000  -0.000
  244       -0.000  -0.000   0.000  -0.000
  245       -0.000  -0.000   0.000  -0.000
  246       -0.000  -0.000   0.000  -0.000
  247       -0.000   0.000   0.000   0.000
  248        0.000  -0.000   0.000  -0.000
  249       -0.000  -0.000   0.000  -0.000
  250       -0.000  -0.000   0.000  -0.000
  251        0.000  -0.000   0.000  -0.000
  252        0.000  -0.000   0.000  -0.000
  253       -0.000  -0.000   0.000  -0.000
  254       -0.000  -0.000   0.000  -0.000
  255       -0.000  -0.000   0.000  -0.000
  256        0.000  -0.000   0.000  -0.000
  257       -0.000  -0.000   0.000  -0.000
--------------------------------------------------
tot          0.002  -0.050   0.986   0.938
 

 total amount of memory used by VASP MPI-rank0   291485. kBytes
=======================================================================

   base      :      30000. kBytes
   nonlr-proj:      49450. kBytes
   fftplans  :      27976. kBytes
   grid      :      34041. kBytes
   one-center:       1026. kBytes
   wavefun   :     148992. kBytes
 
  
  
 General timing and accounting informations for this job:
 ========================================================
  
                  Total CPU time used (sec):     4831.451
                            User time (sec):     4421.852
                          System time (sec):      409.599
                         Elapsed time (sec):     4869.926
  
                   Maximum memory used (kb):      631652.
                   Average memory used (kb):           0.
  
                          Minor page faults:       259498
                          Major page faults:            9
                 Voluntary context switches:        33238
