       N       E                     dE             d eps       ncg     rms          rms(c)
DAV:   1    -0.211866261760E+03   -0.21187E+03   -0.20012E-03 20192   0.257E-01    0.267E-03
DAV:   2    -0.211866261651E+03    0.10910E-06   -0.60003E-07 11776   0.624E-03
   1 F= -.21186626E+03 E0= -.21186626E+03  d E =-.211866E+03  mag=    -0.0000
