 vasp.5.4.4.18Apr17-6-g9f103f2a35 (build Apr 30 2017 20:10:35) complex          
  
 executed on             LinuxIFC date 2017.08.08  21:20:44
 running on   64 total cores
 distrk:  each k-point on   64 cores,    1 groups
 distr:  one band on NCORES_PER_BAND=   8 cores,    8 groups


--------------------------------------------------------------------------------------------------------


 INCAR:
 POTCAR:   PAW_PBE Ti_pv 07Sep2000                
 POTCAR:   PAW_PBE O 08Apr2002                    
 POTCAR:    PAW_PBE F 08Apr2002                   
 POTCAR:   PAW_PBE Ti_pv 07Sep2000                
   VRHFIN =Ti: d3 s1                                                            
   LEXCH  = PE                                                                  
   EATOM  =  1042.3781 eV,   76.6126 Ry                                         
                                                                                
   TITEL  = PAW_PBE Ti_pv 07Sep2000                                             
   LULTRA =        F    use ultrasoft PP ?                                      
   IUNSCR =        1    unscreen: 0-lin 1-nonlin 2-no                           
   RPACOR =    2.200    partial core radius                                     
   POMASS =   47.880; ZVAL   =   10.000    mass and valenz                      
   RCORE  =    2.500    outmost cutoff radius                                   
   RWIGS  =    2.500; RWIGS  =    1.323    wigner-seitz radius (au A)           
   ENMAX  =  222.338; ENMIN  =  166.753 eV                                      
   RCLOC  =    1.701    cutoff for local pot                                    
   LCOR   =        T    correct aug charges                                     
   LPAW   =        T    paw PP                                                  
   EAUG   =  482.848                                                            
   DEXC   =    -.008                                                            
   RMAX   =    3.092    core radius for proj-oper                               
   RAUG   =    1.300    factor for augmentation sphere                          
   RDEP   =    2.538    radius for radial grids                                 
   QCUT   =   -4.042; QGAM   =    8.085    optimization parameters              
                                                                                
   Description                                                                  
     l     E      TYP  RCUT    TYP  RCUT                                        
     1   .000     23  2.300                                                     
     1  -.100     23  2.300                                                     
     2   .000     23  2.500                                                     
     2   .000     23  2.500                                                     
     0   .000     23  2.500                                                     
     0  1.500     23  2.500                                                     
     3   .000      7   .000                                                     
  local pseudopotential read in
  partial core-charges read in
  atomic valenz-charges read in
  non local Contribution for L=           1  read in
    real space projection operators read in
  non local Contribution for L=           1  read in
    real space projection operators read in
  non local Contribution for L=           2  read in
    real space projection operators read in
  non local Contribution for L=           2  read in
    real space projection operators read in
  non local Contribution for L=           0  read in
    real space projection operators read in
  non local Contribution for L=           0  read in
    real space projection operators read in
    PAW grid and wavefunctions read in
 
   number of l-projection  operators is LMAX  =           6
   number of lm-projection operators is LMMAX =          18
 
 POTCAR:   PAW_PBE O 08Apr2002                    
   VRHFIN =O: s2p4                                                              
   LEXCH  = PE                                                                  
   EATOM  =   432.3788 eV,   31.7789 Ry                                         
                                                                                
   TITEL  = PAW_PBE O 08Apr2002                                                 
   LULTRA =        F    use ultrasoft PP ?                                      
   IUNSCR =        0    unscreen: 0-lin 1-nonlin 2-no                           
   RPACOR =     .000    partial core radius                                     
   POMASS =   16.000; ZVAL   =    6.000    mass and valenz                      
   RCORE  =    1.520    outmost cutoff radius                                   
   RWIGS  =    1.550; RWIGS  =     .820    wigner-seitz radius (au A)           
   ENMAX  =  400.000; ENMIN  =  300.000 eV                                      
   ICORE  =        2    local potential                                         
   LCOR   =        T    correct aug charges                                     
   LPAW   =        T    paw PP                                                  
   EAUG   =  605.392                                                            
   DEXC   =     .000                                                            
   RMAX   =    2.264    core radius for proj-oper                               
   RAUG   =    1.300    factor for augmentation sphere                          
   RDEP   =    1.550    radius for radial grids                                 
   QCUT   =   -5.520; QGAM   =   11.041    optimization parameters              
                                                                                
   Description                                                                  
     l     E      TYP  RCUT    TYP  RCUT                                        
     0   .000     23  1.200                                                     
     0  -.700     23  1.200                                                     
     1   .000     23  1.520                                                     
     1   .600     23  1.520                                                     
     2   .000      7  1.500                                                     
  local pseudopotential read in
  atomic valenz-charges read in
  non local Contribution for L=           0  read in
    real space projection operators read in
  non local Contribution for L=           0  read in
    real space projection operators read in
  non local Contribution for L=           1  read in
    real space projection operators read in
  non local Contribution for L=           1  read in
    real space projection operators read in
    PAW grid and wavefunctions read in
 
   number of l-projection  operators is LMAX  =           4
   number of lm-projection operators is LMMAX =           8
 
 POTCAR:    PAW_PBE F 08Apr2002                   
   VRHFIN =F: s2p5                                                              
   LEXCH  = PE                                                                  
   EATOM  =   659.6475 eV,   48.4827 Ry                                         
                                                                                
   TITEL  = PAW_PBE F 08Apr2002                                                 
   LULTRA =        F    use ultrasoft PP ?                                      
   IUNSCR =        1    unscreen: 0-lin 1-nonlin 2-no                           
   RPACOR =    1.200    partial core radius                                     
   POMASS =   18.998; ZVAL   =    7.000    mass and valenz                      
   RCORE  =    1.520    outmost cutoff radius                                   
   RWIGS  =    1.500; RWIGS  =    0.794    wigner-seitz radius (au A)           
   ENMAX  =  400.000; ENMIN  =  300.000 eV                                      
   ICORE  =        2    local potential                                         
   LCOR   =        T    correct aug charges                                     
   LPAW   =        T    paw PP                                                  
   EAUG   =  613.614                                                            
   RMAX   =    1.555    core radius for proj-oper                               
   RAUG   =    1.300    factor for augmentation sphere                          
   RDEP   =    1.539    radius for radial grids                                 
   RDEPT  =    1.299    core radius for aug-charge                              
                                                                                
   Atomic configuration                                                         
    4 entries                                                                   
     n  l   j            E        occ.                                          
     1  0  0.50      -663.3661   2.0000                                         
     2  0  0.50       -29.8995   2.0000                                         
     2  1  0.50       -11.1114   5.0000                                         
     3  2  1.50       -10.8847   0.0000                                         
   Description                                                                  
     l       E           TYP  RCUT    TYP  RCUT                                 
     0    -29.8995018     23  1.200                                             
     0     -9.5240782     23  1.200                                             
     1    -11.1113914     23  1.520                                             
     1      1.3605826     23  1.520                                             
     2    -10.8846608      7  1.500                                             
  local pseudopotential read in
  partial core-charges read in
  partial kinetic energy density read in
  atomic valenz-charges read in
  non local Contribution for L=           0  read in
    real space projection operators read in
  non local Contribution for L=           0  read in
    real space projection operators read in
  non local Contribution for L=           1  read in
    real space projection operators read in
  non local Contribution for L=           1  read in
    real space projection operators read in
    PAW grid and wavefunctions read in
 
   number of l-projection  operators is LMAX  =           4
   number of lm-projection operators is LMMAX =           8
 
 Optimization of the real space projectors (new method)

 maximal supplied QI-value         = 15.12
 optimisation between [QCUT,QGAM] = [ 13.45, 27.06] = [ 50.69,205.06] Ry 
 Optimized for a Real-space Cutoff    1.49 Angstroem

   l    n(q)    QCUT    max X(q) W(low)/X(q) W(high)/X(q)  e(spline) 
   1     12    13.455     4.841    0.13E-05    0.83E-06    0.56E-07
   1     12    13.455     5.701    0.32E-04    0.25E-04    0.17E-06
   2     11    13.455     4.569    0.64E-05    0.34E-05    0.50E-07
   2     11    13.455    32.276    0.49E-04    0.38E-04    0.46E-06
   0     12    13.455    30.046    0.17E-04    0.41E-05    0.51E-07
   0     12    13.455    45.433    0.12E-04    0.27E-04    0.38E-06
 Optimization of the real space projectors (new method)

 maximal supplied QI-value         = 24.76
 optimisation between [QCUT,QGAM] = [ 13.37, 26.98] = [ 50.04,203.89] Ry 
 Optimized for a Real-space Cutoff    1.17 Angstroem

   l    n(q)    QCUT    max X(q) W(low)/X(q) W(high)/X(q)  e(spline) 
   0      9    13.368     4.192    0.20E-04    0.58E-05    0.56E-07
   0      9    13.368     8.473    0.60E-04    0.52E-04    0.21E-06
   1      9    13.368     2.474    0.22E-04    0.17E-04    0.28E-07
   1      9    13.368     3.912    0.94E-04    0.97E-04    0.20E-06
 Optimization of the real space projectors (new method)

 maximal supplied QI-value         = 24.76
 optimisation between [QCUT,QGAM] = [ 13.37, 26.98] = [ 50.04,203.89] Ry 
 Optimized for a Real-space Cutoff    1.17 Angstroem

   l    n(q)    QCUT    max X(q) W(low)/X(q) W(high)/X(q)  e(spline) 
   0      9    13.368    14.049    0.39E-04    0.34E-04    0.16E-06
   0      9    13.368     8.945    0.54E-04    0.47E-04    0.20E-06
   1      9    13.368     7.086    0.99E-04    0.10E-03    0.23E-06
   1      9    13.368     6.747    0.86E-04    0.89E-04    0.21E-06

 ----------------------------------------------------------------------------- 
|                                                                             |
|  ADVICE TO THIS USER RUNNING 'VASP/VAMP'   (HEAR YOUR MASTER'S VOICE ...):  |
|                                                                             |
|      You enforced a specific xc-type in the INCAR file,                     |
|      a different type was found on the POTCAR file                          |
|          I HOPE YOU KNOW, WHAT YOU ARE  DOING                               |
|                                                                             |
 ----------------------------------------------------------------------------- 

 PAW_PBE Ti_pv 07Sep2000                :
 energy of atom  1       EATOM=-1042.3781
 kinetic energy error for atom=    0.0006 (will be added to EATOM!!)
 PAW_PBE O 08Apr2002                    :
 energy of atom  2       EATOM= -432.3788
 kinetic energy error for atom=    0.0091 (will be added to EATOM!!)
  PAW_PBE F 08Apr2002                   :
 energy of atom  3       EATOM= -659.6475
 kinetic energy error for atom=    0.0140 (will be added to EATOM!!)
 
 
 POSCAR: TiOF2 2x2x2 config 0004                 
  positions in direct lattice
  velocities in cartesian coordinates
 exchange correlation table for  LEXCH =       14
   RHO(1)=    0.500       N(1)  =     2000
   RHO(2)=  100.500       N(2)  =     4000

 VTST: version 3.1, (03/28/14)

 CHAIN: initializing optimizer
 
 OPT: Using VASP QUASI-newton optimizer
 CHAIN: Read ICHAIN            0
 
 POSCAR: TiOF2 2x2x2 config 0004                 
  positions in direct lattice
  velocities in cartesian coordinates
 


--------------------------------------------------------------------------------------------------------


 ion  position               nearest neighbor table
   1  1.000  0.000  0.989-  11 1.80  21 1.89  17 1.89  25 1.95  27 1.95  31 1.96
   2  0.000  0.000  0.511-  11 1.80  18 1.89  22 1.89  26 1.95  28 1.95  31 1.96
   3  1.000  0.500  0.989-  12 1.80  23 1.89  19 1.89  25 1.95  27 1.95  32 1.96
   4  0.000  0.500  0.511-  12 1.80  20 1.89  24 1.89  26 1.95  28 1.95  32 1.96
   5  0.500  0.988  0.000-   9 1.85  13 1.89  14 1.89  29 2.04  21 2.08  17 2.08
   6  0.500  0.988  0.500-  10 1.85  13 1.89  14 1.89  30 2.04  18 2.08  22 2.08
   7  0.500  0.512  0.000-   9 1.85  15 1.89  16 1.89  29 2.04  23 2.08  19 2.08
   8  0.500  0.512  0.500-  10 1.85  15 1.89  16 1.89  30 2.04  20 2.08  24 2.08
   9  0.500  0.750  1.000-   7 1.85   5 1.85
  10  0.500  0.750  0.500-   8 1.85   6 1.85
  11  1.000  1.000  0.750-   2 1.80   1 1.80
  12  0.000  0.500  0.750-   4 1.80   3 1.80
  13  0.500  0.006  0.250-   5 1.89   6 1.89
  14  0.500  0.006  0.750-   6 1.89   5 1.89
  15  0.500  0.494  0.250-   8 1.89   7 1.89
  16  0.500  0.494  0.750-   7 1.89   8 1.89
  17  0.238  0.001  0.005-   1 1.89   5 2.08
  18  0.238  0.001  0.495-   2 1.89   6 2.08
  19  0.238  0.499  0.005-   3 1.89   7 2.08
  20  0.238  0.499  0.495-   4 1.89   8 2.08
  21  0.762  0.001  0.005-   1 1.89   5 2.08
  22  0.762  0.001  0.495-   2 1.89   6 2.08
  23  0.762  0.499  0.005-   3 1.89   7 2.08
  24  0.762  0.499  0.495-   4 1.89   8 2.08
  25  1.000  0.250  0.006-   1 1.95   3 1.95
  26  0.000  0.250  0.494-   2 1.95   4 1.95
  27  1.000  0.750  0.006-   1 1.95   3 1.95
  28  0.000  0.750  0.494-   2 1.95   4 1.95
  29  0.500  0.250  1.000-   5 2.04   7 2.04
  30  0.500  0.250  0.500-   8 2.04   6 2.04
  31  1.000  1.000  0.250-   1 1.96   2 1.96
  32  0.000  0.500  0.250-   3 1.96   4 1.96
 

IMPORTANT INFORMATION: All symmetrisations will be switched off!
NOSYMM: (Re-)initialisation of all symmetry stuff for point group C_1.

 
 
 KPOINTS: Title                                   

Automatic generation of k-mesh.
Space group operators:
 irot       det(A)        alpha          n_x          n_y          n_z        tau_x        tau_y        tau_z
    1     1.000000     0.000000     1.000000     0.000000     0.000000     0.000000     0.000000     0.000000
 
 Subroutine IBZKPT returns following result:
 ===========================================
 
 Found     32 irreducible k-points:
 
 Following reciprocal coordinates:
            Coordinates               Weight
  0.125000  0.125000  0.125000      2.000000
  0.375000  0.125000  0.125000      2.000000
 -0.375000  0.125000  0.125000      2.000000
 -0.125000  0.125000  0.125000      2.000000
  0.125000  0.375000  0.125000      2.000000
  0.375000  0.375000  0.125000      2.000000
 -0.375000  0.375000  0.125000      2.000000
 -0.125000  0.375000  0.125000      2.000000
  0.125000 -0.375000  0.125000      2.000000
  0.375000 -0.375000  0.125000      2.000000
 -0.375000 -0.375000  0.125000      2.000000
 -0.125000 -0.375000  0.125000      2.000000
  0.125000 -0.125000  0.125000      2.000000
  0.375000 -0.125000  0.125000      2.000000
 -0.375000 -0.125000  0.125000      2.000000
 -0.125000 -0.125000  0.125000      2.000000
  0.125000  0.125000  0.375000      2.000000
  0.375000  0.125000  0.375000      2.000000
 -0.375000  0.125000  0.375000      2.000000
 -0.125000  0.125000  0.375000      2.000000
  0.125000  0.375000  0.375000      2.000000
  0.375000  0.375000  0.375000      2.000000
 -0.375000  0.375000  0.375000      2.000000
 -0.125000  0.375000  0.375000      2.000000
  0.125000 -0.375000  0.375000      2.000000
  0.375000 -0.375000  0.375000      2.000000
 -0.375000 -0.375000  0.375000      2.000000
 -0.125000 -0.375000  0.375000      2.000000
  0.125000 -0.125000  0.375000      2.000000
  0.375000 -0.125000  0.375000      2.000000
 -0.375000 -0.125000  0.375000      2.000000
 -0.125000 -0.125000  0.375000      2.000000
 
 Following cartesian coordinates:
            Coordinates               Weight
  0.015765  0.016038  0.016590      2.000000
  0.047294  0.016038  0.016590      2.000000
 -0.047294  0.016038  0.016590      2.000000
 -0.015765  0.016038  0.016590      2.000000
  0.015765  0.048115  0.016590      2.000000
  0.047294  0.048115  0.016590      2.000000
 -0.047294  0.048115  0.016590      2.000000
 -0.015765  0.048115  0.016590      2.000000
  0.015765 -0.048115  0.016590      2.000000
  0.047294 -0.048115  0.016590      2.000000
 -0.047294 -0.048115  0.016590      2.000000
 -0.015765 -0.048115  0.016590      2.000000
  0.015765 -0.016038  0.016590      2.000000
  0.047294 -0.016038  0.016590      2.000000
 -0.047294 -0.016038  0.016590      2.000000
 -0.015765 -0.016038  0.016590      2.000000
  0.015765  0.016038  0.049770      2.000000
  0.047294  0.016038  0.049770      2.000000
 -0.047294  0.016038  0.049770      2.000000
 -0.015765  0.016038  0.049770      2.000000
  0.015765  0.048115  0.049770      2.000000
  0.047294  0.048115  0.049770      2.000000
 -0.047294  0.048115  0.049770      2.000000
 -0.015765  0.048115  0.049770      2.000000
  0.015765 -0.048115  0.049770      2.000000
  0.047294 -0.048115  0.049770      2.000000
 -0.047294 -0.048115  0.049770      2.000000
 -0.015765 -0.048115  0.049770      2.000000
  0.015765 -0.016038  0.049770      2.000000
  0.047294 -0.016038  0.049770      2.000000
 -0.047294 -0.016038  0.049770      2.000000
 -0.015765 -0.016038  0.049770      2.000000
 


--------------------------------------------------------------------------------------------------------




 Dimension of arrays:
   k-points           NKPTS =     32   k-points in BZ     NKDIM =     32   number of bands    NBANDS=    160
   number of dos      NEDOS =   3001   number of ions     NIONS =     32
   non local maximal  LDIM  =      6   non local SUM 2l+1 LMDIM =     18
   total plane-waves  NPLWV = 343000
   max r-space proj   IRMAX =  10213   max aug-charges    IRDMAX= 228965
   dimension x,y,z NGX =    70 NGY =   70 NGZ =   70
   dimension x,y,z NGXF=   140 NGYF=  140 NGZF=  140
   support grid    NGXF=   280 NGYF=  280 NGZF=  280
   ions per type =               8   8  16
   NGX,Y,Z   is equivalent  to a cutoff of  14.68, 14.93, 15.44 a.u.
   NGXF,Y,Z  is equivalent  to a cutoff of  29.35, 29.86, 30.89 a.u.

 SYSTEM =  LTO                                     
 POSCAR =  TiOF2 2x2x2 config 0004                 

 Startparameter for this run:
   NWRITE =      2    write-flag & timer
   PREC   = accura    normal or accurate (medium, high low for compatibility)
   ISTART =      1    job   : 0-new  1-cont  2-samecut
   ICHARG =      0    charge: 1-file 2-atom 10-const
   ISPIN  =      2    spin polarized calculation?
   LNONCOLLINEAR =      F non collinear calculations
   LSORBIT =      F    spin-orbit coupling
   INIWAV =      1    electr: 0-lowe 1-rand  2-diag
   LASPH  =      T    aspherical Exc in radial PAW
   METAGGA=      F    non-selfconsistent MetaGGA calc.

 Electronic Relaxation 1
   ENCUT  =  700.0 eV  51.45 Ry    7.17 a.u.  17.11 16.81 16.25*2*pi/ulx,y,z
   ENINI  =  700.0     initial cutoff
   ENAUG  =  613.6 eV  augmentation charge cutoff
   NELM   =     60;   NELMIN=  2; NELMDL=  0     # of ELM steps 
   EDIFF  = 0.1E-05   stopping-criterion for ELM
   LREAL  =      T    real-space projection
   NLSPLINE    = F    spline interpolate recip. space projectors
   LCOMPAT=      F    compatible to vasp.4.4
   GGA_COMPAT  = T    GGA compatible to vasp.4.4-vasp.4.6
   LMAXPAW     = -100 max onsite density
   LMAXMIX     =    4 max onsite mixed and CHGCAR
   VOSKOWN=      0    Vosko Wilk Nusair interpolation
   ROPT   =   -0.00010  -0.00010  -0.00010
 Ionic relaxation
   EDIFFG = -.1E-01   stopping-criterion for IOM
   NSW    =    100    number of steps for IOM
   NBLOCK =      1;   KBLOCK =    100    inner block; outer block 
   IBRION =      1    ionic relax: 0-MD 1-quasi-New 2-CG
   NFREE  =      0    steps in history (QN), initial steepest desc. (CG)
   ISIF   =      3    stress and relaxation
   IWAVPR =     11    prediction:  0-non 1-charg 2-wave 3-comb
   ISYM   =      0    0-nonsym 1-usesym 2-fastsym
   LCORR  =      T    Harris-Foulkes like correction to forces

   POTIM  = 0.5000    time-step for ionic-motion
   TEIN   =    0.0    initial temperature
   TEBEG  =    0.0;   TEEND  =   0.0 temperature during run
   SMASS  =  -3.00    Nose mass-parameter (am)
   estimated Nose-frequenzy (Omega)   =  0.10E-29 period in steps =****** mass=  -0.144E-26a.u.
   SCALEE = 1.0000    scale energy and forces
   NPACO  =    256;   APACO  = 16.0  distance and # of slots for P.C.
   PSTRESS=    0.0 pullay stress

  Mass of Ions in am
   POMASS =  47.88 16.00 19.00
  Ionic Valenz
   ZVAL   =  10.00  6.00  7.00
  Atomic Wigner-Seitz radii
   RWIGS  =  -1.00 -1.00 -1.00
  virtual crystal weights 
   VCA    =   1.00  1.00  1.00
   NELECT =     240.0000    total number of electrons
   NUPDOWN=      -1.0000    fix difference up-down

 DOS related values:
   EMIN   =  10.00;   EMAX   =-10.00  energy-range for DOS
   EFERMI =   0.00
   ISMEAR =     0;   SIGMA  =   0.01  broadening in eV -4-tet -1-fermi 0-gaus

 Electronic relaxation 2 (details)
   IALGO  =     38    algorithm
   LDIAG  =      T    sub-space diagonalisation (order eigenvalues)
   LSUBROT=      F    optimize rotation matrix (better conditioning)
   TURBO    =      0    0=normal 1=particle mesh
   IRESTART =      0    0=no restart 2=restart with 2 vectors
   NREBOOT  =      0    no. of reboots
   NMIN     =      0    reboot dimension
   EREF     =   0.00    reference energy to select bands
   IMIX   =      4    mixing-type and parameters
     AMIX     =   0.40;   BMIX     =  1.00
     AMIX_MAG =   1.60;   BMIX_MAG =  1.00
     AMIN     =   0.10
     WC   =   100.;   INIMIX=   1;  MIXPRE=   1;  MAXMIX= -45

 Intra band minimization:
   WEIMIN = 0.0010     energy-eigenvalue tresh-hold
   EBREAK =  0.16E-08  absolut break condition
   DEPER  =   0.30     relativ break condition  

   TIME   =   0.40     timestep for ELM

  volume/ion in A,a.u.               =      14.55        98.20
  Fermi-wavevector in a.u.,A,eV,Ry     =   1.312592  2.480439 23.441438  1.722897
  Thomas-Fermi vector in A             =   2.442973
 
 Write flags
   LWAVE        =      T    write WAVECAR
   LDOWNSAMPLE  =      F    k-point downsampling of WAVECAR
   LCHARG       =      T    write CHGCAR
   LVTOT        =      F    write LOCPOT, total local potential
   LVHAR        =      F    write LOCPOT, Hartree potential only
   LELF         =      F    write electronic localiz. function (ELF)
   LORBIT       =     11    0 simple, 1 ext, 2 COOP (PROOUT), +10 PAW based schemes


 Dipole corrections
   LMONO  =      F    monopole corrections only (constant potential shift)
   LDIPOL =      F    correct potential (dipole corrections)
   IDIPOL =      0    1-x, 2-y, 3-z, 4-all directions 
   EPSILON=  1.0000000 bulk dielectric constant

 LDA+U is selected, type is set to LDAUTYPE =  2
   angular momentum for each species LDAUL =     2   -1   -1
   U (eV)           for each species LDAUU =   4.2  0.0  0.0
   J (eV)           for each species LDAUJ =   0.0  0.0  0.0
 Exchange correlation treatment:
   GGA     =    PS    GGA type
   LEXCH   =    14    internal setting for exchange type
   VOSKOWN=      0    Vosko Wilk Nusair interpolation
   LHFCALC =     F    Hartree Fock is set to
   LHFONE  =     F    Hartree Fock one center treatment
   AEXX    =    0.0000 exact exchange contribution

 Linear response parameters
   LEPSILON=     F    determine dielectric tensor
   LRPA    =     F    only Hartree local field effects (RPA)
   LNABLA  =     F    use nabla operator in PAW spheres
   LVEL    =     F    velocity operator in full k-point grid
   LINTERFAST=   F  fast interpolation
   KINTER  =     0    interpolate to denser k-point grid
   CSHIFT  =0.1000    complex shift for real part using Kramers Kronig
   OMEGAMAX=  -1.0    maximum frequency
   DEG_THRESHOLD= 0.2000000E-02 threshold for treating states as degnerate
   RTIME   =   -0.100 relaxation time in fs
  (WPLASMAI=    0.000 imaginary part of plasma frequency in eV, 0.658/RTIME)
   DFIELD  = 0.0000000 0.0000000 0.0000000 field for delta impulse in time
 
 Orbital magnetization related:
   ORBITALMAG=     F  switch on orbital magnetization
   LCHIMAG   =     F  perturbation theory with respect to B field
   DQ        =  0.001000  dq finite difference perturbation B field
   LLRAUG    =     F  two centre corrections for induced B field



--------------------------------------------------------------------------------------------------------


 quasi-Newton-method for relaxation of ions
 charge density and potential will be updated during run
 spin polarized calculation
 Variant of blocked Davidson
 Davidson routine will perform the subspace rotation
 perform sub-space diagonalisation
    after iterative eigenvector-optimisation
 modified Broyden-mixing scheme, WC =      100.0
 initial mixing is a Kerker type mixing with AMIX =  0.4000 and BMIX =      1.0000
 Hartree-type preconditioning will be used
 using additional bands           40
 real space projection scheme for non local part
 use partial core corrections
 calculate Harris-corrections to forces 
   (improved forces if not selfconsistent)
 use gradient corrections 
 use of overlap-Matrix (Vanderbilt PP)
 Gauss-broadening in eV      SIGMA  =   0.01


--------------------------------------------------------------------------------------------------------


  energy-cutoff  :      700.00
  volume of cell :      465.64
      direct lattice vectors                 reciprocal lattice vectors
     7.929190148 -0.000000124 -0.000000001     0.126116284  0.000000002  0.000000000
    -0.000000127  7.793904407 -0.000000085     0.000000002  0.128305397  0.000000001
    -0.000000003 -0.000000083  7.534645413     0.000000000  0.000000001  0.132720247

  length of vectors
     7.929190148  7.793904407  7.534645413     0.126116284  0.128305397  0.132720247


 
 old parameters found on file WAVECAR:
  energy-cutoff  :      700.00
  volume of cell :      465.64
      direct lattice vectors                 reciprocal lattice vectors
     7.929190148 -0.000000124 -0.000000001     0.126116284  0.000000002  0.000000000
    -0.000000127  7.793904407 -0.000000085     0.000000002  0.128305397  0.000000001
    -0.000000003 -0.000000083  7.534645413     0.000000000  0.000000001  0.132720247

  length of vectors

 
 k-points in units of 2pi/SCALE and weight: Title                                   
   0.01576454  0.01603818  0.01659003       0.031
   0.04729361  0.01603818  0.01659003       0.031
  -0.04729361  0.01603817  0.01659003       0.031
  -0.01576454  0.01603817  0.01659003       0.031
   0.01576454  0.04811452  0.01659003       0.031
   0.04729361  0.04811452  0.01659003       0.031
  -0.04729361  0.04811452  0.01659003       0.031
  -0.01576453  0.04811452  0.01659003       0.031
   0.01576453 -0.04811452  0.01659003       0.031
   0.04729361 -0.04811452  0.01659003       0.031
  -0.04729361 -0.04811452  0.01659003       0.031
  -0.01576454 -0.04811452  0.01659003       0.031
   0.01576454 -0.01603817  0.01659003       0.031
   0.04729361 -0.01603817  0.01659003       0.031
  -0.04729361 -0.01603818  0.01659003       0.031
  -0.01576454 -0.01603817  0.01659003       0.031
   0.01576454  0.01603818  0.04977009       0.031
   0.04729361  0.01603818  0.04977009       0.031
  -0.04729361  0.01603817  0.04977009       0.031
  -0.01576454  0.01603817  0.04977009       0.031
   0.01576454  0.04811452  0.04977009       0.031
   0.04729361  0.04811453  0.04977009       0.031
  -0.04729361  0.04811452  0.04977009       0.031
  -0.01576453  0.04811452  0.04977009       0.031
   0.01576453 -0.04811452  0.04977009       0.031
   0.04729361 -0.04811452  0.04977009       0.031
  -0.04729361 -0.04811452  0.04977009       0.031
  -0.01576454 -0.04811452  0.04977009       0.031
   0.01576454 -0.01603817  0.04977009       0.031
   0.04729361 -0.01603817  0.04977009       0.031
  -0.04729361 -0.01603817  0.04977009       0.031
  -0.01576454 -0.01603817  0.04977009       0.031
 
 k-points in reciprocal lattice and weights: Title                                   
   0.12500000  0.12500000  0.12500000       0.031
   0.37500000  0.12500000  0.12500000       0.031
  -0.37500000  0.12500000  0.12500000       0.031
  -0.12500000  0.12500000  0.12500000       0.031
   0.12500000  0.37500000  0.12500000       0.031
   0.37500000  0.37500000  0.12500000       0.031
  -0.37500000  0.37500000  0.12500000       0.031
  -0.12500000  0.37500000  0.12500000       0.031
   0.12500000 -0.37500000  0.12500000       0.031
   0.37500000 -0.37500000  0.12500000       0.031
  -0.37500000 -0.37500000  0.12500000       0.031
  -0.12500000 -0.37500000  0.12500000       0.031
   0.12500000 -0.12500000  0.12500000       0.031
   0.37500000 -0.12500000  0.12500000       0.031
  -0.37500000 -0.12500000  0.12500000       0.031
  -0.12500000 -0.12500000  0.12500000       0.031
   0.12500000  0.12500000  0.37500000       0.031
   0.37500000  0.12500000  0.37500000       0.031
  -0.37500000  0.12500000  0.37500000       0.031
  -0.12500000  0.12500000  0.37500000       0.031
   0.12500000  0.37500000  0.37500000       0.031
   0.37500000  0.37500000  0.37500000       0.031
  -0.37500000  0.37500000  0.37500000       0.031
  -0.12500000  0.37500000  0.37500000       0.031
   0.12500000 -0.37500000  0.37500000       0.031
   0.37500000 -0.37500000  0.37500000       0.031
  -0.37500000 -0.37500000  0.37500000       0.031
  -0.12500000 -0.37500000  0.37500000       0.031
   0.12500000 -0.12500000  0.37500000       0.031
   0.37500000 -0.12500000  0.37500000       0.031
  -0.37500000 -0.12500000  0.37500000       0.031
  -0.12500000 -0.12500000  0.37500000       0.031
 
 position of ions in fractional coordinates (direct lattice) 
   0.99999999  0.00013683  0.98948214
   0.00000001  0.00013682  0.51051785
   0.99999999  0.49986321  0.98948207
   0.00000001  0.49986320  0.51051795
   0.50000000  0.98781200  0.00039335
   0.50000000  0.98781199  0.49960678
   0.50000000  0.51218799  0.00039324
   0.50000000  0.51218798  0.49960668
   0.50000000  0.74999999  0.99977408
   0.50000000  0.74999998  0.50022592
   1.00000000  0.99964523  0.74999997
   0.00000000  0.50035479  0.74999999
   0.50000000  0.00630187  0.25000001
   0.50000000  0.00621513  0.75000001
   0.50000000  0.49369810  0.25000000
   0.50000000  0.49378485  0.74999999
   0.23790508  0.00098419  0.00547990
   0.23790509  0.00098415  0.49452003
   0.23790509  0.49901582  0.00547996
   0.23790510  0.49901583  0.49452007
   0.76209491  0.00098416  0.00547993
   0.76209492  0.00098418  0.49452005
   0.76209490  0.49901585  0.00547998
   0.76209491  0.49901581  0.49452009
   0.99999997  0.25000001  0.00623021
   0.00000003  0.25000000  0.49376977
   0.99999999  0.75000002  0.00628051
   0.00000001  0.75000001  0.49371947
   0.50000002  0.24999999  0.99978659
   0.49999998  0.24999999  0.50021340
   1.00000000  0.99962911  0.24999999
   0.00000000  0.50037092  0.25000001
 
 position of ions in cartesian coordinates  (Angst):
   7.92919009  0.00106621  7.45539710
   0.00000004  0.00106631  3.84657095
   7.92919004  3.89588584  7.45539649
  -0.00000001  3.89588593  3.84657172
   3.96459491  7.69891222  0.00296363
   3.96459496  7.69891213  3.76435986
   3.96459499  3.99194416  0.00296286
   3.96459504  3.99194407  3.76435914
   3.96459495  5.84542809  7.53294312
   3.96459500  5.84542808  3.76902487
   7.92919001  7.79113919  5.65098378
  -0.00000006  3.89971738  5.65098391
   3.96459506  0.04911611  1.88366141
   3.96459505  0.04843998  5.65098410
   3.96459503  3.84783572  1.88366130
   3.96459503  3.84851177  5.65098397
   1.88639464  0.00767062  0.04128911
   1.88639466  0.00767032  3.72603307
   1.88639465  3.88928156  0.04128949
   1.88639467  3.88928162  3.72603330
   6.04279542  0.00767039  0.04128930
   6.04279553  0.00767049  3.72603326
   6.04279533  3.88928173  0.04128969
   6.04279542  3.88928140  3.72603349
   7.92918986  1.94847604  0.04694240
   0.00000022  1.94847609  3.72038014
   7.92919000  5.84542833  0.04732138
  -0.00000004  5.84542832  3.72000108
   3.96459523  1.94847589  7.53303741
   3.96459485  1.94847591  3.76893061
   7.92919002  7.79101357  1.88366123
  -0.00000006  3.89984310  1.88366139
 


--------------------------------------------------------------------------------------------------------


 k-point  1 :   0.1250 0.1250 0.1250  plane waves:   19560
 k-point  2 :   0.3750 0.1250 0.1250  plane waves:   19609
 k-point  3 :  -0.3750 0.1250 0.1250  plane waves:   19609
 k-point  4 :  -0.1250 0.1250 0.1250  plane waves:   19560
 k-point  5 :   0.1250 0.3750 0.1250  plane waves:   19581
 k-point  6 :   0.3750 0.3750 0.1250  plane waves:   19564
 k-point  7 :  -0.3750 0.3750 0.1250  plane waves:   19564
 k-point  8 :  -0.1250 0.3750 0.1250  plane waves:   19581
 k-point  9 :   0.1250-0.3750 0.1250  plane waves:   19581
 k-point 10 :   0.3750-0.3750 0.1250  plane waves:   19564
 k-point 11 :  -0.3750-0.3750 0.1250  plane waves:   19564
 k-point 12 :  -0.1250-0.3750 0.1250  plane waves:   19581
 k-point 13 :   0.1250-0.1250 0.1250  plane waves:   19560
 k-point 14 :   0.3750-0.1250 0.1250  plane waves:   19609
 k-point 15 :  -0.3750-0.1250 0.1250  plane waves:   19609
 k-point 16 :  -0.1250-0.1250 0.1250  plane waves:   19560
 k-point 17 :   0.1250 0.1250 0.3750  plane waves:   19568
 k-point 18 :   0.3750 0.1250 0.3750  plane waves:   19574
 k-point 19 :  -0.3750 0.1250 0.3750  plane waves:   19574
 k-point 20 :  -0.1250 0.1250 0.3750  plane waves:   19568
 k-point 21 :   0.1250 0.3750 0.3750  plane waves:   19570
 k-point 22 :   0.3750 0.3750 0.3750  plane waves:   19608
 k-point 23 :  -0.3750 0.3750 0.3750  plane waves:   19608
 k-point 24 :  -0.1250 0.3750 0.3750  plane waves:   19570
 k-point 25 :   0.1250-0.3750 0.3750  plane waves:   19570
 k-point 26 :   0.3750-0.3750 0.3750  plane waves:   19608
 k-point 27 :  -0.3750-0.3750 0.3750  plane waves:   19608
 k-point 28 :  -0.1250-0.3750 0.3750  plane waves:   19570
 k-point 29 :   0.1250-0.1250 0.3750  plane waves:   19568
 k-point 30 :   0.3750-0.1250 0.3750  plane waves:   19574
 k-point 31 :  -0.3750-0.1250 0.3750  plane waves:   19574
 k-point 32 :  -0.1250-0.1250 0.3750  plane waves:   19568

 maximum and minimum number of plane-waves per node :      2483     2415

 maximum number of plane-waves:     19609
 maximum index in each direction: 
   IXMAX=   17   IYMAX=   17   IZMAX=   16
   IXMIN=  -17   IYMIN=  -17   IZMIN=  -16


 real space projection operators:
  total allocation   :      18368.88 KBytes
  max/ min on nodes  :       2438.56       1916.00


 parallel 3D FFT for wavefunctions:
    minimum data exchange during FFTs selected (reduces bandwidth)
 parallel 3D FFT for charge:
    minimum data exchange during FFTs selected (reduces bandwidth)


 total amount of memory used by VASP MPI-rank0   107305. kBytes
=======================================================================

   base      :      30000. kBytes
   nonlr-proj:       8530. kBytes
   fftplans  :       8423. kBytes
   grid      :       8783. kBytes
   one-center:        124. kBytes
   wavefun   :      51445. kBytes
 
     INWAV:  cpu time   30.1504: real time   41.0577
 Broyden mixing: mesh for mixing (old mesh)
   NGX = 35   NGY = 33   NGZ = 33
  (NGX  =140   NGY  =140   NGZ  =140)
  gives a total of  38115 points

 charge density for first step will be calculated from the start-wavefunctions


--------------------------------------------------------------------------------------------------------


 Maximum index for non-local projection operator         1376
 Maximum index for augmentation-charges         7136 (set IRDMAX)


--------------------------------------------------------------------------------------------------------


 initial charge from wavefunction
 First call to EWALD:  gamma=   0.229
 Maximum number of real-space cells 3x 3x 3
 Maximum number of reciprocal cells 3x 3x 3

    FEWALD:  cpu time    0.0040: real time    0.0030


--------------------------------------- Iteration      1(   1)  ---------------------------------------


    POTLOK:  cpu time    0.2630: real time    0.2855
    SETDIJ:  cpu time    0.8349: real time    0.8398
     EDDAV:  cpu time   35.8835: real time   36.0965
       DOS:  cpu time    0.0060: real time    0.0056
    CHARGE:  cpu time    1.1628: real time    1.1709
    MIXING:  cpu time    0.0020: real time    0.0018
    --------------------------------------------
      LOOP:  cpu time   38.1522: real time   38.4002

 eigenvalue-minimisations  : 28224
 total energy-change (2. order) :-0.2101918E+03  (-0.8720954E-05)
 number of electron     240.0000002 magnetization      -0.0019781
 augmentation part       61.8902777 magnetization      -0.0001777

 Broyden mixing:
  rms(total) = 0.85306E-01    rms(broyden)= 0.85298E-01
  rms(prec ) = 0.15957E+00
  weight for this iteration     100.00

 Free energy of the ion-electron system (eV)
  ---------------------------------------------------
  alpha Z        PSCENC =       752.01651359
  Ewald energy   TEWEN  =    -12708.68396657
  -Hartree energ DENC   =     -8303.66137128
  -exchange      EXHF   =         0.00000000
  -V(xc)+E(xc)   XCENC  =      1119.24228101
  PAW double counting   =     17987.84578978   -18110.92940239
  entropy T*S    EENTRO =        -0.00220934
  eigenvalues    EBANDS =     -3248.37264126
  atomic energy  EATOM  =     22302.35321627
  Solvation  Ediel_sol  =         0.00000000
  ---------------------------------------------------
  free energy    TOTEN  =      -210.19179018 eV

  energy without entropy =     -210.18958084  energy(sigma->0) =     -210.19068551


--------------------------------------------------------------------------------------------------------




--------------------------------------- Iteration      1(   2)  ---------------------------------------


    POTLOK:  cpu time    0.1350: real time    0.1578
    SETDIJ:  cpu time    0.8329: real time    0.8391
     EDDAV:  cpu time   35.0877: real time   35.2600
       DOS:  cpu time    0.0040: real time    0.0048
    CHARGE:  cpu time    1.1488: real time    1.1567
    MIXING:  cpu time    0.0090: real time    0.0099
    --------------------------------------------
      LOOP:  cpu time   37.2173: real time   37.4282

 eigenvalue-minimisations  : 27456
 total energy-change (2. order) :-0.7298034E-01  (-0.5336657E-02)
 number of electron     240.0000002 magnetization      -0.0015871
 augmentation part       62.0825982 magnetization      -0.0016778

 Broyden mixing:
  rms(total) = 0.18258E+00    rms(broyden)= 0.18256E+00
  rms(prec ) = 0.31562E+00
  weight for this iteration     100.00

 eigenvalues of (default mixing * dielectric matrix)
  average eigenvalue GAMMA=   0.3137
  0.3137

 Free energy of the ion-electron system (eV)
  ---------------------------------------------------
  alpha Z        PSCENC =       752.01651359
  Ewald energy   TEWEN  =    -12708.68396657
  -Hartree energ DENC   =     -8302.09586149
  -exchange      EXHF   =         0.00000000
  -V(xc)+E(xc)   XCENC  =      1119.28879679
  PAW double counting   =     17984.40263511   -18107.71467770
  entropy T*S    EENTRO =        -0.00000454
  eigenvalues    EBANDS =     -3249.83142199
  atomic energy  EATOM  =     22302.35321627
  Solvation  Ediel_sol  =         0.00000000
  ---------------------------------------------------
  free energy    TOTEN  =      -210.26477052 eV

  energy without entropy =     -210.26476599  energy(sigma->0) =     -210.26476826


--------------------------------------------------------------------------------------------------------




--------------------------------------- Iteration      1(   3)  ---------------------------------------


    POTLOK:  cpu time    0.1500: real time    0.1607
    SETDIJ:  cpu time    0.8409: real time    0.8394
     EDDAV:  cpu time   34.9417: real time   34.9276
       DOS:  cpu time    0.0030: real time    0.0039
    CHARGE:  cpu time    1.1638: real time    1.1594
    MIXING:  cpu time    0.0020: real time    0.0025
    --------------------------------------------
      LOOP:  cpu time   37.1014: real time   37.0935

 eigenvalue-minimisations  : 27136
 total energy-change (2. order) : 0.5970184E-01  (-0.3305626E-02)
 number of electron     240.0000002 magnetization      -0.0013921
 augmentation part       62.0224400 magnetization      -0.0014530

 Broyden mixing:
  rms(total) = 0.10907E+00    rms(broyden)= 0.10907E+00
  rms(prec ) = 0.20172E+00
  weight for this iteration     100.00

 eigenvalues of (default mixing * dielectric matrix)
  average eigenvalue GAMMA=   0.3594
  0.3594  0.3594

 Free energy of the ion-electron system (eV)
  ---------------------------------------------------
  alpha Z        PSCENC =       752.01651359
  Ewald energy   TEWEN  =    -12708.68396657
  -Hartree energ DENC   =     -8302.73319886
  -exchange      EXHF   =         0.00000000
  -V(xc)+E(xc)   XCENC  =      1119.21475956
  PAW double counting   =     17986.29379241   -18109.38783693
  entropy T*S    EENTRO =        -0.00000000
  eigenvalues    EBANDS =     -3249.27834814
  atomic energy  EATOM  =     22302.35321627
  Solvation  Ediel_sol  =         0.00000000
  ---------------------------------------------------
  free energy    TOTEN  =      -210.20506868 eV

  energy without entropy =     -210.20506868  energy(sigma->0) =     -210.20506868


--------------------------------------------------------------------------------------------------------




--------------------------------------- Iteration      1(   4)  ---------------------------------------


    POTLOK:  cpu time    0.1660: real time    0.1860
    SETDIJ:  cpu time    0.8569: real time    0.8558
     EDDAV:  cpu time   34.6537: real time   34.6432
       DOS:  cpu time    0.0060: real time    0.0054
    CHARGE:  cpu time    1.1638: real time    1.1627
    MIXING:  cpu time    0.0030: real time    0.0021
    --------------------------------------------
      LOOP:  cpu time   36.8494: real time   36.8552

 eigenvalue-minimisations  : 26944
 total energy-change (2. order) : 0.1026350E-01  (-0.3707287E-03)
 number of electron     240.0000002 magnetization      -0.0016700
 augmentation part       62.0226074 magnetization      -0.0010652

 Broyden mixing:
  rms(total) = 0.96922E-01    rms(broyden)= 0.96921E-01
  rms(prec ) = 0.18039E+00
  weight for this iteration     100.00

 eigenvalues of (default mixing * dielectric matrix)
  average eigenvalue GAMMA=   0.3892
  0.4247  0.4247  0.3182

 Free energy of the ion-electron system (eV)
  ---------------------------------------------------
  alpha Z        PSCENC =       752.01651359
  Ewald energy   TEWEN  =    -12708.68396657
  -Hartree energ DENC   =     -8303.14629714
  -exchange      EXHF   =         0.00000000
  -V(xc)+E(xc)   XCENC  =      1119.22909281
  PAW double counting   =     17986.93174971   -18110.03197839
  entropy T*S    EENTRO =        -0.00013155
  eigenvalues    EBANDS =     -3248.86300389
  atomic energy  EATOM  =     22302.35321627
  Solvation  Ediel_sol  =         0.00000000
  ---------------------------------------------------
  free energy    TOTEN  =      -210.19480518 eV

  energy without entropy =     -210.19467363  energy(sigma->0) =     -210.19473941


--------------------------------------------------------------------------------------------------------




--------------------------------------- Iteration      1(   5)  ---------------------------------------


    POTLOK:  cpu time    0.2540: real time    0.2786
    SETDIJ:  cpu time    0.8399: real time    0.8382
     EDDAV:  cpu time   35.9385: real time   35.9277
       DOS:  cpu time    0.0060: real time    0.0056
    CHARGE:  cpu time    1.1798: real time    1.1784
    MIXING:  cpu time    0.0020: real time    0.0021
    --------------------------------------------
      LOOP:  cpu time   38.2202: real time   38.2306

 eigenvalue-minimisations  : 28096
 total energy-change (2. order) : 0.3837920E-02  (-0.7411761E-04)
 number of electron     240.0000002 magnetization      -0.0034202
 augmentation part       61.9907666 magnetization       0.0090930

 Broyden mixing:
  rms(total) = 0.53931E-01    rms(broyden)= 0.53929E-01
  rms(prec ) = 0.99925E-01
  weight for this iteration     100.00

 eigenvalues of (default mixing * dielectric matrix)
  average eigenvalue GAMMA=   0.3032
  0.4288  0.4288  0.3235  0.0316

 Free energy of the ion-electron system (eV)
  ---------------------------------------------------
  alpha Z        PSCENC =       752.01651359
  Ewald energy   TEWEN  =    -12708.68396657
  -Hartree energ DENC   =     -8303.48138184
  -exchange      EXHF   =         0.00000000
  -V(xc)+E(xc)   XCENC  =      1119.24100839
  PAW double counting   =     17987.53394744   -18110.62915822
  entropy T*S    EENTRO =        -0.00180398
  eigenvalues    EBANDS =     -3248.53934234
  atomic energy  EATOM  =     22302.35321627
  Solvation  Ediel_sol  =         0.00000000
  ---------------------------------------------------
  free energy    TOTEN  =      -210.19096726 eV

  energy without entropy =     -210.18916328  energy(sigma->0) =     -210.19006527


--------------------------------------------------------------------------------------------------------




--------------------------------------- Iteration      1(   6)  ---------------------------------------


    POTLOK:  cpu time    0.1420: real time    0.3068
    SETDIJ:  cpu time    0.8389: real time    0.8384
     EDDAV:  cpu time   28.5977: real time   28.5950
       DOS:  cpu time    0.0060: real time    0.0055
    CHARGE:  cpu time    1.1618: real time    1.1602
    MIXING:  cpu time    0.0020: real time    0.0024
    --------------------------------------------
      LOOP:  cpu time   30.7483: real time   30.9082

 eigenvalue-minimisations  : 20672
 total energy-change (2. order) :-0.3040255E-04  (-0.6445109E-05)
 number of electron     240.0000002 magnetization      -0.0018854
 augmentation part       61.9848692 magnetization       0.0322186

 Broyden mixing:
  rms(total) = 0.49263E-01    rms(broyden)= 0.49262E-01
  rms(prec ) = 0.86237E-01
  weight for this iteration     100.00

 eigenvalues of (default mixing * dielectric matrix)
  average eigenvalue GAMMA=   0.3017
  0.4394  0.4394  0.2872  0.2872  0.0556

 Free energy of the ion-electron system (eV)
  ---------------------------------------------------
  alpha Z        PSCENC =       752.01651359
  Ewald energy   TEWEN  =    -12708.68396657
  -Hartree energ DENC   =     -8303.49426840
  -exchange      EXHF   =         0.00000000
  -V(xc)+E(xc)   XCENC  =      1119.24130244
  PAW double counting   =     17987.56020964   -18110.65466940
  entropy T*S    EENTRO =        -0.00193219
  eigenvalues    EBANDS =     -3248.52740304
  atomic energy  EATOM  =     22302.35321627
  Solvation  Ediel_sol  =         0.00000000
  ---------------------------------------------------
  free energy    TOTEN  =      -210.19099766 eV

  energy without entropy =     -210.18906547  energy(sigma->0) =     -210.19003157


--------------------------------------------------------------------------------------------------------




--------------------------------------- Iteration      1(   7)  ---------------------------------------


    POTLOK:  cpu time    0.1450: real time    0.1698
    SETDIJ:  cpu time    0.8409: real time    0.8387
     EDDAV:  cpu time   35.3716: real time   35.3604
       DOS:  cpu time    0.0060: real time    0.0055
    CHARGE:  cpu time    1.1798: real time    1.1777
    MIXING:  cpu time    0.0020: real time    0.0024
    --------------------------------------------
      LOOP:  cpu time   37.5453: real time   37.5546

 eigenvalue-minimisations  : 27520
 total energy-change (2. order) : 0.5203365E-03  (-0.2135301E-05)
 number of electron     240.0000002 magnetization      -0.0024397
 augmentation part       61.9604376 magnetization       0.0133671

 Broyden mixing:
  rms(total) = 0.12327E-01    rms(broyden)= 0.12316E-01
  rms(prec ) = 0.21197E-01
  weight for this iteration     100.00

 eigenvalues of (default mixing * dielectric matrix)
  average eigenvalue GAMMA=   0.3119
  0.4769  0.4769  0.3622  0.3622  0.1357  0.0573

 Free energy of the ion-electron system (eV)
  ---------------------------------------------------
  alpha Z        PSCENC =       752.01651359
  Ewald energy   TEWEN  =    -12708.68396657
  -Hartree energ DENC   =     -8303.56493579
  -exchange      EXHF   =         0.00000000
  -V(xc)+E(xc)   XCENC  =      1119.24302778
  PAW double counting   =     17987.70663791   -18110.79703340
  entropy T*S    EENTRO =        -0.00261618
  eigenvalues    EBANDS =     -3248.46132094
  atomic energy  EATOM  =     22302.35321627
  Solvation  Ediel_sol  =         0.00000000
  ---------------------------------------------------
  free energy    TOTEN  =      -210.19047733 eV

  energy without entropy =     -210.18786114  energy(sigma->0) =     -210.18916924


--------------------------------------------------------------------------------------------------------




--------------------------------------- Iteration      1(   8)  ---------------------------------------


    POTLOK:  cpu time    0.1670: real time    0.1898
    SETDIJ:  cpu time    0.8389: real time    0.8380
     EDDAV:  cpu time   27.2899: real time   27.2813
       DOS:  cpu time    0.0050: real time    0.0051
    CHARGE:  cpu time    1.1668: real time    1.1640
    MIXING:  cpu time    0.0030: real time    0.0024
    --------------------------------------------
      LOOP:  cpu time   29.4705: real time   29.4807

 eigenvalue-minimisations  : 19488
 total energy-change (2. order) :-0.3621950E-04  (-0.6468114E-06)
 number of electron     240.0000002 magnetization       0.0003356
 augmentation part       61.9611397 magnetization       0.0205934

 Broyden mixing:
  rms(total) = 0.14031E-01    rms(broyden)= 0.14031E-01
  rms(prec ) = 0.23496E-01
  weight for this iteration     100.00

 eigenvalues of (default mixing * dielectric matrix)
  average eigenvalue GAMMA=   0.3576
  0.5208  0.5208  0.4339  0.4339  0.3798  0.1573  0.0566

 Free energy of the ion-electron system (eV)
  ---------------------------------------------------
  alpha Z        PSCENC =       752.01651359
  Ewald energy   TEWEN  =    -12708.68396657
  -Hartree energ DENC   =     -8303.56309330
  -exchange      EXHF   =         0.00000000
  -V(xc)+E(xc)   XCENC  =      1119.24296819
  PAW double counting   =     17987.70297024   -18110.79349403
  entropy T*S    EENTRO =        -0.00259838
  eigenvalues    EBANDS =     -3248.46302955
  atomic energy  EATOM  =     22302.35321627
  Solvation  Ediel_sol  =         0.00000000
  ---------------------------------------------------
  free energy    TOTEN  =      -210.19051355 eV

  energy without entropy =     -210.18791517  energy(sigma->0) =     -210.18921436


--------------------------------------------------------------------------------------------------------




--------------------------------------- Iteration      1(   9)  ---------------------------------------


    POTLOK:  cpu time    0.1370: real time    0.2198
    SETDIJ:  cpu time    0.8289: real time    0.8370
     EDDAV:  cpu time   28.2447: real time   28.4056
       DOS:  cpu time    0.0060: real time    0.0054
    CHARGE:  cpu time    1.1538: real time    1.1663
    MIXING:  cpu time    0.0020: real time    0.0026
    --------------------------------------------
      LOOP:  cpu time   30.3724: real time   30.6367

 eigenvalue-minimisations  : 20544
 total energy-change (2. order) : 0.3161755E-04  (-0.7844525E-06)
 number of electron     240.0000002 magnetization       0.0001824
 augmentation part       61.9491575 magnetization      -0.0022238

 Broyden mixing:
  rms(total) = 0.47084E-02    rms(broyden)= 0.46992E-02
  rms(prec ) = 0.86676E-02
  weight for this iteration     100.00

 eigenvalues of (default mixing * dielectric matrix)
  average eigenvalue GAMMA=   0.4105
  0.5501  0.5501  0.5964  0.5964  0.3879  0.3879  0.1585  0.0566

 Free energy of the ion-electron system (eV)
  ---------------------------------------------------
  alpha Z        PSCENC =       752.01651359
  Ewald energy   TEWEN  =    -12708.68396657
  -Hartree energ DENC   =     -8303.59909556
  -exchange      EXHF   =         0.00000000
  -V(xc)+E(xc)   XCENC  =      1119.24416724
  PAW double counting   =     17987.78287873   -18110.87278179
  entropy T*S    EENTRO =        -0.00275935
  eigenvalues    EBANDS =     -3248.42865449
  atomic energy  EATOM  =     22302.35321627
  Solvation  Ediel_sol  =         0.00000000
  ---------------------------------------------------
  free energy    TOTEN  =      -210.19048193 eV

  energy without entropy =     -210.18772258  energy(sigma->0) =     -210.18910225


--------------------------------------------------------------------------------------------------------




--------------------------------------- Iteration      1(  10)  ---------------------------------------


    POTLOK:  cpu time    0.1440: real time    0.1647
    SETDIJ:  cpu time    0.8389: real time    0.8373
     EDDAV:  cpu time   22.0107: real time   22.0053
       DOS:  cpu time    0.0050: real time    0.0057
    --------------------------------------------
      LOOP:  cpu time   22.9985: real time   23.0129

 eigenvalue-minimisations  : 14080
 total energy-change (2. order) :-0.8624083E-06  (-0.1923128E-06)
 number of electron     240.0000002 magnetization       0.0001824
 augmentation part       61.9491575 magnetization      -0.0022238

 Free energy of the ion-electron system (eV)
  ---------------------------------------------------
  alpha Z        PSCENC =       752.01651359
  Ewald energy   TEWEN  =    -12708.68396657
  -Hartree energ DENC   =     -8303.58869817
  -exchange      EXHF   =         0.00000000
  -V(xc)+E(xc)   XCENC  =      1119.24381312
  PAW double counting   =     17987.76246115   -18110.85251974
  entropy T*S    EENTRO =        -0.00271924
  eigenvalues    EBANDS =     -3248.43858320
  atomic energy  EATOM  =     22302.35321627
  Solvation  Ediel_sol  =         0.00000000
  ---------------------------------------------------
  free energy    TOTEN  =      -210.19048279 eV

  energy without entropy =     -210.18776355  energy(sigma->0) =     -210.18912317


--------------------------------------------------------------------------------------------------------




 average (electrostatic) potential at core
  the test charge radii are     1.0397  0.7215  0.7167
  (the norm of the test charge is              1.0000)
       1 -59.9785       2 -59.9785       3 -59.9785       4 -59.9785       5 -57.7693
       6 -57.7693       7 -57.7693       8 -57.7693       9 -73.2011      10 -73.2011
      11 -75.2354      12 -75.2354      13 -72.6541      14 -72.6462      15 -72.6541
      16 -72.6462      17 -79.5231      18 -79.5231      19 -79.5231      20 -79.5231
      21 -79.5231      22 -79.5231      23 -79.5231      24 -79.5231      25 -80.3399
      26 -80.3399      27 -80.3364      28 -80.3364      29 -77.6138      30 -77.6138
      31 -79.8925      32 -79.8925
 
 
 
 E-fermi :   0.8375     XC(G=0):  -8.9431     alpha+bet : -7.5887


 spin component 1

 k-point     1 :       0.1250    0.1250    0.1250
  band No.  band energies     occupation 
      1     -36.0064      1.00000
      2     -36.0023      1.00000
      3     -35.9518      1.00000
      4     -35.9497      1.00000
      5     -35.9479      1.00000
      6     -35.9458      1.00000
      7     -35.9054      1.00000
      8     -35.9017      1.00000
      9     -35.8631      1.00000
     10     -35.8606      1.00000
     11     -35.7556      1.00000
     12     -35.7533      1.00000
     13     -33.8849      1.00000
     14     -33.8822      1.00000
     15     -33.8817      1.00000
     16     -33.8791      1.00000
     17     -33.6792      1.00000
     18     -33.6758      1.00000
     19     -33.6053      1.00000
     20     -33.6022      1.00000
     21     -33.4703      1.00000
     22     -33.4674      1.00000
     23     -33.3964      1.00000
     24     -33.3938      1.00000
     25     -24.2553      1.00000
     26     -24.2018      1.00000
     27     -23.7629      1.00000
     28     -23.7405      1.00000
     29     -23.6233      1.00000
     30     -23.5841      1.00000
     31     -23.3297      1.00000
     32     -23.3203      1.00000
     33     -23.2993      1.00000
     34     -23.2952      1.00000
     35     -22.9078      1.00000
     36     -22.8992      1.00000
     37     -22.8957      1.00000
     38     -22.8875      1.00000
     39     -21.2759      1.00000
     40     -21.2589      1.00000
     41     -17.7039      1.00000
     42     -17.6856      1.00000
     43     -15.8344      1.00000
     44     -15.6456      1.00000
     45     -15.5638      1.00000
     46     -15.4103      1.00000
     47     -14.7884      1.00000
     48     -14.7583      1.00000
     49      -7.8581      1.00000
     50      -7.8391      1.00000
     51      -7.2976      1.00000
     52      -7.2205      1.00000
     53      -6.8759      1.00000
     54      -6.8721      1.00000
     55      -6.8707      1.00000
     56      -6.8691      1.00000
     57      -6.5401      1.00000
     58      -6.5001      1.00000
     59      -6.3339      1.00000
     60      -6.1649      1.00000
     61      -6.1036      1.00000
     62      -6.0366      1.00000
     63      -5.8934      1.00000
     64      -5.6527      1.00000
     65      -5.5832      1.00000
     66      -5.4919      1.00000
     67      -5.4072      1.00000
     68      -5.3641      1.00000
     69      -5.3400      1.00000
     70      -5.3390      1.00000
     71      -5.0066      1.00000
     72      -4.9641      1.00000
     73      -4.8007      1.00000
     74      -4.7574      1.00000
     75      -4.7304      1.00000
     76      -4.6710      1.00000
     77      -4.6569      1.00000
     78      -4.6412      1.00000
     79      -4.6208      1.00000
     80      -4.5437      1.00000
     81      -4.5219      1.00000
     82      -4.4613      1.00000
     83      -4.4082      1.00000
     84      -4.3827      1.00000
     85      -4.3667      1.00000
     86      -4.2202      1.00000
     87      -4.1932      1.00000
     88      -4.1625      1.00000
     89      -4.0725      1.00000
     90      -4.0619      1.00000
     91      -4.0406      1.00000
     92      -4.0307      1.00000
     93      -3.8502      1.00000
     94      -3.8329      1.00000
     95      -3.6991      1.00000
     96      -3.6589      1.00000
     97      -3.3657      1.00000
     98      -3.2582      1.00000
     99      -2.8640      1.00000
    100      -2.8375      1.00000
    101      -2.8129      1.00000
    102      -2.6934      1.00000
    103      -2.5974      1.00000
    104      -2.5562      1.00000
    105      -2.4387      1.00000
    106      -2.2687      1.00000
    107      -1.8911      1.00000
    108      -1.3879      1.00000
    109      -1.2631      1.00000
    110      -1.2586      1.00000
    111      -1.0224      1.00000
    112      -0.9914      1.00000
    113      -0.9094      1.00000
    114      -0.9027      1.00000
    115      -0.5609      1.00000
    116      -0.3623      1.00000
    117      -0.2837      1.00000
    118      -0.2235      1.00000
    119       0.1627      1.00000
    120       0.8355      0.61062
    121       0.8395      0.38592
    122       1.4658      0.00000
    123       1.4718      0.00000
    124       1.4850      0.00000
    125       1.4999      0.00000
    126       1.5786      0.00000
    127       2.1623      0.00000
    128       2.1715      0.00000
    129       2.1848      0.00000
    130       2.5190      0.00000
    131       2.5373      0.00000
    132       2.7543      0.00000
    133       2.8142      0.00000
    134       2.8198      0.00000
    135       2.8741      0.00000
    136       2.9054      0.00000
    137       3.1918      0.00000
    138       3.2157      0.00000
    139       3.2170      0.00000
    140       3.2295      0.00000
    141       3.2533      0.00000
    142       3.6573      0.00000
    143       3.8160      0.00000
    144       4.0657      0.00000
    145       4.4428      0.00000
    146       4.4584      0.00000
    147       4.4863      0.00000
    148       4.6199      0.00000
    149       4.8460      0.00000
    150       4.8779      0.00000
    151       4.8877      0.00000
    152       4.9358      0.00000
    153       5.2120      0.00000
    154       5.2364      0.00000
    155       5.3466      0.00000
    156       5.3994      0.00000
    157       6.0151      0.00000
    158       6.0447      0.00000
    159       6.6958      0.00000
    160       6.7370      0.00000

 k-point     2 :       0.3750    0.1250    0.1250
  band No.  band energies     occupation 
      1     -36.0064      1.00000
      2     -36.0023      1.00000
      3     -35.9513      1.00000
      4     -35.9492      1.00000
      5     -35.9474      1.00000
      6     -35.9453      1.00000
      7     -35.9054      1.00000
      8     -35.9017      1.00000
      9     -35.8631      1.00000
     10     -35.8606      1.00000
     11     -35.7556      1.00000
     12     -35.7533      1.00000
     13     -33.8859      1.00000
     14     -33.8833      1.00000
     15     -33.8828      1.00000
     16     -33.8802      1.00000
     17     -33.6792      1.00000
     18     -33.6758      1.00000
     19     -33.6053      1.00000
     20     -33.6022      1.00000
     21     -33.4703      1.00000
     22     -33.4674      1.00000
     23     -33.3964      1.00000
     24     -33.3938      1.00000
     25     -24.2533      1.00000
     26     -24.2003      1.00000
     27     -23.7617      1.00000
     28     -23.7402      1.00000
     29     -23.6157      1.00000
     30     -23.5787      1.00000
     31     -23.2534      1.00000
     32     -23.2437      1.00000
     33     -23.2279      1.00000
     34     -23.2268      1.00000
     35     -22.9912      1.00000
     36     -22.9805      1.00000
     37     -22.9783      1.00000
     38     -22.9681      1.00000
     39     -21.2753      1.00000
     40     -21.2583      1.00000
     41     -17.7038      1.00000
     42     -17.6855      1.00000
     43     -15.8337      1.00000
     44     -15.6454      1.00000
     45     -15.5633      1.00000
     46     -15.4102      1.00000
     47     -14.7885      1.00000
     48     -14.7584      1.00000
     49      -7.8565      1.00000
     50      -7.8379      1.00000
     51      -7.2966      1.00000
     52      -7.2203      1.00000
     53      -6.6191      1.00000
     54      -6.5910      1.00000
     55      -6.5862      1.00000
     56      -6.5633      1.00000
     57      -6.5402      1.00000
     58      -6.5001      1.00000
     59      -6.3347      1.00000
     60      -6.1621      1.00000
     61      -6.1252      1.00000
     62      -6.0769      1.00000
     63      -5.9756      1.00000
     64      -5.8920      1.00000
     65      -5.7269      1.00000
     66      -5.6141      1.00000
     67      -5.5299      1.00000
     68      -5.4926      1.00000
     69      -5.4146      1.00000
     70      -5.3411      1.00000
     71      -5.0775      1.00000
     72      -5.0419      1.00000
     73      -4.8185      1.00000
     74      -4.7960      1.00000
     75      -4.7634      1.00000
     76      -4.7456      1.00000
     77      -4.6612      1.00000
     78      -4.6605      1.00000
     79      -4.6283      1.00000
     80      -4.6026      1.00000
     81      -4.5843      1.00000
     82      -4.5408      1.00000
     83      -4.4879      1.00000
     84      -4.4609      1.00000
     85      -4.3856      1.00000
     86      -4.2609      1.00000
     87      -4.2513      1.00000
     88      -4.2225      1.00000
     89      -4.0022      1.00000
     90      -3.9995      1.00000
     91      -3.9231      1.00000
     92      -3.9067      1.00000
     93      -3.8709      1.00000
     94      -3.8420      1.00000
     95      -3.7030      1.00000
     96      -3.6628      1.00000
     97      -3.3656      1.00000
     98      -3.2586      1.00000
     99      -2.8717      1.00000
    100      -2.7391      1.00000
    101      -2.7074      1.00000
    102      -2.6893      1.00000
    103      -2.6180      1.00000
    104      -2.5687      1.00000
    105      -2.4522      1.00000
    106      -2.2779      1.00000
    107      -1.8897      1.00000
    108      -1.3954      1.00000
    109      -1.2685      1.00000
    110      -1.2556      1.00000
    111      -1.0382      1.00000
    112      -1.0073      1.00000
    113      -0.9188      1.00000
    114      -0.9045      1.00000
    115      -0.5660      1.00000
    116      -0.3923      1.00000
    117      -0.3000      1.00000
    118      -0.2268      1.00000
    119       0.1610      1.00000
    120       0.8355      0.60846
    121       0.8392      0.40352
    122       1.5186      0.00000
    123       1.5339      0.00000
    124       1.5352      0.00000
    125       1.5605      0.00000
    126       1.5787      0.00000
    127       2.1585      0.00000
    128       2.1765      0.00000
    129       2.1780      0.00000
    130       2.5297      0.00000
    131       2.6420      0.00000
    132       2.7599      0.00000
    133       2.7998      0.00000
    134       2.8049      0.00000
    135       3.0044      0.00000
    136       3.1368      0.00000
    137       3.1493      0.00000
    138       3.1615      0.00000
    139       3.1937      0.00000
    140       3.2152      0.00000
    141       3.2639      0.00000
    142       4.1189      0.00000
    143       4.1573      0.00000
    144       4.3241      0.00000
    145       4.4167      0.00000
    146       4.4347      0.00000
    147       4.4698      0.00000
    148       4.5146      0.00000
    149       4.8416      0.00000
    150       4.8476      0.00000
    151       4.8670      0.00000
    152       4.8966      0.00000
    153       4.9614      0.00000
    154       5.1787      0.00000
    155       5.3081      0.00000
    156       5.3572      0.00000
    157       5.6844      0.00000
    158       6.1980      0.00000
    159       6.5582      0.00000
    160       6.6753      0.00000

 k-point     3 :      -0.3750    0.1250    0.1250
  band No.  band energies     occupation 
      1     -36.0064      1.00000
      2     -36.0023      1.00000
      3     -35.9513      1.00000
      4     -35.9492      1.00000
      5     -35.9474      1.00000
      6     -35.9453      1.00000
      7     -35.9054      1.00000
      8     -35.9017      1.00000
      9     -35.8631      1.00000
     10     -35.8606      1.00000
     11     -35.7556      1.00000
     12     -35.7533      1.00000
     13     -33.8859      1.00000
     14     -33.8833      1.00000
     15     -33.8828      1.00000
     16     -33.8802      1.00000
     17     -33.6792      1.00000
     18     -33.6758      1.00000
     19     -33.6053      1.00000
     20     -33.6022      1.00000
     21     -33.4703      1.00000
     22     -33.4674      1.00000
     23     -33.3964      1.00000
     24     -33.3938      1.00000
     25     -24.2533      1.00000
     26     -24.2003      1.00000
     27     -23.7617      1.00000
     28     -23.7402      1.00000
     29     -23.6157      1.00000
     30     -23.5787      1.00000
     31     -23.2534      1.00000
     32     -23.2437      1.00000
     33     -23.2279      1.00000
     34     -23.2268      1.00000
     35     -22.9912      1.00000
     36     -22.9805      1.00000
     37     -22.9783      1.00000
     38     -22.9681      1.00000
     39     -21.2753      1.00000
     40     -21.2583      1.00000
     41     -17.7038      1.00000
     42     -17.6855      1.00000
     43     -15.8337      1.00000
     44     -15.6454      1.00000
     45     -15.5633      1.00000
     46     -15.4102      1.00000
     47     -14.7885      1.00000
     48     -14.7584      1.00000
     49      -7.8565      1.00000
     50      -7.8379      1.00000
     51      -7.2966      1.00000
     52      -7.2203      1.00000
     53      -6.6191      1.00000
     54      -6.5910      1.00000
     55      -6.5862      1.00000
     56      -6.5633      1.00000
     57      -6.5402      1.00000
     58      -6.5001      1.00000
     59      -6.3347      1.00000
     60      -6.1621      1.00000
     61      -6.1252      1.00000
     62      -6.0769      1.00000
     63      -5.9756      1.00000
     64      -5.8920      1.00000
     65      -5.7269      1.00000
     66      -5.6141      1.00000
     67      -5.5299      1.00000
     68      -5.4926      1.00000
     69      -5.4146      1.00000
     70      -5.3411      1.00000
     71      -5.0775      1.00000
     72      -5.0419      1.00000
     73      -4.8185      1.00000
     74      -4.7960      1.00000
     75      -4.7634      1.00000
     76      -4.7456      1.00000
     77      -4.6612      1.00000
     78      -4.6605      1.00000
     79      -4.6283      1.00000
     80      -4.6026      1.00000
     81      -4.5843      1.00000
     82      -4.5408      1.00000
     83      -4.4879      1.00000
     84      -4.4609      1.00000
     85      -4.3856      1.00000
     86      -4.2609      1.00000
     87      -4.2513      1.00000
     88      -4.2225      1.00000
     89      -4.0022      1.00000
     90      -3.9995      1.00000
     91      -3.9231      1.00000
     92      -3.9067      1.00000
     93      -3.8709      1.00000
     94      -3.8420      1.00000
     95      -3.7030      1.00000
     96      -3.6628      1.00000
     97      -3.3656      1.00000
     98      -3.2586      1.00000
     99      -2.8717      1.00000
    100      -2.7391      1.00000
    101      -2.7074      1.00000
    102      -2.6893      1.00000
    103      -2.6180      1.00000
    104      -2.5687      1.00000
    105      -2.4522      1.00000
    106      -2.2779      1.00000
    107      -1.8897      1.00000
    108      -1.3954      1.00000
    109      -1.2685      1.00000
    110      -1.2556      1.00000
    111      -1.0382      1.00000
    112      -1.0073      1.00000
    113      -0.9188      1.00000
    114      -0.9045      1.00000
    115      -0.5660      1.00000
    116      -0.3923      1.00000
    117      -0.3000      1.00000
    118      -0.2268      1.00000
    119       0.1610      1.00000
    120       0.8355      0.60846
    121       0.8392      0.40352
    122       1.5186      0.00000
    123       1.5339      0.00000
    124       1.5352      0.00000
    125       1.5605      0.00000
    126       1.5787      0.00000
    127       2.1585      0.00000
    128       2.1765      0.00000
    129       2.1780      0.00000
    130       2.5297      0.00000
    131       2.6420      0.00000
    132       2.7599      0.00000
    133       2.7998      0.00000
    134       2.8049      0.00000
    135       3.0044      0.00000
    136       3.1368      0.00000
    137       3.1493      0.00000
    138       3.1615      0.00000
    139       3.1937      0.00000
    140       3.2152      0.00000
    141       3.2639      0.00000
    142       4.1189      0.00000
    143       4.1573      0.00000
    144       4.3241      0.00000
    145       4.4167      0.00000
    146       4.4347      0.00000
    147       4.4698      0.00000
    148       4.5146      0.00000
    149       4.8416      0.00000
    150       4.8476      0.00000
    151       4.8670      0.00000
    152       4.8966      0.00000
    153       4.9614      0.00000
    154       5.1787      0.00000
    155       5.3081      0.00000
    156       5.3572      0.00000
    157       5.6844      0.00000
    158       6.1980      0.00000
    159       6.5582      0.00000
    160       6.6753      0.00000

 k-point     4 :      -0.1250    0.1250    0.1250
  band No.  band energies     occupation 
      1     -36.0064      1.00000
      2     -36.0023      1.00000
      3     -35.9518      1.00000
      4     -35.9497      1.00000
      5     -35.9479      1.00000
      6     -35.9458      1.00000
      7     -35.9054      1.00000
      8     -35.9017      1.00000
      9     -35.8631      1.00000
     10     -35.8606      1.00000
     11     -35.7556      1.00000
     12     -35.7533      1.00000
     13     -33.8849      1.00000
     14     -33.8822      1.00000
     15     -33.8817      1.00000
     16     -33.8791      1.00000
     17     -33.6792      1.00000
     18     -33.6758      1.00000
     19     -33.6053      1.00000
     20     -33.6022      1.00000
     21     -33.4703      1.00000
     22     -33.4674      1.00000
     23     -33.3964      1.00000
     24     -33.3938      1.00000
     25     -24.2553      1.00000
     26     -24.2018      1.00000
     27     -23.7629      1.00000
     28     -23.7405      1.00000
     29     -23.6233      1.00000
     30     -23.5841      1.00000
     31     -23.3297      1.00000
     32     -23.3203      1.00000
     33     -23.2993      1.00000
     34     -23.2952      1.00000
     35     -22.9078      1.00000
     36     -22.8992      1.00000
     37     -22.8957      1.00000
     38     -22.8875      1.00000
     39     -21.2759      1.00000
     40     -21.2589      1.00000
     41     -17.7039      1.00000
     42     -17.6856      1.00000
     43     -15.8344      1.00000
     44     -15.6456      1.00000
     45     -15.5638      1.00000
     46     -15.4103      1.00000
     47     -14.7884      1.00000
     48     -14.7583      1.00000
     49      -7.8581      1.00000
     50      -7.8391      1.00000
     51      -7.2976      1.00000
     52      -7.2205      1.00000
     53      -6.8759      1.00000
     54      -6.8721      1.00000
     55      -6.8707      1.00000
     56      -6.8691      1.00000
     57      -6.5401      1.00000
     58      -6.5001      1.00000
     59      -6.3339      1.00000
     60      -6.1649      1.00000
     61      -6.1036      1.00000
     62      -6.0366      1.00000
     63      -5.8934      1.00000
     64      -5.6527      1.00000
     65      -5.5832      1.00000
     66      -5.4919      1.00000
     67      -5.4072      1.00000
     68      -5.3641      1.00000
     69      -5.3400      1.00000
     70      -5.3390      1.00000
     71      -5.0066      1.00000
     72      -4.9641      1.00000
     73      -4.8007      1.00000
     74      -4.7574      1.00000
     75      -4.7304      1.00000
     76      -4.6710      1.00000
     77      -4.6569      1.00000
     78      -4.6412      1.00000
     79      -4.6208      1.00000
     80      -4.5437      1.00000
     81      -4.5219      1.00000
     82      -4.4613      1.00000
     83      -4.4082      1.00000
     84      -4.3827      1.00000
     85      -4.3667      1.00000
     86      -4.2202      1.00000
     87      -4.1932      1.00000
     88      -4.1625      1.00000
     89      -4.0725      1.00000
     90      -4.0619      1.00000
     91      -4.0406      1.00000
     92      -4.0307      1.00000
     93      -3.8502      1.00000
     94      -3.8329      1.00000
     95      -3.6991      1.00000
     96      -3.6589      1.00000
     97      -3.3657      1.00000
     98      -3.2582      1.00000
     99      -2.8640      1.00000
    100      -2.8375      1.00000
    101      -2.8129      1.00000
    102      -2.6934      1.00000
    103      -2.5974      1.00000
    104      -2.5562      1.00000
    105      -2.4387      1.00000
    106      -2.2687      1.00000
    107      -1.8911      1.00000
    108      -1.3879      1.00000
    109      -1.2631      1.00000
    110      -1.2586      1.00000
    111      -1.0224      1.00000
    112      -0.9914      1.00000
    113      -0.9094      1.00000
    114      -0.9027      1.00000
    115      -0.5609      1.00000
    116      -0.3623      1.00000
    117      -0.2837      1.00000
    118      -0.2235      1.00000
    119       0.1627      1.00000
    120       0.8355      0.61062
    121       0.8395      0.38592
    122       1.4658      0.00000
    123       1.4718      0.00000
    124       1.4850      0.00000
    125       1.4999      0.00000
    126       1.5786      0.00000
    127       2.1623      0.00000
    128       2.1715      0.00000
    129       2.1848      0.00000
    130       2.5190      0.00000
    131       2.5373      0.00000
    132       2.7543      0.00000
    133       2.8142      0.00000
    134       2.8198      0.00000
    135       2.8741      0.00000
    136       2.9054      0.00000
    137       3.1918      0.00000
    138       3.2157      0.00000
    139       3.2170      0.00000
    140       3.2295      0.00000
    141       3.2533      0.00000
    142       3.6573      0.00000
    143       3.8160      0.00000
    144       4.0657      0.00000
    145       4.4428      0.00000
    146       4.4584      0.00000
    147       4.4863      0.00000
    148       4.6199      0.00000
    149       4.8460      0.00000
    150       4.8779      0.00000
    151       4.8877      0.00000
    152       4.9358      0.00000
    153       5.2120      0.00000
    154       5.2364      0.00000
    155       5.3466      0.00000
    156       5.3994      0.00000
    157       6.0151      0.00000
    158       6.0447      0.00000
    159       6.6958      0.00000
    160       6.7370      0.00000

 k-point     5 :       0.1250    0.3750    0.1250
  band No.  band energies     occupation 
      1     -35.9773      1.00000
      2     -35.9732      1.00000
      3     -35.9512      1.00000
      4     -35.9503      1.00000
      5     -35.9473      1.00000
      6     -35.9464      1.00000
      7     -35.9354      1.00000
[...]
 -0.000  -0.000   0.000  -0.000   0.000  -0.000   0.000   0.000  -0.000   0.000  -0.000  -0.000   0.000   0.000   0.000   0.000
 -0.000   0.000  -0.000  -0.000   0.000  -0.000  -0.000   0.000   0.000  -0.000   0.000   0.000   0.000  -0.000   0.000   0.000
  0.000  -0.000   0.000  -0.000   0.000  -0.000   0.000   0.000  -0.000  -0.000   0.000  -0.000   0.000   0.000   0.000  -0.000
 -0.000   0.000  -0.000  -0.000   0.000   0.000   0.000   0.001  -0.000   0.000   0.000   0.000   0.000  -0.000   0.000   0.000
  0.000  -0.000  -0.000   0.000  -0.000   0.000  -0.000  -0.000   0.000   0.000  -0.000   0.000  -0.000  -0.000  -0.000   0.000
 -0.000  -0.000  -0.000  -0.000   0.000  -0.000  -0.000   0.000   0.000   0.000   0.000   0.000   0.000  -0.000  -0.000  -0.000
 -0.000   0.000   0.000  -0.000   0.000   0.000   0.000   0.000  -0.000   0.000   0.000  -0.000   0.000   0.000  -0.000  -0.000
  0.000   0.000  -0.000   0.000   0.000   0.000  -0.000  -0.000  -0.000  -0.000   0.000  -0.000  -0.000   0.000   0.000   0.000
 -0.000   0.000  -0.000  -0.000   0.000   0.000  -0.000  -0.000  -0.000   0.000   0.000   0.000  -0.000   0.000  -0.000  -0.000


------------------------ aborting loop because EDIFF is reached ----------------------------------------


 


 total charge     
 
# of ion       s       p       d       tot
------------------------------------------
    1        0.316   6.481   1.757   8.554
    2        0.316   6.481   1.757   8.554
    3        0.316   6.481   1.757   8.554
    4        0.316   6.481   1.757   8.554
    5        0.302   6.451   1.748   8.500
    6        0.302   6.451   1.748   8.500
    7        0.302   6.451   1.748   8.500
    8        0.302   6.451   1.748   8.500
    9        1.568   3.451   0.000   5.019
   10        1.568   3.451   0.000   5.019
   11        1.573   3.483   0.000   5.057
   12        1.573   3.483   0.000   5.057
   13        1.568   3.439   0.000   5.007
   14        1.567   3.436   0.000   5.003
   15        1.568   3.439   0.000   5.007
   16        1.567   3.436   0.000   5.003
   17        1.731   4.373   0.000   6.104
   18        1.731   4.373   0.000   6.104
   19        1.731   4.373   0.000   6.104
   20        1.731   4.373   0.000   6.104
   21        1.731   4.373   0.000   6.104
   22        1.731   4.373   0.000   6.104
   23        1.731   4.373   0.000   6.104
   24        1.731   4.373   0.000   6.104
   25        1.730   4.388   0.000   6.118
   26        1.730   4.388   0.000   6.118
   27        1.730   4.388   0.000   6.117
   28        1.730   4.388   0.000   6.117
   29        1.729   4.365   0.000   6.095
   30        1.729   4.365   0.000   6.095
   31        1.732   4.391   0.000   6.123
   32        1.732   4.391   0.000   6.123
--------------------------------------------------
tot         42.713 149.396  14.019 206.127
 


 magnetization (x)
 
# of ion       s       p       d       tot
------------------------------------------
    1        0.000   0.000   0.000   0.000
    2        0.000   0.000   0.000   0.000
    3        0.000   0.000   0.000   0.000
    4        0.000   0.000   0.000   0.000
    5       -0.000  -0.000  -0.000  -0.000
    6       -0.000  -0.000  -0.000  -0.000
    7       -0.000  -0.000  -0.000  -0.000
    8       -0.000  -0.000  -0.000  -0.000
    9        0.000   0.000   0.000   0.000
   10        0.000   0.000   0.000   0.000
   11        0.000  -0.000   0.000  -0.000
   12        0.000  -0.000   0.000  -0.000
   13        0.000   0.000   0.000   0.000
   14        0.000   0.000   0.000   0.000
   15        0.000   0.000   0.000   0.000
   16        0.000   0.000   0.000   0.000
   17        0.000  -0.000   0.000  -0.000
   18        0.000  -0.000   0.000  -0.000
   19        0.000  -0.000   0.000  -0.000
   20        0.000  -0.000   0.000  -0.000
   21        0.000  -0.000   0.000  -0.000
   22        0.000  -0.000   0.000  -0.000
   23        0.000  -0.000   0.000  -0.000
   24        0.000  -0.000   0.000  -0.000
   25        0.000   0.000   0.000   0.000
   26        0.000   0.000   0.000   0.000
   27        0.000   0.000   0.000   0.000
   28        0.000   0.000   0.000   0.000
   29        0.000   0.000   0.000   0.000
   30        0.000   0.000   0.000   0.000
   31        0.000   0.000   0.000   0.000
   32        0.000   0.000   0.000   0.000
--------------------------------------------------
tot          0.000   0.001   0.001   0.002
 
    CHARGE:  cpu time    1.1738: real time    1.1714
    FORLOC:  cpu time    0.0100: real time    0.0098
    FORNL :  cpu time    6.8620: real time    6.8511
    STRESS:  cpu time   20.7119: real time   20.6834
    FORCOR:  cpu time    0.1290: real time    0.1292
    FORHAR:  cpu time    0.0210: real time    0.0212
    MIXING:  cpu time    0.0020: real time    0.0021
    OFIELD:  cpu time    0.0000: real time    0.0000

  FORCE on cell =-STRESS in cart. coord.  units (eV):
  Direction    XX          YY          ZZ          XY          YZ          ZX
  --------------------------------------------------------------------------------------
  Alpha Z   752.01651   752.01651   752.01651
  Ewald   -4434.87346 -4219.02438 -4054.83837    -0.00016     0.00003    -0.00004
  Hartree  2628.55611  2790.86377  2884.24615    -0.00009    -0.00000    -0.00001
  E(xc)   -1231.51035 -1231.67007 -1232.09809    -0.00000    -0.00000     0.00000
  Local   -1826.12541 -2234.36838 -2549.75632     0.00024    -0.00004     0.00005
  n-local  -975.21297  -968.03499  -957.29086    -0.00000     0.00000    -0.00000
  augment   743.38025   753.19691   773.28439     0.00000     0.00000     0.00000
  Kinetic  4343.76394  4357.02230  4384.42925     0.00001     0.00000     0.00000
  Fock        0.00000     0.00000     0.00000     0.00000     0.00000     0.00000
  -------------------------------------------------------------------------------------
  Total      -0.00538     0.00168    -0.00734     0.00000     0.00000     0.00000
  in kB      -0.01849     0.00577    -0.02525     0.00001     0.00000     0.00000
  external pressure =       -0.01 kB  Pullay stress =        0.00 kB


 VOLUME and BASIS-vectors are now :
 -----------------------------------------------------------------------------
  energy-cutoff  :      700.00
  volume of cell :      465.64
      direct lattice vectors                 reciprocal lattice vectors
     7.929190148 -0.000000124 -0.000000001     0.126116284  0.000000002  0.000000000
    -0.000000127  7.793904407 -0.000000085     0.000000002  0.128305397  0.000000001
    -0.000000003 -0.000000083  7.534645413     0.000000000  0.000000001  0.132720247

  length of vectors
     7.929190148  7.793904407  7.534645413     0.126116284  0.128305397  0.132720247


 FORCES acting on ions
    electron-ion (+dipol)            ewald-force                    non-local-force                 convergence-correction
 -----------------------------------------------------------------------------------------------
   -.217E-04 0.241E+01 0.346E+02   0.214E-04 -.239E+01 -.352E+02   0.134E-06 -.120E-01 0.625E+00   -.360E-08 -.102E-02 0.133E-02
   0.303E-04 0.241E+01 -.346E+02   -.300E-04 -.239E+01 0.352E+02   -.220E-06 -.120E-01 -.625E+00   -.320E-08 -.102E-02 -.133E-02
   -.301E-04 -.241E+01 0.346E+02   0.298E-04 0.239E+01 -.352E+02   0.223E-06 0.120E-01 0.625E+00   -.297E-08 0.102E-02 0.133E-02
   0.219E-04 -.241E+01 -.346E+02   -.216E-04 0.239E+01 0.352E+02   -.133E-06 0.120E-01 -.625E+00   -.607E-08 0.102E-02 -.133E-02
   0.381E-04 0.104E+02 0.159E+02   -.374E-04 -.114E+02 -.159E+02   -.658E-06 0.104E+01 -.157E-01   -.272E-09 -.103E-01 -.357E-03
   -.384E-04 0.104E+02 -.159E+02   0.377E-04 -.114E+02 0.159E+02   0.635E-06 0.104E+01 0.157E-01   -.296E-09 -.103E-01 0.357E-03
   0.383E-04 -.104E+02 0.159E+02   -.377E-04 0.114E+02 -.159E+02   -.638E-06 -.104E+01 -.157E-01   0.885E-08 0.103E-01 -.357E-03
   -.381E-04 -.104E+02 -.159E+02   0.374E-04 0.114E+02 0.159E+02   0.652E-06 -.104E+01 0.157E-01   0.116E-07 0.103E-01 0.357E-03
   0.188E-04 -.138E-04 0.768E+01   -.186E-04 0.147E-04 -.776E+01   -.302E-06 -.398E-06 0.822E-01   0.407E-08 -.540E-07 -.199E-03
   -.183E-04 -.258E-04 -.768E+01   0.180E-04 0.271E-04 0.776E+01   0.343E-06 0.356E-07 -.822E-01   0.338E-08 -.552E-07 0.199E-03
   0.766E-06 0.175E+01 -.115E-03   -.693E-06 -.181E+01 0.126E-03   -.786E-07 0.609E-01 -.568E-05   -.499E-08 -.604E-03 -.254E-07
   -.158E-06 -.175E+01 -.155E-03   0.423E-07 0.181E+01 0.168E-03   0.134E-06 -.609E-01 -.634E-05   -.582E-08 0.604E-03 -.247E-07
   0.682E-07 -.144E+02 -.184E-03   -.191E-06 0.168E+02 0.208E-03   0.135E-06 -.240E+01 -.249E-04   0.220E-08 -.429E-02 -.587E-08
   0.794E-06 -.139E+02 -.188E-03   -.945E-06 0.162E+02 0.213E-03   0.160E-06 -.235E+01 -.245E-04   0.277E-08 -.435E-02 0.221E-08
   0.621E-07 0.144E+02 0.130E-03   0.564E-07 -.168E+02 -.147E-03   -.138E-06 0.240E+01 0.158E-04   0.260E-08 0.429E-02 -.117E-08
   -.141E-05 0.139E+02 0.985E-04   0.161E-05 -.162E+02 -.113E-03   -.214E-06 0.235E+01 0.160E-04   0.398E-08 0.435E-02 0.364E-08
   -.984E+02 -.253E+01 0.200E+01   0.108E+03 0.351E+01 0.721E-01   -.992E+01 -.981E+00 -.207E+01   0.236E-01 -.189E-02 0.878E-03
   -.984E+02 -.253E+01 -.200E+01   0.108E+03 0.351E+01 -.722E-01   -.992E+01 -.981E+00 0.207E+01   0.236E-01 -.189E-02 -.878E-03
   -.984E+02 0.253E+01 0.200E+01   0.108E+03 -.351E+01 0.723E-01   -.992E+01 0.981E+00 -.207E+01   0.236E-01 0.189E-02 0.878E-03
   -.984E+02 0.253E+01 -.200E+01   0.108E+03 -.351E+01 -.722E-01   -.992E+01 0.981E+00 0.207E+01   0.236E-01 0.189E-02 -.878E-03
   0.984E+02 -.253E+01 0.200E+01   -.108E+03 0.351E+01 0.721E-01   0.992E+01 -.981E+00 -.207E+01   -.236E-01 -.189E-02 0.878E-03
   0.984E+02 -.253E+01 -.200E+01   -.108E+03 0.351E+01 -.722E-01   0.992E+01 -.981E+00 0.207E+01   -.236E-01 -.189E-02 -.878E-03
   0.984E+02 0.253E+01 0.200E+01   -.108E+03 -.351E+01 0.723E-01   0.992E+01 0.981E+00 -.207E+01   -.236E-01 0.189E-02 0.878E-03
   0.984E+02 0.253E+01 -.200E+01   -.108E+03 -.351E+01 -.722E-01   0.992E+01 0.981E+00 0.207E+01   -.236E-01 0.189E-02 -.878E-03
   0.345E-04 -.576E-04 -.281E+00   -.411E-04 0.647E-04 0.322E+01   0.646E-05 -.571E-05 -.295E+01   -.497E-08 0.174E-06 0.223E-02
   -.338E-04 -.404E-04 0.281E+00   0.403E-04 0.458E-04 -.322E+01   -.640E-05 -.453E-05 0.295E+01   -.152E-08 0.177E-06 -.223E-02
   -.206E-04 0.526E-04 -.104E+00   0.196E-04 -.550E-04 0.303E+01   0.112E-05 0.111E-05 -.293E+01   -.400E-08 -.170E-06 0.221E-02
   0.201E-04 0.290E-04 0.104E+00   -.190E-04 -.314E-04 -.303E+01   -.117E-05 0.166E-05 0.293E+01   -.518E-08 -.166E-06 -.221E-02
   -.149E-04 -.690E-05 0.874E+01   0.189E-04 0.790E-05 -.880E+01   -.394E-05 -.117E-05 0.641E-01   0.179E-08 0.737E-07 -.164E-03
   0.146E-04 0.509E-05 -.874E+01   -.186E-04 -.500E-05 0.880E+01   0.392E-05 -.438E-06 -.641E-01   0.513E-08 0.794E-07 0.164E-03
   0.148E-05 0.174E+01 0.231E-04   -.133E-05 -.180E+01 -.194E-04   -.176E-06 0.625E-01 -.511E-05   0.127E-08 -.655E-03 0.235E-07
   -.203E-05 -.174E+01 0.232E-04   0.193E-05 0.180E+01 -.202E-04   0.127E-06 -.625E-01 -.492E-05   -.274E-08 0.655E-03 0.269E-07
 -----------------------------------------------------------------------------------------------
   0.317E-07 0.339E-05 0.167E-04   -.158E-12 -.604E-13 -.961E-13   -.297E-07 -.332E-05 -.165E-04   0.127E-08 -.661E-07 0.861E-08
 
 
 POSITION                                       TOTAL-FORCE (eV/Angst)
 -----------------------------------------------------------------------------------
      7.92919      0.00107      7.45540        -0.000000      0.000282     -0.002486
      0.00000      0.00107      3.84657         0.000000      0.000282      0.002483
      7.92919      3.89589      7.45540        -0.000000     -0.000283     -0.002452
     -0.00000      3.89589      3.84657         0.000000     -0.000283      0.002448
      3.96459      7.69891      0.00296         0.000000      0.001869     -0.000039
      3.96459      7.69891      3.76436         0.000000      0.001869      0.000039
      3.96459      3.99194      0.00296        -0.000000     -0.001869     -0.000038
      3.96460      3.99194      3.76436        -0.000000     -0.001869      0.000037
      3.96459      5.84543      7.53294        -0.000000      0.000000      0.000342
      3.96460      5.84543      3.76902         0.000000      0.000001     -0.000342
      7.92919      7.79114      5.65098        -0.000000     -0.000420      0.000005
     -0.00000      3.89972      5.65098         0.000000      0.000420      0.000007
      3.96460      0.04912      1.88366         0.000000     -0.000356     -0.000000
      3.96460      0.04844      5.65098         0.000000     -0.001340      0.000000
      3.96460      3.84784      1.88366        -0.000000      0.000356     -0.000001
      3.96460      3.84851      5.65098        -0.000000      0.001340      0.000001
      1.88639      0.00767      0.04129        -0.001384     -0.000529      0.001419
      1.88639      0.00767      3.72603        -0.001383     -0.000529     -0.001419
      1.88639      3.88928      0.04129        -0.001387      0.000529      0.001417
      1.88639      3.88928      3.72603        -0.001385      0.000529     -0.001418
      6.04280      0.00767      0.04129         0.001384     -0.000529      0.001419
      6.04280      0.00767      3.72603         0.001383     -0.000529     -0.001420
      6.04280      3.88928      0.04129         0.001387      0.000529      0.001417
      6.04280      3.88928      3.72603         0.001385      0.000529     -0.001418
      7.92919      1.94848      0.04694        -0.000000      0.000002     -0.004829
      0.00000      1.94848      3.72038         0.000000      0.000001      0.004829
      7.92919      5.84543      0.04732         0.000000     -0.000001     -0.004077
     -0.00000      5.84543      3.72000        -0.000000     -0.000001      0.004077
      3.96460      1.94848      7.53304         0.000000     -0.000000     -0.000472
      3.96459      1.94848      3.76893        -0.000000     -0.000000      0.000472
      7.92919      7.79101      1.88366        -0.000000      0.000262     -0.000001
     -0.00000      3.89984      1.88366         0.000000     -0.000262     -0.000002
 -----------------------------------------------------------------------------------
    total drift:                                0.000000     -0.000000      0.000000


--------------------------------------------------------------------------------------------------------



  FREE ENERGIE OF THE ION-ELECTRON SYSTEM (eV)
  ---------------------------------------------------
  free  energy   TOTEN  =      -210.19048279 eV

  energy  without entropy=     -210.18776355  energy(sigma->0) =     -210.18912317
 


--------------------------------------------------------------------------------------------------------


    POTLOK:  cpu time    0.9739: real time    0.9719


--------------------------------------------------------------------------------------------------------


 stress matrix after NEB project (eV)
     -0.00538      0.00000      0.00000
      0.00000      0.00168      0.00000
      0.00000      0.00000     -0.00734
  FORCES: max atom, RMS     0.004829    0.002217
  FORCE total and by dimension    0.012539    0.004829
  Stress total and by dimension    0.009249    0.007338
 Quasi-Newton relaxation of ions (Broydens 2nd method)
  g(Force)  = 0.758E-05   g(Stress)= 0.129E-06

 Reset! Starting new Quasi-Newton update for ions 


--------------------------------------------------------------------------------------------------------


  
 reached required accuracy - stopping structural energy minimisation
 writing wavefunctions
     LOOP+:  cpu time  400.1772: real time  403.0489
    4ORBIT:  cpu time    0.0000: real time    0.0000
 


 total charge     
 
# of ion       s       p       d       tot
------------------------------------------
    1        0.316   6.481   1.757   8.554
    2        0.316   6.481   1.757   8.554
    3        0.316   6.481   1.757   8.554
    4        0.316   6.481   1.757   8.554
    5        0.302   6.451   1.748   8.500
    6        0.302   6.451   1.748   8.500
    7        0.302   6.451   1.748   8.500
    8        0.302   6.451   1.748   8.500
    9        1.568   3.451   0.000   5.019
   10        1.568   3.451   0.000   5.019
   11        1.573   3.483   0.000   5.057
   12        1.573   3.483   0.000   5.057
   13        1.568   3.439   0.000   5.007
   14        1.567   3.436   0.000   5.003
   15        1.568   3.439   0.000   5.007
   16        1.567   3.436   0.000   5.003
   17        1.731   4.373   0.000   6.104
   18        1.731   4.373   0.000   6.104
   19        1.731   4.373   0.000   6.104
   20        1.731   4.373   0.000   6.104
   21        1.731   4.373   0.000   6.104
   22        1.731   4.373   0.000   6.104
   23        1.731   4.373   0.000   6.104
   24        1.731   4.373   0.000   6.104
   25        1.730   4.388   0.000   6.118
   26        1.730   4.388   0.000   6.118
   27        1.730   4.388   0.000   6.117
   28        1.730   4.388   0.000   6.117
   29        1.729   4.365   0.000   6.095
   30        1.729   4.365   0.000   6.095
   31        1.732   4.391   0.000   6.123
   32        1.732   4.391   0.000   6.123
--------------------------------------------------
tot         42.713 149.396  14.019 206.127
 


 magnetization (x)
 
# of ion       s       p       d       tot
------------------------------------------
    1        0.000   0.000   0.000   0.000
    2        0.000   0.000   0.000   0.000
    3        0.000   0.000   0.000   0.000
    4        0.000   0.000   0.000   0.000
    5       -0.000  -0.000  -0.000  -0.000
    6       -0.000  -0.000  -0.000  -0.000
    7       -0.000  -0.000  -0.000  -0.000
    8       -0.000  -0.000  -0.000  -0.000
    9        0.000   0.000   0.000   0.000
   10        0.000   0.000   0.000   0.000
   11        0.000  -0.000   0.000  -0.000
   12        0.000  -0.000   0.000  -0.000
   13        0.000   0.000   0.000   0.000
   14        0.000   0.000   0.000   0.000
   15        0.000   0.000   0.000   0.000
   16        0.000   0.000   0.000   0.000
   17        0.000  -0.000   0.000  -0.000
   18        0.000  -0.000   0.000  -0.000
   19        0.000  -0.000   0.000  -0.000
   20        0.000  -0.000   0.000  -0.000
   21        0.000  -0.000   0.000  -0.000
   22        0.000  -0.000   0.000  -0.000
   23        0.000  -0.000   0.000  -0.000
   24        0.000  -0.000   0.000  -0.000
   25        0.000   0.000   0.000   0.000
   26        0.000   0.000   0.000   0.000
   27        0.000   0.000   0.000   0.000
   28        0.000   0.000   0.000   0.000
   29        0.000   0.000   0.000   0.000
   30        0.000   0.000   0.000   0.000
   31        0.000   0.000   0.000   0.000
   32        0.000   0.000   0.000   0.000
--------------------------------------------------
tot          0.000   0.001   0.001   0.002
 

 total amount of memory used by VASP MPI-rank0   107305. kBytes
=======================================================================

   base      :      30000. kBytes
   nonlr-proj:       8530. kBytes
   fftplans  :       8423. kBytes
   grid      :       8783. kBytes
   one-center:        124. kBytes
   wavefun   :      51445. kBytes
 
  
  
 General timing and accounting informations for this job:
 ========================================================
  
                  Total CPU time used (sec):      450.242
                            User time (sec):      432.152
                          System time (sec):       18.089
                         Elapsed time (sec):      465.804
  
                   Maximum memory used (kb):      223592.
                   Average memory used (kb):           0.
  
                          Minor page faults:       126838
                          Major page faults:            2
                 Voluntary context switches:        73961
