 vasp.5.4.4.18Apr17-6-g9f103f2a35 (build Jul 16 2019 12:12:28) complex          
  
 executed on             LinuxIFC date 2020.01.06  10:21:08
 running on   96 total cores
 distrk:  each k-point on   96 cores,    1 groups
 distr:  one band on NCORES_PER_BAND=   8 cores,   12 groups


--------------------------------------------------------------------------------------------------------


 INCAR:
 POTCAR:    PAW_PBE Li_sv 10Sep2004               
 POTCAR:    PAW_PBE Ti_pv 07Sep2000               
 POTCAR:    PAW_PBE O 08Apr2002                   
 POTCAR:    PAW_PBE F 08Apr2002                   
 POTCAR:    PAW_PBE Li_sv 10Sep2004               
   VRHFIN =Li: 1s2s2p                                                           
   LEXCH  = PE                                                                  
   EATOM  =   202.7858 eV,   14.9043 Ry                                         
                                                                                
   TITEL  = PAW_PBE Li_sv 10Sep2004                                             
   LULTRA =        F    use ultrasoft PP ?                                      
   IUNSCR =        0    unscreen: 0-lin 1-nonlin 2-no                           
   RPACOR =    0.000    partial core radius                                     
   POMASS =    7.010; ZVAL   =    3.000    mass and valenz                      
   RCORE  =    1.700    outmost cutoff radius                                   
   RWIGS  =    2.050; RWIGS  =    1.085    wigner-seitz radius (au A)           
   ENMAX  =  499.034; ENMIN  =  374.276 eV                                      
   ICORE  =        2    local potential                                         
   LCOR   =        T    correct aug charges                                     
   LPAW   =        T    paw PP                                                  
   EAUG   =  628.945                                                            
   RMAX   =    1.732    core radius for proj-oper                               
   RAUG   =    1.300    factor for augmentation sphere                          
   RDEP   =    1.728    radius for radial grids                                 
   RDEPT  =    1.329    core radius for aug-charge                              
                                                                                
   Atomic configuration                                                         
    4 entries                                                                   
     n  l   j            E        occ.                                          
     1  0  0.50       -51.8549   2.0000                                         
     2  0  0.50        -2.8742   1.0000                                         
     2  1  0.50        -1.3606   0.0000                                         
     3  2  1.50        -1.3606   0.0000                                         
   Description                                                                  
     l       E           TYP  RCUT    TYP  RCUT                                 
     0    -51.8548813     23  1.400                                             
     0     -2.8742052     23  1.700                                             
     1     -1.3605826     23  1.400                                             
     2     -1.3605826     23  1.400                                             
  local pseudopotential read in
  atomic valenz-charges read in
  non local Contribution for L=           0  read in
    real space projection operators read in
  non local Contribution for L=           0  read in
    real space projection operators read in
  non local Contribution for L=           1  read in
    real space projection operators read in
    PAW grid and wavefunctions read in
 
   number of l-projection  operators is LMAX  =           3
   number of lm-projection operators is LMMAX =           5
 
 POTCAR:    PAW_PBE Ti_pv 07Sep2000               
   VRHFIN =Ti: d3 s1                                                            
   LEXCH  = PE                                                                  
   EATOM  =  1042.5995 eV,   76.6289 Ry                                         
                                                                                
   TITEL  = PAW_PBE Ti_pv 07Sep2000                                             
   LULTRA =        F    use ultrasoft PP ?                                      
   IUNSCR =        1    unscreen: 0-lin 1-nonlin 2-no                           
   RPACOR =    2.200    partial core radius                                     
   POMASS =   47.880; ZVAL   =   10.000    mass and valenz                      
   RCORE  =    2.500    outmost cutoff radius                                   
   RWIGS  =    2.500; RWIGS  =    1.323    wigner-seitz radius (au A)           
   ENMAX  =  222.335; ENMIN  =  166.751 eV                                      
   RCLOC  =    1.701    cutoff for local pot                                    
   LCOR   =        T    correct aug charges                                     
   LPAW   =        T    paw PP                                                  
   EAUG   =  482.848                                                            
   DEXC   =    0.000                                                            
   RMAX   =    2.564    core radius for proj-oper                               
   RAUG   =    1.300    factor for augmentation sphere                          
   RDEP   =    2.538    radius for radial grids                                 
   RDEPT  =    1.952    core radius for aug-charge                              
                                                                                
   Atomic configuration                                                         
    8 entries                                                                   
     n  l   j            E        occ.                                          
     1  0  0.50     -4865.3608   2.0000                                         
     2  0  0.50      -533.1368   2.0000                                         
     2  1  1.50      -440.5031   6.0000                                         
     3  0  0.50       -59.3186   2.0000                                         
     3  1  1.50       -35.7012   6.0000                                         
     3  2  2.50        -1.9157   3.0000                                         
     4  0  0.50        -3.7291   1.0000                                         
     4  3  2.50        -1.3606   0.0000                                         
   Description                                                                  
     l       E           TYP  RCUT    TYP  RCUT                                 
     1    -35.7012140     23  2.300                                             
     1     -1.3605826     23  2.300                                             
     2     -1.9156996     23  2.500                                             
     2     -0.4063033     23  2.500                                             
     0     -3.7290856     23  2.500                                             
     0     20.4087390     23  2.500                                             
  local pseudopotential read in
  partial core-charges read in
  partial kinetic energy density read in
  atomic valenz-charges read in
  non local Contribution for L=           1  read in
    real space projection operators read in
  non local Contribution for L=           1  read in
    real space projection operators read in
  non local Contribution for L=           2  read in
    real space projection operators read in
  non local Contribution for L=           2  read in
    real space projection operators read in
  non local Contribution for L=           0  read in
    real space projection operators read in
  non local Contribution for L=           0  read in
    real space projection operators read in
    PAW grid and wavefunctions read in
 
   number of l-projection  operators is LMAX  =           6
   number of lm-projection operators is LMMAX =          18
 
 POTCAR:    PAW_PBE O 08Apr2002                   
   VRHFIN =O: s2p4                                                              
   LEXCH  = PE                                                                  
   EATOM  =   432.3788 eV,   31.7789 Ry                                         
                                                                                
   TITEL  = PAW_PBE O 08Apr2002                                                 
   LULTRA =        F    use ultrasoft PP ?                                      
   IUNSCR =        1    unscreen: 0-lin 1-nonlin 2-no                           
   RPACOR =    1.200    partial core radius                                     
   POMASS =   16.000; ZVAL   =    6.000    mass and valenz                      
   RCORE  =    1.520    outmost cutoff radius                                   
   RWIGS  =    1.550; RWIGS  =    0.820    wigner-seitz radius (au A)           
   ENMAX  =  400.000; ENMIN  =  300.000 eV                                      
   ICORE  =        2    local potential                                         
   LCOR   =        T    correct aug charges                                     
   LPAW   =        T    paw PP                                                  
   EAUG   =  605.392                                                            
   DEXC   =    0.000                                                            
   RMAX   =    1.553    core radius for proj-oper                               
   RAUG   =    1.300    factor for augmentation sphere                          
   RDEP   =    1.550    radius for radial grids                                 
   RDEPT  =    1.329    core radius for aug-charge                              
                                                                                
   Atomic configuration                                                         
    4 entries                                                                   
     n  l   j            E        occ.                                          
     1  0  0.50      -514.6923   2.0000                                         
     2  0  0.50       -23.9615   2.0000                                         
     2  1  0.50        -9.0305   4.0000                                         
     3  2  1.50        -9.5241   0.0000                                         
   Description                                                                  
     l       E           TYP  RCUT    TYP  RCUT                                 
     0    -23.9615318     23  1.200                                             
     0     -9.5240782     23  1.200                                             
     1     -9.0304911     23  1.520                                             
     1      8.1634956     23  1.520                                             
     2     -9.5240782      7  1.500                                             
  local pseudopotential read in
  partial core-charges read in
  partial kinetic energy density read in
  kinetic energy density of atom read in
  atomic valenz-charges read in
  non local Contribution for L=           0  read in
    real space projection operators read in
  non local Contribution for L=           0  read in
    real space projection operators read in
  non local Contribution for L=           1  read in
    real space projection operators read in
  non local Contribution for L=           1  read in
    real space projection operators read in
    PAW grid and wavefunctions read in
 
   number of l-projection  operators is LMAX  =           4
   number of lm-projection operators is LMMAX =           8
 
 POTCAR:    PAW_PBE F 08Apr2002                   
   VRHFIN =F: s2p5                                                              
   LEXCH  = PE                                                                  
   EATOM  =   659.6475 eV,   48.4827 Ry                                         
                                                                                
   TITEL  = PAW_PBE F 08Apr2002                                                 
   LULTRA =        F    use ultrasoft PP ?                                      
   IUNSCR =        1    unscreen: 0-lin 1-nonlin 2-no                           
   RPACOR =    1.200    partial core radius                                     
   POMASS =   18.998; ZVAL   =    7.000    mass and valenz                      
   RCORE  =    1.520    outmost cutoff radius                                   
   RWIGS  =    1.500; RWIGS  =    0.794    wigner-seitz radius (au A)           
   ENMAX  =  400.000; ENMIN  =  300.000 eV                                      
   ICORE  =        2    local potential                                         
   LCOR   =        T    correct aug charges                                     
   LPAW   =        T    paw PP                                                  
   EAUG   =  613.614                                                            
   RMAX   =    1.555    core radius for proj-oper                               
   RAUG   =    1.300    factor for augmentation sphere                          
   RDEP   =    1.539    radius for radial grids                                 
   RDEPT  =    1.299    core radius for aug-charge                              
                                                                                
   Atomic configuration                                                         
    4 entries                                                                   
     n  l   j            E        occ.                                          
     1  0  0.50      -663.3661   2.0000                                         
     2  0  0.50       -29.8995   2.0000                                         
     2  1  0.50       -11.1114   5.0000                                         
     3  2  1.50       -10.8847   0.0000                                         
   Description                                                                  
     l       E           TYP  RCUT    TYP  RCUT                                 
     0    -29.8995018     23  1.200                                             
     0     -9.5240782     23  1.200                                             
     1    -11.1113914     23  1.520                                             
     1      1.3605826     23  1.520                                             
     2    -10.8846608      7  1.500                                             
  local pseudopotential read in
  partial core-charges read in
  partial kinetic energy density read in
  atomic valenz-charges read in
  non local Contribution for L=           0  read in
    real space projection operators read in
  non local Contribution for L=           0  read in
    real space projection operators read in
  non local Contribution for L=           1  read in
    real space projection operators read in
  non local Contribution for L=           1  read in
    real space projection operators read in
    PAW grid and wavefunctions read in
 
   number of l-projection  operators is LMAX  =           4
   number of lm-projection operators is LMMAX =           8
 
 Optimization of the real space projectors (new method)

 maximal supplied QI-value         = 22.11
 optimisation between [QCUT,QGAM] = [ 11.28, 22.77] = [ 35.61,145.23] Ry 
 Optimized for a Real-space Cutoff    1.31 Angstroem

   l    n(q)    QCUT    max X(q) W(low)/X(q) W(high)/X(q)  e(spline) 
   0      9    11.276    10.506    0.19E-04    0.17E-04    0.32E-07
   0      9    11.276     8.367    0.38E-04    0.40E-04    0.65E-07
   1      8    11.276     8.983    0.55E-04    0.98E-04    0.20E-06
 Optimization of the real space projectors (new method)

 maximal supplied QI-value         = 15.12
 optimisation between [QCUT,QGAM] = [ 11.34, 22.83] = [ 36.00,145.93] Ry 
 Optimized for a Real-space Cutoff    1.56 Angstroem

   l    n(q)    QCUT    max X(q) W(low)/X(q) W(high)/X(q)  e(spline) 
   1     10    11.338     4.216    0.27E-04    0.12E-04    0.66E-07
   1     10    11.338     5.422    0.81E-04    0.24E-04    0.19E-06
   2     10    11.338    72.084    0.64E-04    0.21E-03    0.51E-06
   2     10    11.338    65.965    0.63E-04    0.21E-03    0.50E-06
   0     11    11.338    41.531    0.33E-04    0.54E-04    0.13E-06
   0     11    11.338    16.290    0.26E-04    0.41E-04    0.11E-06
 Optimization of the real space projectors (new method)

 maximal supplied QI-value         = 24.76
 optimisation between [QCUT,QGAM] = [ 11.39, 22.77] = [ 36.31,145.25] Ry 
 Optimized for a Real-space Cutoff    1.20 Angstroem

   l    n(q)    QCUT    max X(q) W(low)/X(q) W(high)/X(q)  e(spline) 
   0      8    11.387    20.381    0.89E-04    0.31E-03    0.27E-06
   0      8    11.387    15.268    0.93E-04    0.32E-03    0.29E-06
   1      8    11.387     5.964    0.53E-04    0.28E-03    0.29E-06
   1      8    11.387     5.382    0.37E-04    0.22E-03    0.26E-06
 Optimization of the real space projectors (new method)

 maximal supplied QI-value         = 24.76
 optimisation between [QCUT,QGAM] = [ 11.39, 22.77] = [ 36.31,145.25] Ry 
 Optimized for a Real-space Cutoff    1.20 Angstroem

   l    n(q)    QCUT    max X(q) W(low)/X(q) W(high)/X(q)  e(spline) 
   0      8    11.387    14.049    0.69E-04    0.23E-03    0.18E-06
   0      8    11.387     8.945    0.88E-04    0.30E-03    0.26E-06
   1      8    11.387     7.086    0.62E-04    0.27E-03    0.27E-06
   1      8    11.387     6.747    0.46E-04    0.23E-03    0.25E-06

 ----------------------------------------------------------------------------- 
|                                                                             |
|  ADVICE TO THIS USER RUNNING 'VASP/VAMP'   (HEAR YOUR MASTER'S VOICE ...):  |
|                                                                             |
|      You enforced a specific xc-type in the INCAR file,                     |
|      a different type was found on the POTCAR file                          |
|          I HOPE YOU KNOW, WHAT YOU ARE  DOING                               |
|                                                                             |
 ----------------------------------------------------------------------------- 

  PAW_PBE Li_sv 10Sep2004               :
 energy of atom  1       EATOM= -202.7858
 kinetic energy error for atom=    0.0143 (will be added to EATOM!!)
  PAW_PBE Ti_pv 07Sep2000               :
 energy of atom  2       EATOM=-1042.5995
 kinetic energy error for atom=    0.0024 (will be added to EATOM!!)
  PAW_PBE O 08Apr2002                   :
 energy of atom  3       EATOM= -432.3788
 kinetic energy error for atom=    0.0224 (will be added to EATOM!!)
  PAW_PBE F 08Apr2002                   :
 energy of atom  4       EATOM= -659.6475
 kinetic energy error for atom=    0.0354 (will be added to EATOM!!)
 
 
 POSCAR: config 23                               
  positions in direct lattice
  velocities in cartesian coordinates
 exchange correlation table for  LEXCH =       14
   RHO(1)=    0.500       N(1)  =     2000
   RHO(2)=  100.500       N(2)  =     4000

 VTST: version 3.2, (02/03/18)

 CHAIN: initializing optimizer
 
 OPT: Using VASP QUASI-newton optimizer
 CHAIN: Read ICHAIN            0
 
 POSCAR: config 23                               
  positions in direct lattice
  velocities in cartesian coordinates
 


--------------------------------------------------------------------------------------------------------


 ion  position               nearest neighbor table
   1  0.342  0.382  0.608-  83 2.11  77 2.12 127 2.14  37 2.75  51 2.85
   2  0.996  0.995  0.995- 118 1.87  68 1.89 103 1.89 171 2.03 130 2.04 212 2.04
   3  0.999  0.992  0.494- 119 1.82  67 1.82 172 1.96 193 1.96 131 2.01 213 2.10
   4  0.006  0.496  0.997-  89 1.85 117 1.85 138 1.94 132 1.99 214 2.02 194 2.03
   5  0.993  0.504  0.507-  66 1.83 104 1.83 215 1.93 223 2.01 137 2.03 173 2.06
   6  0.495  0.993  0.001- 101 1.84 121 1.85 140 1.96 133 1.98 174 2.02 216 2.03
   7  0.504  0.009  0.499- 112 1.72 134 1.95 191 1.95 139 1.95 175 1.96 225 2.09
   8  0.504  0.495  0.997- 120 1.88  70 1.89  90 1.89 192 2.04 135 2.04 217 2.06
   9  0.492  0.499  0.495- 102 1.84  69 1.85 224 1.98 218 1.99 136 2.02 176 2.06
  10  0.007  0.004  0.256-  91 1.84  67 1.86 219 1.95 227 1.97 130 2.00 197 2.05
  11  0.003  0.007  0.757-  68 1.79 113 1.85 177 1.95 198 1.98 228 2.04 131 2.06
  12  0.993  0.493  0.251- 107 1.82 122 1.86 137 1.94 132 1.97 220 2.01 178 2.04
  13  0.993  0.499  0.741- 108 1.82  66 1.83 226 1.93 221 1.96 138 2.03 179 2.07
  14  0.506  0.010  0.252- 114 1.83  92 1.84 133 1.95 139 1.96 195 2.01 231 2.08
  15  0.494  0.004  0.753- 105 1.82 115 1.83 140 1.95 134 1.98 232 2.02 180 2.03
  16  0.492  0.495  0.257-  69 1.84 106 1.84 229 1.95 222 2.01 135 2.02 181 2.05
  17  0.502  0.503  0.760-  70 1.80 116 1.87 182 1.94 196 1.99 230 2.04 136 2.09
  18  0.996  0.258  0.001- 117 1.83 110 1.87 141 1.96 146 1.97 183 2.01 212 2.02
  19  0.999  0.248  0.491-  74 1.78 202 1.91 213 1.92 223 1.96 184 1.97 142 2.01
  20  0.998  0.758  0.006- 118 1.81  71 1.85 203 1.95 185 1.98 148 2.04 214 2.06
  21  0.996  0.757  0.506- 119 1.83  72 1.84 204 1.95 186 1.98 147 2.01 215 2.05
  22  0.496  0.258  0.002- 120 1.81 109 1.85 150 1.96 143 1.98 187 2.03 216 2.08
  23  0.507  0.247  0.499-  93 1.90 112 2.01 144 2.02 149 2.02 199 2.04 224 2.09
  24  0.507  0.756  0.000-  94 1.83 121 1.84 152 1.94 145 1.99 217 2.02 200 2.03
  25  0.507  0.753  0.509-  73 1.80  95 1.84 225 1.94 218 1.99 201 2.04 151 2.07
  26  0.001  0.259  0.255- 122 1.80  74 1.88 209 1.94 188 1.96 141 1.99 219 2.03
  27  0.007  0.242  0.746- 113 1.79  96 1.86 142 1.95 146 1.96 210 2.03 226 2.05
  28  0.006  0.748  0.243-  71 1.82  97 1.84 220 1.95 227 1.98 147 2.05 211 2.05
  29  0.993  0.750  0.743- 111 1.82  72 1.84 228 1.93 221 1.98 148 2.02 189 2.03
  30  0.507  0.242  0.253-  98 1.83 114 1.83 149 1.91 143 1.95 205 2.04 229 2.05
  31  0.508  0.242  0.751- 115 1.84  99 1.84 144 1.93 150 1.95 206 2.03 230 2.05
  32  0.506  0.751  0.252- 100 1.79 151 1.92 231 1.94 145 1.94 222 1.96 207 2.01
  33  0.502  0.741  0.744- 116 1.81  73 1.84 190 1.93 208 1.97 152 2.04 232 2.05
  34  0.257  0.997  0.006-  75 1.85 101 1.86 246 1.94 233 1.97 171 2.02 157 2.05
  35  0.253  0.993  0.506- 128 1.83  76 1.84 172 1.96 191 1.98 156 2.02 234 2.07
  36  0.244  0.509  0.998- 123 1.83  89 1.84 159 1.96 153 1.98 192 2.02 245 2.04
  37  0.254  0.498  0.504- 102 1.87  77 1.89 127 1.93 235 2.01 173 2.01 158 2.03   1 2.75
  38  0.757  0.000  0.995- 103 1.80  81 1.87 236 1.96 249 1.96 154 2.04 174 2.06
  39  0.749  0.009  0.496- 124 1.81  80 1.85 193 1.96 175 1.99 155 1.99 250 2.09
  40  0.741  0.500  0.004-  90 1.80  78 1.88 237 1.96 247 1.96 161 2.03 194 2.06
  41  0.755  0.498  0.506-  79 1.84 104 1.86 248 1.96 238 1.99 160 2.02 176 2.04
  42  0.245  0.002  0.244-  75 1.84  91 1.85 239 1.95 252 1.98 195 2.05 156 2.05
  43  0.259  0.997  0.744- 105 1.83  76 1.84 253 1.94 240 1.98 157 2.02 177 2.03
  44  0.254  0.492  0.251- 129 1.83 106 1.84 158 1.95 153 1.97 178 2.03 241 2.05
  45  0.247  0.507  0.741- 125 1.81  77 1.83 179 1.93 196 1.99 159 2.05 251 2.05
  46  0.744  0.002  0.257-  80 1.84  92 1.86 256 1.96 242 1.97 197 2.01 154 2.01
  47  0.748  0.007  0.756-  81 1.82 126 1.83 180 1.94 198 1.97 257 2.04 155 2.06
  48  0.755  0.497  0.242-  78 1.81 107 1.86 243 1.96 254 1.96 181 2.03 160 2.06
  49  0.757  0.497  0.742- 108 1.83  79 1.84 255 1.93 244 1.98 182 2.03 161 2.04
  50  0.258  0.253  0.005- 109 1.83  82 1.86 245 1.94 233 1.97 168 2.03 183 2.04
  51  0.254  0.257  0.504- 127 1.83  83 1.89 199 1.95 184 1.99 167 2.01 234 2.03   1 2.85
  52  0.252  0.741  0.995- 123 1.82  86 1.85 200 1.94 185 1.96 162 2.03 246 2.05
  53  0.253  0.756  0.492-  85 1.83 128 1.85 201 1.95 186 1.99 163 2.04 235 2.05
  54  0.758  0.252  0.007- 110 1.81  84 1.85 236 1.94 247 1.95 187 2.03 170 2.04
  55  0.740  0.244  0.498-  93 1.77 124 1.86 169 1.95 164 1.98 248 2.05 202 2.11
  56  0.741  0.748  0.994-  94 1.82  88 1.84 237 1.95 249 1.95 203 2.02 165 2.03
  57  0.741  0.753  0.494-  95 1.82  87 1.86 250 1.94 238 1.99 166 2.01 204 2.06
  58  0.251  0.259  0.243-  82 1.82 129 1.83 205 1.95 188 1.99 239 2.04 167 2.06
  59  0.245  0.253  0.744-  96 1.82  83 1.88 251 1.95 240 1.96 168 2.01 206 2.05
  60  0.243  0.747  0.256-  97 1.83  85 1.85 241 1.95 252 1.99 162 2.04 207 2.05
  61  0.248  0.741  0.756-  86 1.83 125 1.84 189 1.93 208 1.97 253 2.03 163 2.05
  62  0.742  0.251  0.242-  84 1.81  98 1.82 254 1.95 242 1.95 169 2.05 209 2.06
  63  0.745  0.242  0.750- 126 1.82  99 1.84 170 1.95 164 1.99 210 2.03 255 2.05
  64  0.745  0.749  0.257-  87 1.81 100 1.90 243 1.95 256 1.95 211 1.98 165 2.03
  65  0.757  0.749  0.757- 111 1.82  88 1.84 257 1.93 244 1.97 190 2.03 166 2.05
  66  0.013  0.503  0.624-  13 1.83   5 1.83
  67  0.998  0.006  0.376-   3 1.82  10 1.86
  68  0.003  0.002  0.873-  11 1.79   2 1.89
  69  0.494  0.486  0.376-  16 1.84   9 1.85
  70  0.490  0.490  0.875-  17 1.80   8 1.89
  71  1.000  0.744  0.125-  28 1.82  20 1.85
  72  0.003  0.745  0.624-  21 1.84  29 1.84
  73  0.504  0.744  0.625-  25 1.80  33 1.84
  74  0.002  0.248  0.376-  19 1.78  26 1.88
  75  0.257  0.995  0.126-  42 1.84  34 1.85
  76  0.259  0.995  0.625-  35 1.84  43 1.84
  77  0.246  0.479  0.625-  45 1.83  37 1.89   1 2.12
  78  0.746  0.488  0.125-  48 1.81  40 1.88
  79  0.742  0.490  0.624-  49 1.84  41 1.84
  80  0.749  0.003  0.376-  46 1.84  39 1.85
  81  0.744  0.002  0.874-  47 1.82  38 1.87
  82  0.248  0.260  0.125-  58 1.82  50 1.86
  83  0.268  0.269  0.625-  59 1.88  51 1.89   1 2.11
  84  0.748  0.263  0.126-  62 1.81  54 1.85
  85  0.255  0.738  0.375-  53 1.83  60 1.85
  86  0.253  0.740  0.875-  61 1.83  52 1.85
  87  0.753  0.747  0.375-  64 1.81  57 1.86
  88  0.750  0.747  0.876-  65 1.84  56 1.84
  89  0.125  0.509  0.990-  36 1.84   4 1.85
  90  0.625  0.511  0.995-  40 1.80   8 1.89
  91  0.125  0.008  0.250-  10 1.84  42 1.85
  92  0.625  0.008  0.248-  14 1.84  46 1.86
  93  0.628  0.270  0.500-  55 1.77  23 1.90
  94  0.624  0.736  0.002-  56 1.82  24 1.83
  95  0.624  0.769  0.495-  57 1.82  25 1.84
  96  0.127  0.253  0.740-  59 1.82  27 1.86
  97  0.125  0.746  0.253-  60 1.83  28 1.84
  98  0.626  0.239  0.256-  62 1.82  30 1.83
  99  0.626  0.253  0.741-  63 1.84  31 1.84
 100  0.622  0.748  0.252-  32 1.79  64 1.90
 101  0.376  0.995  0.991-   6 1.84  34 1.86
 102  0.374  0.515  0.509-   9 1.84  37 1.87
 103  0.873  0.996  0.998-  38 1.80   2 1.89
 104  0.875  0.514  0.504-   5 1.83  41 1.86
 105  0.377  0.997  0.761-  15 1.82  43 1.83
 106  0.373  0.491  0.245-  44 1.84  16 1.84
 107  0.875  0.491  0.248-  12 1.82  48 1.86
 108  0.875  0.509  0.741-  13 1.82  49 1.83
 109  0.376  0.253  0.999-  50 1.83  22 1.85
 110  0.875  0.254  1.000-  54 1.81  18 1.87
 111  0.875  0.742  0.748-  65 1.82  29 1.82
 112  0.522  0.118  0.489-   7 1.72  23 2.01
 113  0.999  0.126  0.744-  27 1.79  11 1.85
 114  0.490  0.125  0.271-  14 1.83  30 1.83
 115  0.504  0.123  0.759-  15 1.83  31 1.84
 116  0.501  0.624  0.757-  33 1.81  17 1.87
 117  0.005  0.376  0.004-  18 1.83   4 1.85
 118  0.007  0.875  0.002-  20 1.81   2 1.87
 119  0.984  0.875  0.499-   3 1.82  21 1.83
 120  0.507  0.374  0.014-  22 1.81   8 1.88
 121  0.509  0.875  0.012-  24 1.84   6 1.85
 122  0.013  0.374  0.246-  26 1.80  12 1.86
 123  0.260  0.625  0.013-  52 1.82  36 1.83
 124  0.732  0.125  0.508-  39 1.81  55 1.86
 125  0.247  0.624  0.736-  45 1.81  61 1.84
 126  0.751  0.124  0.741-  63 1.82  47 1.83
 127  0.269  0.375  0.490-  51 1.83  37 1.93   1 2.14
 128  0.264  0.876  0.491-  35 1.83  53 1.85
 129  0.237  0.375  0.263-  58 1.83  44 1.83
 130  0.998  0.004  0.127-  10 2.00   2 2.04
 131  0.002  0.998  0.624-   3 2.01  11 2.06
 132  0.004  0.510  0.125-  12 1.97   4 1.99
 133  0.490  0.015  0.127-  14 1.95   6 1.98
 134  0.494  0.002  0.625-   7 1.95  15 1.98
 135  0.504  0.514  0.128-  16 2.02   8 2.04
 136  0.511  0.507  0.625-   9 2.02  17 2.09
 137  0.999  0.495  0.376-  12 1.94   5 2.03
 138  0.991  0.496  0.872-   4 1.94  13 2.03
 139  0.506  0.979  0.376-   7 1.95  14 1.96
 140  0.518  0.989  0.876-  15 1.95   6 1.96
 141  0.003  0.245  0.127-  18 1.96  26 1.99
 142  0.994  0.258  0.621-  27 1.95  19 2.01
 143  0.501  0.231  0.127-  30 1.95  22 1.98
 144  0.484  0.237  0.628-  31 1.93  23 2.02
 145  0.496  0.737  0.127-  32 1.94  24 1.99
 146  0.004  0.252  0.873-  27 1.96  18 1.97
 147  0.993  0.751  0.375-  21 2.01  28 2.05
 148  0.000  0.752  0.874-  29 2.02  20 2.04
 149  0.496  0.275  0.372-  30 1.91  23 2.02
 150  0.507  0.262  0.875-  31 1.95  22 1.96
 151  0.491  0.761  0.375-  32 1.92  25 2.07
 152  0.497  0.758  0.875-  24 1.94  33 2.04
 153  0.239  0.485  0.124-  44 1.97  36 1.98
 154  0.752  0.999  0.127-  46 2.01  38 2.04
 155  0.751  0.991  0.624-  39 1.99  47 2.06
 156  0.250  0.011  0.376-  35 2.02  42 2.05
 157  0.241  0.005  0.874-  43 2.02  34 2.05
 158  0.252  0.518  0.375-  44 1.95  37 2.03
 159  0.264  0.511  0.872-  36 1.96  45 2.05
 160  0.749  0.509  0.375-  41 2.02  48 2.06
 161  0.757  0.509  0.874-  40 2.03  49 2.04
 162  0.249  0.763  0.125-  52 2.03  60 2.04
 163  0.248  0.760  0.625-  53 2.04  61 2.05
 164  0.760  0.263  0.624-  55 1.98  63 1.99
 165  0.751  0.751  0.126-  64 2.03  56 2.03
 166  0.746  0.752  0.625-  57 2.01  65 2.05
 167  0.246  0.239  0.375-  51 2.01  58 2.06
 168  0.246  0.242  0.874-  59 2.01  50 2.03
 169  0.759  0.240  0.374-  55 1.95  62 2.05
 170  0.747  0.241  0.876-  63 1.95  54 2.04
 171  0.127  0.006  0.005-  34 2.02   2 2.03
 172  0.126  0.989  0.501-   3 1.96  35 1.96
 173  0.125  0.488  0.490-  37 2.01   5 2.06
 174  0.625  0.007  0.011-   6 2.02  38 2.06
 175  0.626  0.973  0.506-   7 1.96  39 1.99
 176  0.624  0.483  0.495-  41 2.04   9 2.06
 177  0.128  1.000  0.744-  11 1.95  43 2.03
 178  0.124  0.513  0.253-  44 2.03  12 2.04
 179  0.125  0.493  0.763-  45 1.93  13 2.07
 180  0.624  0.993  0.738-  47 1.94  15 2.03
 181  0.624  0.505  0.254-  48 2.03  16 2.05
 182  0.627  0.491  0.761-  17 1.94  49 2.03
 183  0.126  0.246  0.998-  18 2.01  50 2.04
 184  0.125  0.263  0.506-  19 1.97  51 1.99
 185  0.125  0.739  0.999-  52 1.96  20 1.98
 186  0.124  0.763  0.494-  21 1.98  53 1.99
 187  0.626  0.244  1.000-  22 2.03  54 2.03
 188  0.125  0.232  0.251-  26 1.96  58 1.99
 189  0.124  0.754  0.752-  61 1.93  29 2.03
 190  0.626  0.754  0.753-  33 1.93  65 2.03
 191  0.378  0.019  0.493-   7 1.95  35 1.98
 192  0.373  0.491  0.011-  36 2.02   8 2.04
 193  0.875  0.021  0.506-  39 1.96   3 1.96
 194  0.875  0.493  0.003-   4 2.03  40 2.06
 195  0.376  0.992  0.259-  14 2.01  42 2.05
 196  0.375  0.495  0.734-  17 1.99  45 1.99
 197  0.874  0.994  0.249-  46 2.01  10 2.05
 198  0.875  0.995  0.747-  47 1.97  11 1.98
 199  0.377  0.230  0.490-  51 1.95  23 2.04
 200  0.376  0.762  0.003-  52 1.94  24 2.03
 201  0.376  0.733  0.504-  53 1.95  25 2.04
 202  0.877  0.234  0.500-  19 1.91  55 2.11
 203  0.872  0.760  0.000-  20 1.95  56 2.02
 204  0.872  0.732  0.505-  21 1.95  57 2.06
 205  0.377  0.263  0.249-  58 1.95  30 2.04
 206  0.377  0.250  0.761-  31 2.03  59 2.05
 207  0.376  0.753  0.246-  32 2.01  60 2.05
 208  0.375  0.754  0.747-  61 1.97  33 1.97
 209  0.875  0.263  0.249-  26 1.94  62 2.06
 210  0.876  0.252  0.753-  27 2.03  63 2.03
 211  0.873  0.753  0.248-  64 1.98  28 2.05
 212  1.000  0.127  1.000-  18 2.02   2 2.04
 213  0.016  0.126  0.508-  19 1.92   3 2.10
 214  0.988  0.625  0.993-   4 2.02  20 2.06
 215  0.014  0.627  0.491-   5 1.93  21 2.05
 216  0.500  0.124  0.990-   6 2.03  22 2.08
 217  0.485  0.627  0.994-  24 2.02   8 2.06
 218  0.516  0.626  0.489-  25 1.99   9 1.99
 219  0.986  0.128  0.248-  10 1.95  26 2.03
 220  0.992  0.623  0.258-  28 1.95  12 2.01
 221  0.012  0.624  0.757-  13 1.96  29 1.98
 222  0.494  0.625  0.263-  32 1.96  16 2.01
 223  0.988  0.375  0.499-  19 1.96   5 2.01
 224  0.472  0.376  0.522-   9 1.98  23 2.09
 225  0.479  0.875  0.507-  25 1.94   7 2.09
 226  0.996  0.375  0.749-  13 1.93  27 2.05
 227  0.001  0.876  0.250-  10 1.97  28 1.98
 228  1.000  0.875  0.746-  29 1.93  11 2.04
 229  0.509  0.372  0.232-  16 1.95  30 2.05
 230  0.494  0.373  0.736-  17 2.04  31 2.05
 231  0.501  0.876  0.237-  32 1.94  14 2.08
 232  0.502  0.874  0.747-  15 2.02  33 2.05
 233  0.252  0.125  0.003-  34 1.97  50 1.97
 234  0.237  0.127  0.509-  51 2.03  35 2.07
 235  0.234  0.626  0.514-  37 2.01  53 2.05
 236  0.751  0.126  0.008-  54 1.94  38 1.96
 237  0.766  0.625  0.008-  56 1.95  40 1.96
 238  0.732  0.625  0.505-  57 1.99  41 1.99
 239  0.264  0.127  0.245-  42 1.95  58 2.04
 240  0.253  0.126  0.744-  59 1.96  43 1.98
 241  0.255  0.624  0.233-  60 1.95  44 2.05
 242  0.766  0.126  0.242-  62 1.95  46 1.97
 243  0.753  0.624  0.243-  64 1.95  48 1.96
 244  0.738  0.624  0.743-  65 1.97  49 1.98
 245  0.244  0.377  0.986-  50 1.94  36 2.04
 246  0.240  0.873  0.993-  34 1.94  52 2.05
 247  0.742  0.375  0.983-  54 1.95  40 1.96
 248  0.770  0.373  0.487-  41 1.96  55 2.05
 249  0.738  0.874  0.003-  56 1.95  38 1.96
 250  0.771  0.876  0.499-  57 1.94  39 2.09
 251  0.257  0.377  0.767-  59 1.95  45 2.05
 252  0.248  0.876  0.261-  42 1.98  60 1.99
 253  0.247  0.873  0.757-  43 1.94  61 2.03
 254  0.740  0.374  0.268-  62 1.95  48 1.96
 255  0.757  0.374  0.762-  49 1.93  63 2.05
 256  0.747  0.875  0.248-  64 1.95  46 1.96
 257  0.752  0.874  0.749-  65 1.93  47 2.04
 

IMPORTANT INFORMATION: All symmetrisations will be switched off!
NOSYMM: (Re-)initialisation of all symmetry stuff for point group C_1.

 
 
 KPOINTS: Title                                   

Automatic generation of k-mesh.
Space group operators:
 irot       det(A)        alpha          n_x          n_y          n_z        tau_x        tau_y        tau_z
    1     1.000000     0.000001     1.000000     0.000000     0.000000     0.000000     0.000000     0.000000
 
 Subroutine IBZKPT returns following result:
 ===========================================
 
 Found      4 irreducible k-points:
 
 Following reciprocal coordinates:
            Coordinates               Weight
  0.250000  0.250000  0.250000      2.000000
 -0.250000  0.250000  0.250000      2.000000
  0.250000 -0.250000  0.250000      2.000000
 -0.250000 -0.250000  0.250000      2.000000
 
 Following cartesian coordinates:
            Coordinates               Weight
  0.016206  0.016206  0.016206      2.000000
 -0.016206  0.016206  0.016206      2.000000
  0.016206 -0.016206  0.016206      2.000000
 -0.016206 -0.016206  0.016206      2.000000
 


--------------------------------------------------------------------------------------------------------




 Dimension of arrays:
   k-points           NKPTS =      4   k-points in BZ     NKDIM =      4   number of bands    NBANDS=   1164
   number of dos      NEDOS =   3001   number of ions     NIONS =    257
   non local maximal  LDIM  =      6   non local SUM 2l+1 LMDIM =     18
   total plane-waves  NPLWV = ******
   max r-space proj   IRMAX =   7595   max aug-charges    IRDMAX= 146383
   dimension x,y,z NGX =   120 NGY =  120 NGZ =  120
   dimension x,y,z NGXF=   240 NGYF=  240 NGZF=  240
   support grid    NGXF=   480 NGYF=  480 NGZF=  480
   ions per type =               1  64  64 128
   NGX,Y,Z   is equivalent  to a cutoff of  12.93, 12.93, 12.93 a.u.
   NGXF,Y,Z  is equivalent  to a cutoff of  25.86, 25.86, 25.86 a.u.

 SYSTEM =  LTO                                     
 POSCAR =  config 23                               

 Startparameter for this run:
   NWRITE =      2    write-flag & timer
   PREC   = accura    normal or accurate (medium, high low for compatibility)
   ISTART =      1    job   : 0-new  1-cont  2-samecut
   ICHARG =      0    charge: 1-file 2-atom 10-const
   ISPIN  =      2    spin polarized calculation?
   LNONCOLLINEAR =      F non collinear calculations
   LSORBIT =      F    spin-orbit coupling
   INIWAV =      1    electr: 0-lowe 1-rand  2-diag
   LASPH  =      T    aspherical Exc in radial PAW
   METAGGA=      F    non-selfconsistent MetaGGA calc.

 Electronic Relaxation 1
   ENCUT  =  500.0 eV  36.75 Ry    6.06 a.u.  28.13 28.13 28.13*2*pi/ulx,y,z
   ENINI  =  500.0     initial cutoff
   ENAUG  =  628.9 eV  augmentation charge cutoff
   NELM   =     60;   NELMIN=  2; NELMDL=  0     # of ELM steps 
   EDIFF  = 0.1E-05   stopping-criterion for ELM
   LREAL  =      T    real-space projection
   NLSPLINE    = F    spline interpolate recip. space projectors
   LCOMPAT=      F    compatible to vasp.4.4
   GGA_COMPAT  = T    GGA compatible to vasp.4.4-vasp.4.6
   LMAXPAW     = -100 max onsite density
   LMAXMIX     =    4 max onsite mixed and CHGCAR
   VOSKOWN=      0    Vosko Wilk Nusair interpolation
   ROPT   =   -0.00010  -0.00010  -0.00010  -0.00010
 Ionic relaxation
   EDIFFG = -.5E-01   stopping-criterion for IOM
   NSW    =    100    number of steps for IOM
   NBLOCK =      1;   KBLOCK =    100    inner block; outer block 
   IBRION =      1    ionic relax: 0-MD 1-quasi-New 2-CG
   NFREE  =      0    steps in history (QN), initial steepest desc. (CG)
   ISIF   =      2    stress and relaxation
   IWAVPR =     11    prediction:  0-non 1-charg 2-wave 3-comb
   ISYM   =      0    0-nonsym 1-usesym 2-fastsym
   LCORR  =      T    Harris-Foulkes like correction to forces

   POTIM  = 0.5000    time-step for ionic-motion
   TEIN   =    0.0    initial temperature
   TEBEG  =    0.0;   TEEND  =   0.0 temperature during run
   SMASS  =  -3.00    Nose mass-parameter (am)
   estimated Nose-frequenzy (Omega)   =  0.10E-29 period in steps =****** mass=  -0.544E-26a.u.
   SCALEE = 1.0000    scale energy and forces
   NPACO  =    256;   APACO  = 16.0  distance and # of slots for P.C.
   PSTRESS=    0.0 pullay stress

  Mass of Ions in am
   POMASS =   7.01 47.88 16.00 19.00
  Ionic Valenz
   ZVAL   =   3.00 10.00  6.00  7.00
  Atomic Wigner-Seitz radii
   RWIGS  =  -1.00 -1.00 -1.00 -1.00
  virtual crystal weights 
   VCA    =   1.00  1.00  1.00  1.00
   NELECT =    1923.0000    total number of electrons
   NUPDOWN=       1.0000    fix difference up-down

 DOS related values:
   EMIN   =  10.00;   EMAX   =-10.00  energy-range for DOS
   EFERMI =   0.00
   ISMEAR =     0;   SIGMA  =   0.01  broadening in eV -4-tet -1-fermi 0-gaus

 Electronic relaxation 2 (details)
   IALGO  =     38    algorithm
   LDIAG  =      T    sub-space diagonalisation (order eigenvalues)
   LSUBROT=      F    optimize rotation matrix (better conditioning)
   TURBO    =      0    0=normal 1=particle mesh
   IRESTART =      0    0=no restart 2=restart with 2 vectors
   NREBOOT  =      0    no. of reboots
   NMIN     =      0    reboot dimension
   EREF     =   0.00    reference energy to select bands
   IMIX   =      4    mixing-type and parameters
     AMIX     =   0.40;   BMIX     =  1.00
     AMIX_MAG =   1.60;   BMIX_MAG =  1.00
     AMIN     =   0.10
     WC   =   100.;   INIMIX=   1;  MIXPRE=   1;  MAXMIX= -45

 Intra band minimization:
   WEIMIN = 0.0010     energy-eigenvalue tresh-hold
   EBREAK =  0.21E-09  absolut break condition
   DEPER  =   0.30     relativ break condition  

   TIME   =   0.40     timestep for ELM

  volume/ion in A,a.u.               =      14.28        96.39
  Fermi-wavevector in a.u.,A,eV,Ry     =   1.319690  2.493853 23.695660  1.741582
  Thomas-Fermi vector in A             =   2.449570
 
 Write flags
   LWAVE        =      T    write WAVECAR
   LDOWNSAMPLE  =      F    k-point downsampling of WAVECAR
   LCHARG       =      T    write CHGCAR
   LVTOT        =      F    write LOCPOT, total local potential
   LVHAR        =      F    write LOCPOT, Hartree potential only
   LELF         =      F    write electronic localiz. function (ELF)
   LORBIT       =     11    0 simple, 1 ext, 2 COOP (PROOUT), +10 PAW based schemes


 Dipole corrections
   LMONO  =      F    monopole corrections only (constant potential shift)
   LDIPOL =      F    correct potential (dipole corrections)
   IDIPOL =      0    1-x, 2-y, 3-z, 4-all directions 
   EPSILON=  1.0000000 bulk dielectric constant

 LDA+U is selected, type is set to LDAUTYPE =  2
   angular momentum for each species LDAUL =    -1    2   -1   -1
   U (eV)           for each species LDAUU =   0.0  4.2  0.0  0.0
   J (eV)           for each species LDAUJ =   0.0  0.0  0.0  0.0
 Exchange correlation treatment:
   GGA     =    PS    GGA type
   LEXCH   =    14    internal setting for exchange type
   VOSKOWN=      0    Vosko Wilk Nusair interpolation
   LHFCALC =     F    Hartree Fock is set to
   LHFONE  =     F    Hartree Fock one center treatment
   AEXX    =    0.0000 exact exchange contribution

 Linear response parameters
   LEPSILON=     F    determine dielectric tensor
   LRPA    =     F    only Hartree local field effects (RPA)
   LNABLA  =     F    use nabla operator in PAW spheres
   LVEL    =     F    velocity operator in full k-point grid
   LINTERFAST=   F  fast interpolation
   KINTER  =     0    interpolate to denser k-point grid
   CSHIFT  =0.1000    complex shift for real part using Kramers Kronig
   OMEGAMAX=  -1.0    maximum frequency
   DEG_THRESHOLD= 0.2000000E-02 threshold for treating states as degnerate
   RTIME   =   -0.100 relaxation time in fs
  (WPLASMAI=    0.000 imaginary part of plasma frequency in eV, 0.658/RTIME)
   DFIELD  = 0.0000000 0.0000000 0.0000000 field for delta impulse in time
 
 Orbital magnetization related:
   ORBITALMAG=     F  switch on orbital magnetization
   LCHIMAG   =     F  perturbation theory with respect to B field
   DQ        =  0.001000  dq finite difference perturbation B field
   LLRAUG    =     F  two centre corrections for induced B field



--------------------------------------------------------------------------------------------------------


 quasi-Newton-method for relaxation of ions
 charge density and potential will be updated during run
 spin polarized calculation
 Variant of blocked Davidson
 Davidson routine will perform the subspace rotation
 perform sub-space diagonalisation
    after iterative eigenvector-optimisation
 modified Broyden-mixing scheme, WC =      100.0
 initial mixing is a Kerker type mixing with AMIX =  0.4000 and BMIX =      1.0000
 Hartree-type preconditioning will be used
 using additional bands          202
 real space projection scheme for non local part
 use partial core corrections
 calculate Harris-corrections to forces 
   (improved forces if not selfconsistent)
 use gradient corrections 
 use of overlap-Matrix (Vanderbilt PP)
 Gauss-broadening in eV      SIGMA  =   0.01


--------------------------------------------------------------------------------------------------------


  energy-cutoff  :      500.00
  volume of cell :     3671.03
      direct lattice vectors                 reciprocal lattice vectors
    15.426331000  0.000000000  0.000000000     0.064824228  0.000000000  0.000000000
     0.000000000 15.426331000  0.000000000     0.000000000  0.064824228  0.000000000
     0.000000000  0.000000000 15.426331000     0.000000000  0.000000000  0.064824228

  length of vectors
    15.426331000 15.426331000 15.426331000     0.064824228  0.064824228  0.064824228


 
 old parameters found on file WAVECAR:
  energy-cutoff  :      500.00
  volume of cell :     3671.03
      direct lattice vectors                 reciprocal lattice vectors
    15.426331000  0.000000000  0.000000000     0.064824228  0.000000000  0.000000000
     0.000000000 15.426331000  0.000000000     0.000000000  0.064824228  0.000000000
     0.000000000  0.000000000 15.426331000     0.000000000  0.000000000  0.064824228

  length of vectors

 
 k-points in units of 2pi/SCALE and weight: Title                                   
   0.01620606  0.01620606  0.01620606       0.250
  -0.01620606  0.01620606  0.01620606       0.250
   0.01620606 -0.01620606  0.01620606       0.250
  -0.01620606 -0.01620606  0.01620606       0.250
 
 k-points in reciprocal lattice and weights: Title                                   
   0.25000000  0.25000000  0.25000000       0.250
  -0.25000000  0.25000000  0.25000000       0.250
   0.25000000 -0.25000000  0.25000000       0.250
  -0.25000000 -0.25000000  0.25000000       0.250
 
 position of ions in fractional coordinates (direct lattice) 
   0.34216531  0.38233075  0.60830137
   0.99587810  0.99492475  0.99487380
   0.99877902  0.99181772  0.49394460
   0.00590286  0.49587176  0.99671080
   0.99327699  0.50416636  0.50699762
   0.49486845  0.99343963  0.00120710
   0.50366052  0.00874679  0.49921869
   0.50389305  0.49492782  0.99697840
   0.49177550  0.49947711  0.49525615
   0.00675907  0.00370932  0.25626201
   0.00266528  0.00710186  0.75703823
   0.99318219  0.49319113  0.25063011
   0.99271151  0.49946927  0.74064382
   0.50566345  0.00960762  0.25236157
   0.49383962  0.00421505  0.75336465
   0.49172469  0.49524195  0.25708605
   0.50181270  0.50320891  0.75999503
   0.99593012  0.25796825  0.00063750
   0.99926368  0.24834028  0.49141141
   0.99807631  0.75793339  0.00599180
   0.99619593  0.75723786  0.50555954
   0.49562627  0.25838095  0.00183191
   0.50713498  0.24713671  0.49946140
   0.50721497  0.75584626  0.00016329
   0.50682672  0.75317292  0.50877527
   0.00057346  0.25881463  0.25495429
   0.00715562  0.24239555  0.74631429
   0.00617524  0.74808335  0.24300034
   0.99277075  0.75018880  0.74263902
   0.50730091  0.24160857  0.25305615
   0.50774508  0.24155465  0.75061781
   0.50591801  0.75108106  0.25205895
   0.50192486  0.74094323  0.74397762
   0.25694020  0.99739959  0.00583325
   0.25285451  0.99333316  0.50582483
   0.24373547  0.50851846  0.99762339
   0.25412367  0.49772354  0.50437103
   0.75702346  0.00001247  0.99469733
   0.74909555  0.00913187  0.49579063
   0.74123919  0.50048861  0.00448118
   0.75523418  0.49812999  0.50559206
   0.24506741  0.00249682  0.24372252
   0.25921268  0.99735672  0.74436834
   0.25398705  0.49184115  0.25069553
   0.24696255  0.50672978  0.74078383
   0.74443057  0.00159722  0.25673294
   0.74845311  0.00650586  0.75631886
   0.75458522  0.49740158  0.24218723
   0.75727485  0.49734569  0.74198260
   0.25758294  0.25288829  0.00488265
   0.25427536  0.25747044  0.50382830
   0.25213576  0.74109161  0.99481782
   0.25252355  0.75625739  0.49246001
   0.75757873  0.25193563  0.00705004
   0.74020736  0.24445895  0.49848888
   0.74133254  0.74825858  0.99449887
   0.74118161  0.75323463  0.49441801
   0.25062360  0.25912914  0.24293574
   0.24527658  0.25269920  0.74397174
   0.24337352  0.74711582  0.25621864
   0.24816373  0.74140859  0.75617838
   0.74237312  0.25065197  0.24236340
   0.74461126  0.24173161  0.74960149
   0.74501437  0.74932384  0.25731274
   0.75745034  0.74949513  0.75707253
   0.01253593  0.50309363  0.62396104
   0.99792243  0.00559231  0.37646993
   0.00340146  0.00166929  0.87287355
   0.49406533  0.48598985  0.37615555
   0.49040811  0.49007164  0.87541919
   0.99954483  0.74447839  0.12545294
   0.00304037  0.74501259  0.62381070
   0.50384565  0.74417807  0.62493872
   0.00191537  0.24837071  0.37636584
   0.25656315  0.99488206  0.12555849
   0.25899433  0.99471979  0.62499495
   0.24554116  0.47900914  0.62528677
   0.74574232  0.48778355  0.12535954
   0.74212648  0.48974118  0.62412357
   0.74917463  0.00308209  0.37605310
   0.74379485  0.00229590  0.87415672
   0.24836835  0.25973950  0.12480658
   0.26825562  0.26852566  0.62507990
   0.74780598  0.26348312  0.12592147
   0.25475353  0.73819655  0.37508038
   0.25294932  0.73983697  0.87461617
   0.75250928  0.74740693  0.37451211
   0.74960914  0.74706199  0.87577473
   0.12483555  0.50908402  0.98984768
   0.62533233  0.51130111  0.99476987
   0.12549573  0.00795494  0.25010296
   0.62460211  0.00786153  0.24832237
   0.62839793  0.27028252  0.49990505
   0.62411169  0.73623084  0.00214697
   0.62419496  0.76900261  0.49510124
   0.12707632  0.25295816  0.74028108
   0.12489667  0.74636233  0.25286735
   0.62572718  0.23857027  0.25570400
   0.62630419  0.25336174  0.74149794
   0.62203682  0.74817079  0.25228547
   0.37626250  0.99467517  0.99075425
   0.37420913  0.51455330  0.50935191
   0.87333233  0.99644399  0.99776650
   0.87498707  0.51354583  0.50447612
   0.37654808  0.99690152  0.76135118
   0.37294240  0.49136427  0.24505399
   0.87500077  0.49092605  0.24845152
   0.87539781  0.50870832  0.74053585
   0.37575183  0.25342732  0.99879656
   0.87497898  0.25360005  0.99962835
   0.87494066  0.74193240  0.74772886
   0.52231859  0.11841564  0.48941878
   0.99941063  0.12631939  0.74430407
   0.48992914  0.12541128  0.27074538
   0.50371121  0.12251065  0.75912826
   0.50083401  0.62413081  0.75727946
   0.00535940  0.37595714  0.00438555
   0.00683738  0.87472941  0.00227614
   0.98358796  0.87510001  0.49942423
   0.50705336  0.37426936  0.01428341
   0.50860433  0.87453160  0.01189208
   0.01307571  0.37432958  0.24618004
   0.26011242  0.62497265  0.01266855
   0.73153024  0.12454982  0.50753287
   0.24722718  0.62389174  0.73604993
   0.75105896  0.12429881  0.74101437
   0.26926060  0.37458169  0.49017968
   0.26380150  0.87589037  0.49143375
   0.23697858  0.37509000  0.26326681
   0.99848944  0.00369673  0.12668173
   0.00172715  0.99830185  0.62372341
   0.00440962  0.51019938  0.12469715
   0.49030503  0.01510597  0.12731096
   0.49370020  0.00197673  0.62507689
   0.50428407  0.51393707  0.12791509
   0.51110974  0.50697351  0.62481587
   0.99940686  0.49516759  0.37610800
   0.99147782  0.49641960  0.87197891
   0.50558226  0.97930552  0.37603271
   0.51838204  0.98941720  0.87629331
   0.00335833  0.24509964  0.12673975
   0.99398228  0.25819341  0.62144551
   0.50132720  0.23143565  0.12705239
   0.48449667  0.23672056  0.62787159
   0.49588449  0.73693329  0.12721471
   0.00383483  0.25183062  0.87325187
   0.99275389  0.75100210  0.37513582
   0.00007602  0.75192229  0.87366104
   0.49573914  0.27498560  0.37183494
   0.50744118  0.26215497  0.87518927
   0.49051000  0.76073140  0.37548703
   0.49697601  0.75807166  0.87480626
   0.23893254  0.48496258  0.12383360
   0.75151697  0.99861349  0.12651479
   0.75148272  0.99112274  0.62375755
   0.24984474  0.01147107  0.37647491
   0.24083135  0.00488794  0.87403030
   0.25179750  0.51809550  0.37459403
   0.26396740  0.51093013  0.87237767
   0.74939740  0.50891741  0.37523527
   0.75711505  0.50931221  0.87398542
   0.24939765  0.76257412  0.12487562
   0.24763921  0.75994299  0.62470696
   0.76008498  0.26311111  0.62365996
   0.75082729  0.75137917  0.12595426
   0.74602986  0.75151778  0.62462342
   0.24624527  0.23944105  0.37511478
   0.24619333  0.24207319  0.87391601
   0.75896951  0.23963738  0.37354096
   0.74716408  0.24051580  0.87566545
   0.12654597  0.00587537  0.00460024
   0.12578350  0.98853931  0.50092261
   0.12471398  0.48838805  0.49003765
   0.62489247  0.00707567  0.01103102
   0.62553669  0.97339612  0.50557983
   0.62416702  0.48310364  0.49470196
   0.12794131  0.99984364  0.74374640
   0.12381616  0.51280070  0.25296690
   0.12455599  0.49311844  0.76344652
   0.62437443  0.99334953  0.73840493
   0.62400648  0.50488674  0.25439166
   0.62690128  0.49051001  0.76060632
   0.12554429  0.24625310  0.99802494
   0.12513486  0.26341969  0.50639890
   0.12497851  0.73900957  0.99891789
   0.12404133  0.76337998  0.49421659
   0.62628850  0.24430167  0.99973722
   0.12477423  0.23200373  0.25078404
   0.12383726  0.75383812  0.75241090
   0.62615507  0.75395274  0.75256113
   0.37770399  0.01868098  0.49277359
   0.37271246  0.49054437  0.01095963
   0.87526727  0.02052036  0.50583307
   0.87467326  0.49306901  0.00312623
   0.37648780  0.99189036  0.25880532
   0.37547765  0.49490342  0.73434635
   0.87417515  0.99385544  0.24869875
   0.87521093  0.99472047  0.74681573
   0.37660443  0.22953067  0.49006245
   0.37575941  0.76209895  0.00264227
   0.37645657  0.73264847  0.50418250
   0.87661184  0.23425020  0.49994675
   0.87188194  0.76044470  0.00010713
   0.87230639  0.73183086  0.50456127
   0.37684858  0.26258768  0.24917588
   0.37671968  0.25024021  0.76129546
   0.37570551  0.75313150  0.24617207
   0.37480135  0.75368963  0.74687192
   0.87495357  0.26291496  0.24885104
   0.87602973  0.25249632  0.75288311
   0.87319183  0.75305276  0.24797022
   0.99971600  0.12709556  0.99990226
   0.01567015  0.12632791  0.50832527
   0.98848390  0.62532474  0.99267648
   0.01442089  0.62664393  0.49117118
   0.49976141  0.12429956  0.98965701
   0.48461733  0.62672798  0.99376812
   0.51564309  0.62611515  0.48892076
   0.98627112  0.12812171  0.24757990
   0.99213155  0.62323038  0.25826602
   0.01209632  0.62423643  0.75670229
   0.49433449  0.62535355  0.26344306
   0.98797534  0.37452052  0.49897190
   0.47170229  0.37554388  0.52235885
   0.47882234  0.87545989  0.50668489
   0.99632431  0.37486427  0.74935866
   0.00107946  0.87603438  0.25035412
   0.99982398  0.87534877  0.74646982
   0.50949169  0.37245910  0.23185988
   0.49437007  0.37323503  0.73611682
   0.50112727  0.87560860  0.23745082
   0.50159085  0.87376785  0.74749626
   0.25198184  0.12513545  0.00308713
   0.23701622  0.12685279  0.50909775
   0.23418615  0.62620413  0.51351238
   0.75050586  0.12617824  0.00815445
   0.76574029  0.62495776  0.00832222
   0.73238721  0.62514360  0.50502731
   0.26419111  0.12740843  0.24523710
   0.25264521  0.12569877  0.74355565
   0.25518118  0.62358839  0.23317392
   0.76566629  0.12640154  0.24244586
   0.75291776  0.62425451  0.24289250
   0.73765558  0.62386824  0.74349031
   0.24441432  0.37678169  0.98565881
   0.24031022  0.87327464  0.99254849
   0.74229546  0.37511986  0.98310943
   0.76987085  0.37341485  0.48741856
   0.73809011  0.87441369  0.00335751
   0.77060232  0.87556819  0.49923271
   0.25654887  0.37667699  0.76673518
   0.24827583  0.87568425  0.26112185
   0.24729895  0.87297631  0.75653149
   0.73972810  0.37405131  0.26849279
   0.75713409  0.37362894  0.76180616
   0.74702504  0.87515573  0.24819329
   0.75237739  0.87428189  0.74913352
 
 position of ions in cartesian coordinates  (Angst):
   5.27835531  5.89796067  9.38385831
  15.36274525 15.34803848 15.34725260
  15.40749573 15.30010837  7.61975295
   0.09105943  7.64948189 15.37559071
  15.32261967  7.77743716  7.82111304
   7.63400450 15.32512858  0.01862106
   7.76963385  0.13493081  7.70111273
   7.77322090  7.63492040 15.37971886
   7.58629167  7.70509921  7.63998523
   0.10426762  0.05722119  3.95318255
   0.04111557  0.10955569 11.67832236
  15.32115728  7.60812964  3.86630298
  15.31389627  7.70497834 11.42541672
   7.80053172  0.14821036  3.89301314
   7.61813338  0.06502275 11.62165250
   7.58550780  7.63976626  3.96589444
   7.74112874  7.76266723 11.72393496
  15.36354761  3.97950363  0.00983432
  15.41497234  3.83097933  7.58067502
  15.39665548 11.69213142  0.09243147
  15.36764818 11.68140191  7.79892880
   7.64569483  3.98587003  0.02825961
   7.82323209  3.81241275  7.70485685
   7.82446603 11.65993465  0.00251896
   7.81847675 11.61869481  7.84853579
   0.00884632  3.99256019  3.93300928
   0.11038498  3.73927403 11.51289121
   0.09526129 11.54018133  3.74860371
  15.31481012 11.57266075 11.45619528
   7.82579175  3.72713373  3.90372786
   7.83264374  3.72630196 11.57927881
   7.80445870 11.58642502  3.88834485
   7.74285909 11.43003551 11.47684499
   3.96364461 15.38621622  0.08998565
   3.90061735 15.32348613  7.80302123
   3.75994409  7.84457411 15.38966860
   3.92019579  7.67804809  7.78059445
  11.67809448  0.00019230 15.34453022
  11.55579585  0.14087122  7.64823035
  11.43460105  7.72070299  0.06912811
  11.65049246  7.68431812  7.79943041
   3.78049103  0.03851677  3.75974426
   3.99870067 15.38555495 11.48287236
   3.91808831  7.58730431  3.86731225
   3.80972610  7.81698134 11.42757655
  11.48383242  0.02463929  3.96044733
  11.54588544  0.10036154 11.66722501
  11.64048133  7.67308136  3.73606031
  11.68197247  7.67221922 11.44606912
   3.97355965  3.90113843  0.07532142
   3.92253588  3.97182417  7.77222216
   3.88952973 11.43232451 15.34638895
   3.89551184 11.66627686  7.59685119
  11.68666022  3.88644236  0.10875619
  11.41868373  3.77110472  7.68985449
  11.43604122 11.54288453 15.34146868
  11.43371281 11.61964673  7.62705587
   3.86620261  3.99741195  3.74760717
   3.78371769  3.89822145 11.47675433
   3.75436043 11.52525588  3.95251357
   3.82825577 11.43721436 11.66505794
  11.45209350  3.86664020  3.73877809
  11.48661974  3.72903184 11.56360065
  11.49283822 11.55931754  3.96939152
  11.68467967 11.56195999 11.67885138
   0.19338334  7.76088893  9.62542955
  15.39428173  0.08626877  5.80754975
   0.05247211  0.02575095 13.46523625
   7.62161534  7.49704036  5.80270001
   7.56519781  7.56000730 13.50450615
  15.41930942 11.48457013  1.93527860
   0.04690181 11.49281088  9.62311027
   7.77248979 11.47993716  9.64051158
   0.02954721  3.83144883  5.80594409
   3.95782804 15.34737990  1.93690682
   3.99533234 15.34487673  9.64137898
   3.78779920  7.38935358  9.64588064
  11.50406780  7.52471045  1.93383782
  11.44828875  7.55490956  9.62793675
  11.55701578  0.04754539  5.80111960
  11.47402548  0.03541731 13.48503093
   3.83141234  4.00682745  1.92530762
   4.13819996  4.14236565  9.64268948
  11.53590257  4.06457782  1.94250631
   3.92991220 11.38766439  5.78611405
   3.90207991 11.41296996 13.49211858
  11.60845723 11.52974673  5.77734780
  11.56371879 11.52442557 13.50999092
   1.92575449  7.85329857 15.26971801
   9.64658356  7.88750011 15.34564923
   1.93593865  0.12271550  3.85817108
   9.63531895  0.12127455  3.83070315
   9.69387448  4.16946760  7.71170080
   9.62775348 11.35734059  0.03311993
   9.62903801 11.86288878  7.63759563
   1.96032135  3.90221626 11.41982094
   1.92669734 11.51363240  3.90081549
   9.65267461  3.68026389  3.94457459
   9.66157575  3.90844211 11.43859262
   9.59574580 11.54153028  3.89183910
   5.80434992 15.34418835 15.28370293
   5.77267388  7.93766948  7.85743121
  13.47231366 15.37147476 15.39187627
  13.49784023  7.92212798  7.78221556
   5.80875529 15.37853289 11.74485527
   5.75313297  7.57994785  3.78028402
  13.49805145  7.57318781  3.83269538
  13.50417633  7.84750299 11.42375109
   5.79647209  3.90945377 15.40776633
  13.49771531  3.91211833 15.42059775
  13.49712418 11.44529477 11.53471294
   8.05745949  1.82671891  7.54993611
  15.41723923  1.94864479 11.48188092
   7.55780903  1.93463589  4.17660777
   7.77041591  1.88988977 11.71056388
   7.72603126  9.62804843 11.68204355
   0.08267589  5.79963927  0.06765290
   0.10547562 13.49386535  0.03511252
  15.17315341 13.49958236  7.70428348
   7.82197300  5.77360297  0.22034066
   7.84589870 13.49081392  0.18345113
   0.20171029  5.77453198  3.79765473
   4.01258024  9.64103491  0.19542921
  11.28482767  1.92134672  7.82936998
   3.81380830  9.62436052 11.35454982
  11.58608406  1.91747461 11.43113289
   4.15370320  5.77842116  7.56167406
   4.06948923 13.51177483  7.58101975
   3.65571005  5.78626248  4.06124095
  15.40302855  0.05702704  1.95423435
   0.02664366 15.40013472  9.62176377
   0.06802421  7.87050445  1.92361949
   7.56360763  0.23302975  1.96394100
   7.61598267  0.03049374  9.64264298
   7.77925296  7.92816340  1.97326059
   7.88454807  7.82074110  9.63861644
  15.41718101  7.63861909  5.80196651
  15.29486509  7.65793299 13.45143524
   7.79927929 15.10709110  5.80080512
   7.99673287 15.26307726 13.51799065
   0.05180676  3.78098818  1.95512928
  15.33349967  3.98297706  9.58662409
   7.73363928  3.57020289  1.95995220
   7.47400606  3.65172969  9.68575490
   7.64967831 11.36817688  1.96245630
   0.05915741  3.88482249 13.47107234
  15.31455017 11.58520690  5.78696927
   0.00117267 11.59940209 13.47738436
   7.64743607  4.24201884  5.73604880
   7.82795554  4.04408941 13.50095937
   7.56676967 11.73529444  5.79238716
   7.66651645 11.69426429 13.49505096
   3.68585240  7.48119322  1.91029817
  11.59314960 15.40494228  1.95165896
  11.59262118 15.28938752  9.62229039
   3.85418759  0.17695657  5.80762661
   3.71514408  0.07540292 13.48308064
   3.88431159  7.99231264  5.77861144
   4.07204852  7.88177735 13.45758667
  11.56045235  7.85072836  5.78850349
  11.67950741  7.85681876 13.48238837
   3.84729068 11.76372079  1.92637258
   3.82016449 11.72313214  9.63693630
  11.72532246  4.05883903  9.62078504
  11.58251032 11.59102381  1.94301204
  11.50850361 11.59316207  9.63564762
   3.79866110  3.69369689  5.78664470
   3.79785975  3.73430114 13.48131763
  11.70811486  3.69672552  5.76236655
  11.52600040  3.71027629 13.50830504
   1.95214007  0.09063542  0.07096481
   1.94037786 15.24953455  7.72739802
   1.92387913  7.53403564  7.55948300
   9.63979807  0.10915163  0.17016816
   9.64973608 15.01593077  7.79924182
   9.62860708  7.45251659  7.63143617
   1.97366505 15.42391890 11.47327815
   1.91002900  7.91063331  3.90235108
   1.92144188  7.60700822 11.77717865
   9.63180660 15.32373860 11.39087881
   9.62613048  7.78854999  3.92432996
   9.67078659  7.56676974 11.73336483
   1.93668779  3.79878177 15.39586300
   1.93037171  4.06359929  7.81187699
   1.92795986 11.40020631 15.40963806
   1.91350263 11.77615226  7.62394875
   9.66133363  3.76867839 15.42227727
   1.92480864  3.57896633  3.86867758
   1.91035452 11.62895635 11.60693962
   9.65927535 11.63072455 11.60925702
   5.82658678  0.28817891  7.60168853
   5.74958575  7.56729989  0.16906687
  13.50216255  0.31655393  7.80314842
  13.49299924  7.60624580  0.04822633
   5.80782546 15.30122908  3.99241660
   5.79224245  7.63454397 11.32826993
  13.48531529 15.33154297  3.83650919
  13.50129347 15.34488728 11.52062669
   5.80962463  3.54081602  7.55986555
   5.79658909 11.75639073  0.04076060
   5.80734371 11.30207778  7.77768614
  13.52290433  3.61362118  7.71234407
  13.44993943 11.73087171  0.00165265
  13.45648716 11.28946506  7.78352916
   5.81339090  4.05076441  3.84386955
   5.81140250  3.86028837 11.74399581
   5.79575762 11.61805588  3.79753190
   5.78180975 11.62666567 11.52149348
  13.49732334  4.05581316  3.83885848
  13.51392451  3.89509188 11.61422403
  13.47014621 11.61684111  3.82527069
  15.42194997  1.96061824 15.42482330
   0.24173287  1.94877608  7.84159386
  15.24867983  9.64646643 15.31335595
   0.22246143  9.66681662  7.57696920
   7.70948492  1.91748609 15.26677669
   7.47586738  9.66811319 15.33019592
   7.95448106  9.65865951  7.54225350
  15.21454470  1.97644789  3.81924947
  15.30494963  9.61415807  3.98409718
   0.18660179  9.62967782 11.67313996
   7.62576754  9.64691091  4.06395991
  15.24083465  5.77747757  7.69730567
   7.27663570  5.79326417  8.05808059
   7.38647188 13.50513401  7.81628875
  15.36962861  5.78278023 11.55985475
   0.01665214 13.51399627  3.86204545
  15.42361571 13.50341983 11.51529054
   7.85958747  5.74567739  3.57674728
   7.62631628  5.75764711 11.35558173
   7.73055509 13.50742806  3.66299497
   7.73770645 13.47903200 11.53112469
   3.88715521  1.93038089  0.04762314
   3.65629066  1.95687314  7.85351047
   3.61263303  9.66003219  7.92161194
  11.57755182  1.94646728  0.12579321
  11.81256317  9.64080526  0.12838131
  11.29804758  9.64367209  7.79071837
   4.07549954  1.96544467  3.78310872
   3.89738866  1.93907089 11.47033557
   3.93650936  9.61968088  3.59701804
  11.81142162  1.94991206  3.74005016
  11.61475851  9.62995663  3.74694015
  11.37931918  9.62399800 11.46932766
   3.77041622  5.81235912 15.20509906
   3.70710505 13.47142363 15.31138152
  11.45089551  5.78672317 15.16577143
  11.87628258  5.76042110  7.51907998
  11.38602234 13.48899499  0.05179405
  11.88756642 13.50680474  7.70132908
   3.95760775  5.81074387 11.82791063
   3.82998511 13.50859510  4.02815203
   3.81491548 13.46682146 11.67050520
  11.41129059  5.77023929  4.14185868
  11.67980108  5.76372368 11.75187403
  11.52385558 13.50044195  3.82871180
  11.60642264 13.48696182 11.55638169
 


--------------------------------------------------------------------------------------------------------


 k-point  1 :   0.2500 0.2500 0.2500  plane waves:   93161
 k-point  2 :  -0.2500 0.2500 0.2500  plane waves:   93161
 k-point  3 :   0.2500-0.2500 0.2500  plane waves:   93161
 k-point  4 :  -0.2500-0.2500 0.2500  plane waves:   93161

 maximum and minimum number of plane-waves per node :     11686    11606

 maximum number of plane-waves:     93161
 maximum index in each direction: 
   IXMAX=   28   IYMAX=   28   IZMAX=   27
   IXMIN=  -28   IYMIN=  -28   IZMIN=  -28


 real space projection operators:
  total allocation   :     105608.51 KBytes
  max/ min on nodes  :      13250.94      13154.66


 parallel 3D FFT for wavefunctions:
    minimum data exchange during FFTs selected (reduces bandwidth)
 parallel 3D FFT for charge:
    minimum data exchange during FFTs selected (reduces bandwidth)


 total amount of memory used by VASP MPI-rank0   291516. kBytes
=======================================================================

   base      :      30000. kBytes
   nonlr-proj:      49481. kBytes
   fftplans  :      27976. kBytes
   grid      :      34041. kBytes
   one-center:       1026. kBytes
   wavefun   :     148992. kBytes
 
     INWAV:  cpu time   52.4311: real time   52.7022
 Broyden mixing: mesh for mixing (old mesh)
   NGX = 57   NGY = 57   NGZ = 57
  (NGX  =240   NGY  =240   NGZ  =240)
  gives a total of 185193 points

 charge density for first step will be calculated from the start-wavefunctions


--------------------------------------------------------------------------------------------------------


 Maximum index for non-local projection operator          967
 Maximum index for augmentation-charges         3294 (set IRDMAX)


--------------------------------------------------------------------------------------------------------


 initial charge from wavefunction
 First call to EWALD:  gamma=   0.115
 Maximum number of real-space cells 3x 3x 3
 Maximum number of reciprocal cells 3x 3x 3

    FEWALD:  cpu time    0.0200: real time    0.0200


--------------------------------------- Iteration      1(   1)  ---------------------------------------


    POTLOK:  cpu time    0.2754: real time    0.2949
    SETDIJ:  cpu time    1.3821: real time    1.3979
     EDDAV:  cpu time  131.9267: real time  132.5176
       DOS:  cpu time    0.0028: real time    0.0028
    CHARGE:  cpu time    5.2603: real time    5.2637
    MIXING:  cpu time    0.0084: real time    0.0085
    --------------------------------------------
      LOOP:  cpu time  138.8557: real time  139.4855

 eigenvalue-minimisations  : 22968
 total energy-change (2. order) :-0.1859777E+04  (-0.3650770E+03)
 number of electron    1923.0000025 magnetization       1.0000000
 augmentation part      505.2815405 magnetization       0.5709517

 Broyden mixing:
  rms(total) = 0.86758E+01    rms(broyden)= 0.86725E+01
  rms(prec ) = 0.13436E+02
  weight for this iteration     100.00

 Free energy of the ion-electron system (eV)
  ---------------------------------------------------
  alpha Z        PSCENC =      6118.73324990
  Ewald energy   TEWEN  =   -103802.60691569
  -Hartree energ DENC   =    -64832.32857110
  -exchange      EXHF   =         0.00000000
  -V(xc)+E(xc)   XCENC  =      8955.45965415
  PAW double counting   =    196981.52551057  -197974.77856823
  entropy T*S    EENTRO =        -0.00237651
  eigenvalues    EBANDS =    -25883.03172727
  atomic energy  EATOM  =    178577.25249613
  Solvation  Ediel_sol  =         0.00000000
  ---------------------------------------------------
  free energy    TOTEN  =     -1859.77724804 eV

  energy without entropy =    -1859.77487153  energy(sigma->0) =    -1859.77605979


--------------------------------------------------------------------------------------------------------




--------------------------------------- Iteration      1(   2)  ---------------------------------------


    POTLOK:  cpu time    0.2615: real time    0.2639
    SETDIJ:  cpu time    1.4115: real time    1.4711
     EDDAV:  cpu time  150.1693: real time  150.7669
       DOS:  cpu time    0.0029: real time    0.0029
    CHARGE:  cpu time    5.3347: real time    5.3387
    MIXING:  cpu time    0.0221: real time    0.0224
    --------------------------------------------
      LOOP:  cpu time  157.2021: real time  157.8659

 eigenvalue-minimisations  : 27180
 total energy-change (2. order) :-0.5634857E+02  (-0.4040351E+03)
 number of electron    1923.0000025 magnetization       1.0000000
 augmentation part      508.8627781 magnetization       0.7711588

 Broyden mixing:
  rms(total) = 0.11498E+02    rms(broyden)= 0.11494E+02
  rms(prec ) = 0.17449E+02
  weight for this iteration     100.00

 eigenvalues of (default mixing * dielectric matrix)
  average eigenvalue GAMMA=   0.3918
  0.3918

 Free energy of the ion-electron system (eV)
  ---------------------------------------------------
  alpha Z        PSCENC =      6118.73324990
  Ewald energy   TEWEN  =   -103802.60691569
  -Hartree energ DENC   =    -64951.89167308
  -exchange      EXHF   =         0.00000000
  -V(xc)+E(xc)   XCENC  =      8954.50011295
  PAW double counting   =    198604.03917356  -199567.10710725
  entropy T*S    EENTRO =        -0.00414358
  eigenvalues    EBANDS =    -25849.04101241
  atomic energy  EATOM  =    178577.25249613
  Solvation  Ediel_sol  =         0.00000000
  ---------------------------------------------------
  free energy    TOTEN  =     -1916.12581948 eV

  energy without entropy =    -1916.12167590  energy(sigma->0) =    -1916.12374769


--------------------------------------------------------------------------------------------------------




--------------------------------------- Iteration      1(   3)  ---------------------------------------


    POTLOK:  cpu time    0.3173: real time    0.3201
    SETDIJ:  cpu time    1.4286: real time    1.4290
     EDDAV:  cpu time  151.2682: real time  152.0598
       DOS:  cpu time    0.0017: real time    0.0017
    CHARGE:  cpu time    5.3419: real time    5.3506
    MIXING:  cpu time    0.0362: real time    0.0362
    --------------------------------------------
      LOOP:  cpu time  158.3938: real time  159.1972

 eigenvalue-minimisations  : 27300
 total energy-change (2. order) : 0.4509347E+02  (-0.1420933E+03)
 number of electron    1923.0000024 magnetization       1.0000000
 augmentation part      491.4080201 magnetization       0.5875797

 Broyden mixing:
  rms(total) = 0.60210E+01    rms(broyden)= 0.60187E+01
  rms(prec ) = 0.69071E+01
  weight for this iteration     100.00

 eigenvalues of (default mixing * dielectric matrix)
  average eigenvalue GAMMA=   0.4429
  0.4429  0.4429

 Free energy of the ion-electron system (eV)
  ---------------------------------------------------
  alpha Z        PSCENC =      6118.73324990
  Ewald energy   TEWEN  =   -103802.60691569
  -Hartree energ DENC   =    -65034.70943673
  -exchange      EXHF   =         0.00000000
  -V(xc)+E(xc)   XCENC  =      8956.43450663
  PAW double counting   =    198950.21501583  -199903.90277393
  entropy T*S    EENTRO =        -0.00000000
  eigenvalues    EBANDS =    -25732.44849488
  atomic energy  EATOM  =    178577.25249613
  Solvation  Ediel_sol  =         0.00000000
  ---------------------------------------------------
  free energy    TOTEN  =     -1871.03235275 eV

  energy without entropy =    -1871.03235275  energy(sigma->0) =    -1871.03235275


--------------------------------------------------------------------------------------------------------




--------------------------------------- Iteration      1(   4)  ---------------------------------------


    POTLOK:  cpu time    0.3924: real time    0.3983
    SETDIJ:  cpu time    1.4448: real time    1.4647
     EDDAV:  cpu time  144.1869: real time  144.9741
       DOS:  cpu time    0.0018: real time    0.0018
    CHARGE:  cpu time    5.2715: real time    5.2752
    MIXING:  cpu time    0.0077: real time    0.0080
    --------------------------------------------
      LOOP:  cpu time  151.3052: real time  152.1222

 eigenvalue-minimisations  : 25740
 total energy-change (2. order) : 0.5136038E+02  (-0.3354398E+02)
 number of electron    1923.0000024 magnetization       1.0000000
 augmentation part      493.2231792 magnetization       0.6008907

 Broyden mixing:
  rms(total) = 0.44929E+01    rms(broyden)= 0.44922E+01
  rms(prec ) = 0.52268E+01
  weight for this iteration     100.00

 eigenvalues of (default mixing * dielectric matrix)
  average eigenvalue GAMMA=   0.5759
  0.6489  0.6489  0.4301

 Free energy of the ion-electron system (eV)
  ---------------------------------------------------
  alpha Z        PSCENC =      6118.73324990
  Ewald energy   TEWEN  =   -103802.60691569
  -Hartree energ DENC   =    -64984.43691943
  -exchange      EXHF   =         0.00000000
  -V(xc)+E(xc)   XCENC  =      8962.81783274
  PAW double counting   =    199145.85650052  -200118.13271020
  entropy T*S    EENTRO =        -0.00000000
  eigenvalues    EBANDS =    -25719.15550982
  atomic energy  EATOM  =    178577.25249613
  Solvation  Ediel_sol  =         0.00000000
  ---------------------------------------------------
  free energy    TOTEN  =     -1819.67197586 eV

  energy without entropy =    -1819.67197586  energy(sigma->0) =    -1819.67197586


--------------------------------------------------------------------------------------------------------




--------------------------------------- Iteration      1(   5)  ---------------------------------------


    POTLOK:  cpu time    0.2609: real time    0.2632
    SETDIJ:  cpu time    1.3887: real time    1.3896
     EDDAV:  cpu time  150.7283: real time  151.4205
       DOS:  cpu time    0.0018: real time    0.0018
    CHARGE:  cpu time    5.2877: real time    5.2900
    MIXING:  cpu time    0.0077: real time    0.0077
    --------------------------------------------
      LOOP:  cpu time  157.6751: real time  158.3727

 eigenvalue-minimisations  : 27072
 total energy-change (2. order) : 0.4213454E+02  (-0.1066206E+02)
 number of electron    1923.0000024 magnetization       1.0000000
 augmentation part      493.6093709 magnetization       0.6021352

 Broyden mixing:
  rms(total) = 0.25151E+01    rms(broyden)= 0.25148E+01
  rms(prec ) = 0.29464E+01
  weight for this iteration     100.00

 eigenvalues of (default mixing * dielectric matrix)
  average eigenvalue GAMMA=   0.6891
  0.8892  0.8892  0.4889  0.4889

 Free energy of the ion-electron system (eV)
  ---------------------------------------------------
  alpha Z        PSCENC =      6118.73324990
  Ewald energy   TEWEN  =   -103802.60691569
  -Hartree energ DENC   =    -65001.88565976
  -exchange      EXHF   =         0.00000000
  -V(xc)+E(xc)   XCENC  =      8969.42552763
  PAW double counting   =    198627.44444890  -199616.43760943
  entropy T*S    EENTRO =        -0.00000000
  eigenvalues    EBANDS =    -25649.46297556
  atomic energy  EATOM  =    178577.25249613
  Solvation  Ediel_sol  =         0.00000000
  ---------------------------------------------------
  free energy    TOTEN  =     -1777.53743788 eV

  energy without entropy =    -1777.53743788  energy(sigma->0) =    -1777.53743788


--------------------------------------------------------------------------------------------------------




--------------------------------------- Iteration      1(   6)  ---------------------------------------


    POTLOK:  cpu time    0.2602: real time    0.2629
    SETDIJ:  cpu time    1.3960: real time    1.3963
     EDDAV:  cpu time  151.3067: real time  152.0602
       DOS:  cpu time    0.0018: real time    0.0018
    CHARGE:  cpu time    5.2727: real time    5.2757
    MIXING:  cpu time    0.0083: real time    0.0083
    --------------------------------------------
      LOOP:  cpu time  158.2456: real time  159.0052

 eigenvalue-minimisations  : 27252
 total energy-change (2. order) : 0.1575810E+02  (-0.6991835E+01)
 number of electron    1923.0000024 magnetization       1.0000000
 augmentation part      495.0810111 magnetization       0.5859877

 Broyden mixing:
  rms(total) = 0.15503E+01    rms(broyden)= 0.15499E+01
  rms(prec ) = 0.16837E+01
  weight for this iteration     100.00

 eigenvalues of (default mixing * dielectric matrix)
  average eigenvalue GAMMA=   0.7043
  0.9621  0.9621  0.4304  0.5835  0.5835

 Free energy of the ion-electron system (eV)
  ---------------------------------------------------
  alpha Z        PSCENC =      6118.73324990
  Ewald energy   TEWEN  =   -103802.60691569
  -Hartree energ DENC   =    -64928.97051836
  -exchange      EXHF   =         0.00000000
  -V(xc)+E(xc)   XCENC  =      8969.39320017
  PAW double counting   =    198164.92326194  -199164.27409206
  entropy T*S    EENTRO =        -0.00000000
  eigenvalues    EBANDS =    -25696.23001525
  atomic energy  EATOM  =    178577.25249613
  Solvation  Ediel_sol  =         0.00000000
  ---------------------------------------------------
  free energy    TOTEN  =     -1761.77933322 eV

  energy without entropy =    -1761.77933322  energy(sigma->0) =    -1761.77933322


--------------------------------------------------------------------------------------------------------




--------------------------------------- Iteration      1(   7)  ---------------------------------------


    POTLOK:  cpu time    0.2600: real time    0.2621
    SETDIJ:  cpu time    1.4190: real time    1.4199
     EDDAV:  cpu time  149.6129: real time  150.4086
       DOS:  cpu time    0.0018: real time    0.0018
    CHARGE:  cpu time    5.2624: real time    5.2664
    MIXING:  cpu time    0.0093: real time    0.0092
    --------------------------------------------
      LOOP:  cpu time  156.5653: real time  157.3682

 eigenvalue-minimisations  : 26592
 total energy-change (2. order) : 0.1481501E+01  (-0.9960527E+00)
 number of electron    1923.0000024 magnetization       1.0000000
 augmentation part      495.8709615 magnetization       0.5926296

 Broyden mixing:
  rms(total) = 0.11107E+01    rms(broyden)= 0.11103E+01
  rms(prec ) = 0.12082E+01
  weight for this iteration     100.00

 eigenvalues of (default mixing * dielectric matrix)
  average eigenvalue GAMMA=   0.8812
  1.4103  1.4103  0.7239  0.7239  0.4751  0.5437

 Free energy of the ion-electron system (eV)
  ---------------------------------------------------
  alpha Z        PSCENC =      6118.73324990
  Ewald energy   TEWEN  =   -103802.60691569
  -Hartree energ DENC   =    -64893.71044927
  -exchange      EXHF   =         0.00000000
  -V(xc)+E(xc)   XCENC  =      8968.02622125
  PAW double counting   =    197907.51689365  -198907.97942056
  entropy T*S    EENTRO =        -0.00000000
  eigenvalues    EBANDS =    -25727.52990717
  atomic energy  EATOM  =    178577.25249613
  Solvation  Ediel_sol  =         0.00000000
  ---------------------------------------------------
  free energy    TOTEN  =     -1760.29783177 eV

  energy without entropy =    -1760.29783177  energy(sigma->0) =    -1760.29783177


--------------------------------------------------------------------------------------------------------




--------------------------------------- Iteration      1(   8)  ---------------------------------------


    POTLOK:  cpu time    0.2608: real time    0.2630
    SETDIJ:  cpu time    1.3807: real time    1.3812
     EDDAV:  cpu time  142.3734: real time  143.3135
       DOS:  cpu time    0.0020: real time    0.0020
    CHARGE:  cpu time    5.2889: real time    5.2922
    MIXING:  cpu time    0.0247: real time    0.0247
    --------------------------------------------
      LOOP:  cpu time  149.3305: real time  150.2766

 eigenvalue-minimisations  : 25296
 total energy-change (2. order) : 0.1729882E+00  (-0.1139089E+01)
[...]
   81        1.573   3.459   0.000   5.032
   82        1.574   3.461   0.000   5.035
   83        1.567   3.468   0.000   5.034
   84        1.576   3.469   0.000   5.044
   85        1.575   3.458   0.000   5.034
   86        1.574   3.461   0.000   5.035
   87        1.576   3.462   0.000   5.037
   88        1.575   3.465   0.000   5.039
   89        1.575   3.458   0.000   5.033
   90        1.575   3.453   0.000   5.029
   91        1.574   3.458   0.000   5.032
   92        1.574   3.458   0.000   5.032
   93        1.577   3.471   0.000   5.048
   94        1.577   3.469   0.000   5.045
   95        1.576   3.466   0.000   5.042
   96        1.574   3.461   0.000   5.035
   97        1.575   3.465   0.000   5.040
   98        1.576   3.472   0.000   5.048
   99        1.574   3.461   0.000   5.036
  100        1.576   3.457   0.000   5.032
  101        1.574   3.455   0.000   5.029
  102        1.573   3.457   0.000   5.030
  103        1.575   3.457   0.000   5.032
  104        1.574   3.456   0.000   5.030
  105        1.577   3.470   0.000   5.047
  106        1.575   3.459   0.000   5.034
  107        1.574   3.459   0.000   5.033
  108        1.576   3.472   0.000   5.048
  109        1.575   3.461   0.000   5.036
  110        1.575   3.460   0.000   5.035
  111        1.576   3.472   0.000   5.048
  112        1.579   3.443   0.000   5.023
  113        1.576   3.472   0.000   5.048
  114        1.577   3.466   0.000   5.042
  115        1.575   3.464   0.000   5.038
  116        1.574   3.462   0.000   5.036
  117        1.575   3.460   0.000   5.035
  118        1.576   3.461   0.000   5.036
  119        1.576   3.469   0.000   5.046
  120        1.575   3.455   0.000   5.031
  121        1.574   3.457   0.000   5.031
  122        1.577   3.466   0.000   5.042
  123        1.577   3.468   0.000   5.046
  124        1.575   3.464   0.000   5.039
  125        1.576   3.471   0.000   5.048
  126        1.576   3.469   0.000   5.045
  127        1.570   3.460   0.000   5.030
  128        1.574   3.457   0.000   5.031
  129        1.577   3.465   0.000   5.041
  130        1.737   4.369   0.000   6.106
  131        1.737   4.370   0.000   6.107
  132        1.737   4.377   0.000   6.114
  133        1.738   4.381   0.000   6.119
  134        1.737   4.383   0.000   6.121
  135        1.737   4.365   0.000   6.102
  136        1.736   4.363   0.000   6.099
  137        1.738   4.379   0.000   6.117
  138        1.738   4.379   0.000   6.117
  139        1.739   4.383   0.000   6.121
  140        1.739   4.382   0.000   6.120
  141        1.738   4.380   0.000   6.118
  142        1.738   4.380   0.000   6.118
  143        1.738   4.381   0.000   6.119
  144        1.738   4.383   0.000   6.121
  145        1.738   4.379   0.000   6.117
  146        1.737   4.381   0.000   6.118
  147        1.737   4.369   0.000   6.105
  148        1.736   4.368   0.000   6.104
  149        1.739   4.380   0.000   6.119
  150        1.738   4.383   0.000   6.121
  151        1.738   4.373   0.000   6.111
  152        1.737   4.377   0.000   6.114
  153        1.737   4.377   0.000   6.114
  154        1.737   4.370   0.000   6.107
  155        1.737   4.371   0.000   6.108
  156        1.737   4.367   0.000   6.103
  157        1.737   4.365   0.000   6.101
  158        1.738   4.373   0.000   6.111
  159        1.737   4.372   0.000   6.109
  160        1.736   4.365   0.000   6.102
  161        1.736   4.366   0.000   6.102
  162        1.736   4.365   0.000   6.102
  163        1.736   4.364   0.000   6.100
  164        1.737   4.377   0.000   6.114
  165        1.737   4.369   0.000   6.106
  166        1.736   4.368   0.000   6.105
  167        1.737   4.366   0.000   6.103
  168        1.737   4.369   0.000   6.106
  169        1.738   4.376   0.000   6.114
  170        1.737   4.376   0.000   6.113
  171        1.737   4.368   0.000   6.105
  172        1.737   4.382   0.000   6.119
  173        1.737   4.366   0.000   6.102
  174        1.737   4.367   0.000   6.104
  175        1.738   4.376   0.000   6.115
  176        1.736   4.360   0.000   6.096
  177        1.738   4.378   0.000   6.116
  178        1.737   4.366   0.000   6.103
  179        1.738   4.373   0.000   6.111
  180        1.738   4.378   0.000   6.116
  181        1.736   4.366   0.000   6.103
  182        1.738   4.376   0.000   6.114
  183        1.737   4.369   0.000   6.106
  184        1.737   4.376   0.000   6.113
  185        1.737   4.379   0.000   6.116
  186        1.737   4.376   0.000   6.113
  187        1.737   4.370   0.000   6.107
  188        1.738   4.377   0.000   6.115
  189        1.738   4.380   0.000   6.118
  190        1.738   4.380   0.000   6.118
  191        1.738   4.382   0.000   6.120
  192        1.737   4.367   0.000   6.103
  193        1.738   4.381   0.000   6.119
  194        1.736   4.365   0.000   6.101
  195        1.737   4.368   0.000   6.105
  196        1.737   4.380   0.000   6.117
  197        1.737   4.368   0.000   6.104
  198        1.737   4.380   0.000   6.117
  199        1.738   4.379   0.000   6.117
  200        1.738   4.377   0.000   6.116
  201        1.738   4.373   0.000   6.111
  202        1.739   4.371   0.000   6.109
  203        1.738   4.378   0.000   6.115
  204        1.738   4.371   0.000   6.108
  205        1.737   4.376   0.000   6.113
  206        1.737   4.368   0.000   6.105
  207        1.737   4.368   0.000   6.105
  208        1.737   4.381   0.000   6.118
  209        1.737   4.375   0.000   6.112
  210        1.736   4.369   0.000   6.105
  211        1.737   4.370   0.000   6.107
  212        1.737   4.367   0.000   6.104
  213        1.738   4.369   0.000   6.107
  214        1.736   4.366   0.000   6.102
  215        1.738   4.374   0.000   6.112
  216        1.736   4.363   0.000   6.099
  217        1.736   4.363   0.000   6.100
  218        1.737   4.373   0.000   6.110
  219        1.738   4.376   0.000   6.114
  220        1.738   4.378   0.000   6.116
  221        1.738   4.380   0.000   6.118
  222        1.737   4.375   0.000   6.112
  223        1.737   4.377   0.000   6.115
  224        1.736   4.373   0.000   6.109
  225        1.738   4.371   0.000   6.110
  226        1.738   4.378   0.000   6.116
  227        1.737   4.378   0.000   6.115
  228        1.738   4.378   0.000   6.115
  229        1.738   4.372   0.000   6.110
  230        1.736   4.367   0.000   6.103
  231        1.738   4.370   0.000   6.108
  232        1.737   4.369   0.000   6.106
  233        1.737   4.379   0.000   6.116
  234        1.736   4.362   0.000   6.098
  235        1.737   4.364   0.000   6.101
  236        1.738   4.386   0.000   6.124
  237        1.739   4.382   0.000   6.121
  238        1.737   4.373   0.000   6.110
  239        1.738   4.374   0.000   6.111
  240        1.737   4.380   0.000   6.117
  241        1.738   4.372   0.000   6.110
  242        1.738   4.383   0.000   6.121
  243        1.738   4.385   0.000   6.123
  244        1.738   4.379   0.000   6.116
  245        1.738   4.375   0.000   6.112
  246        1.738   4.373   0.000   6.111
  247        1.738   4.382   0.000   6.121
  248        1.737   4.371   0.000   6.109
  249        1.738   4.383   0.000   6.121
  250        1.738   4.368   0.000   6.105
  251        1.738   4.375   0.000   6.114
  252        1.737   4.376   0.000   6.113
  253        1.738   4.378   0.000   6.116
  254        1.739   4.383   0.000   6.122
  255        1.738   4.375   0.000   6.113
  256        1.738   4.385   0.000   6.123
  257        1.738   4.378   0.000   6.116
--------------------------------------------------
tot        345.3111194.307 111.8741651.492
 


 magnetization (x)
 
# of ion       s       p       d       tot
------------------------------------------
    1        0.000   0.000   0.000   0.000
    2        0.000   0.000  -0.000  -0.000
    3       -0.000  -0.000  -0.000  -0.000
    4        0.000   0.000   0.000   0.000
    5       -0.000  -0.000  -0.000  -0.000
    6        0.000   0.000   0.000   0.000
    7        0.000   0.001   0.093   0.095
    8        0.000   0.000   0.000   0.000
    9        0.000   0.000   0.003   0.003
   10        0.000   0.000   0.000   0.000
   11        0.000   0.000   0.000   0.000
   12       -0.000  -0.000  -0.000  -0.000
   13       -0.000  -0.000  -0.000  -0.000
   14        0.000   0.000   0.002   0.002
   15        0.000   0.000   0.004   0.004
   16        0.000   0.000   0.001   0.001
   17        0.000   0.000   0.000   0.000
   18        0.000  -0.000   0.000   0.000
   19       -0.000  -0.000  -0.000  -0.000
   20        0.000   0.000  -0.000  -0.000
   21        0.000   0.000   0.000   0.000
   22        0.000   0.000   0.000   0.000
   23        0.005   0.007   0.886   0.898
   24        0.000   0.000   0.000   0.000
   25       -0.000  -0.000   0.000   0.000
   26        0.000  -0.000   0.000   0.000
   27       -0.000  -0.000   0.000   0.000
   28        0.000   0.000   0.000   0.000
   29        0.000   0.000   0.000   0.000
   30        0.000   0.000   0.007   0.008
   31       -0.000  -0.000   0.006   0.006
   32        0.000   0.000   0.000   0.000
   33        0.000   0.000   0.000   0.000
   34        0.000   0.000   0.000   0.000
   35       -0.000  -0.000   0.000  -0.000
   36        0.000  -0.000  -0.000  -0.000
   37       -0.000  -0.000   0.000   0.000
   38        0.000   0.000  -0.000  -0.000
   39       -0.000  -0.000  -0.000  -0.000
   40       -0.000   0.000   0.000   0.000
   41        0.000   0.000   0.000   0.000
   42        0.000  -0.000   0.000   0.000
   43       -0.000  -0.000  -0.000  -0.000
   44       -0.000  -0.000   0.000  -0.000
   45       -0.000  -0.000  -0.000  -0.000
   46       -0.000  -0.000  -0.000  -0.000
   47       -0.000  -0.000  -0.000  -0.000
   48       -0.000  -0.000   0.000   0.000
   49       -0.000  -0.000   0.000   0.000
   50       -0.000  -0.000   0.000   0.000
   51       -0.000  -0.000   0.000   0.000
   52        0.000   0.000  -0.000  -0.000
   53       -0.000  -0.000   0.000   0.000
   54        0.000   0.000   0.000   0.000
   55       -0.000  -0.000  -0.002  -0.002
   56       -0.000   0.000  -0.000  -0.000
   57       -0.000  -0.000   0.000   0.000
   58       -0.000  -0.000   0.000   0.000
   59       -0.000   0.000   0.000   0.000
   60        0.000  -0.000   0.000   0.000
   61       -0.000  -0.000  -0.000  -0.000
   62       -0.000  -0.000   0.000   0.000
   63       -0.000  -0.000   0.000  -0.000
   64        0.000   0.000   0.000   0.000
   65        0.000   0.000   0.000   0.000
   66        0.000   0.000   0.000   0.000
   67        0.000  -0.000   0.000  -0.000
   68        0.000   0.000   0.000   0.000
   69       -0.000  -0.000   0.000  -0.000
   70        0.000  -0.000   0.000  -0.000
   71        0.000   0.000   0.000   0.000
   72       -0.000  -0.000   0.000  -0.000
   73       -0.000  -0.000   0.000  -0.000
   74        0.000   0.000   0.000   0.000
   75       -0.000  -0.000   0.000  -0.000
   76       -0.000  -0.000   0.000  -0.000
   77       -0.000  -0.000   0.000  -0.000
   78       -0.000  -0.000   0.000  -0.000
   79       -0.000  -0.000   0.000  -0.000
   80       -0.000  -0.000   0.000  -0.000
   81        0.000  -0.000   0.000  -0.000
   82       -0.000  -0.000   0.000  -0.000
   83       -0.000  -0.000   0.000  -0.000
   84       -0.000  -0.000   0.000  -0.000
   85        0.000  -0.000   0.000  -0.000
   86        0.000   0.000   0.000   0.000
   87       -0.000  -0.000   0.000  -0.000
   88       -0.000  -0.000   0.000  -0.000
   89       -0.000   0.000   0.000   0.000
   90       -0.000  -0.000   0.000  -0.000
   91       -0.000  -0.000   0.000  -0.000
   92       -0.000  -0.000   0.000  -0.000
   93       -0.001  -0.017   0.000  -0.017
   94       -0.000  -0.000   0.000  -0.000
   95       -0.000  -0.000   0.000  -0.000
   96       -0.000  -0.000   0.000  -0.000
   97       -0.000  -0.000   0.000  -0.000
   98       -0.000  -0.000   0.000  -0.000
   99       -0.000  -0.000   0.000  -0.000
  100       -0.000  -0.000   0.000  -0.000
  101       -0.000  -0.000   0.000  -0.000
  102       -0.000  -0.000   0.000  -0.000
  103        0.000   0.000   0.000   0.000
  104       -0.000  -0.000   0.000  -0.000
  105       -0.000  -0.000   0.000  -0.000
  106       -0.000  -0.000   0.000  -0.000
  107       -0.000  -0.000   0.000  -0.000
  108       -0.000   0.000   0.000   0.000
  109       -0.000  -0.000   0.000  -0.000
  110       -0.000  -0.000   0.000  -0.000
  111       -0.000  -0.000   0.000  -0.000
  112       -0.002  -0.045   0.000  -0.047
  113        0.000  -0.000   0.000  -0.000
  114       -0.000  -0.001   0.000  -0.001
  115       -0.000  -0.001   0.000  -0.001
  116        0.000  -0.000   0.000  -0.000
  117       -0.000  -0.000   0.000  -0.000
  118        0.000   0.000   0.000   0.000
  119       -0.000  -0.000   0.000  -0.000
  120       -0.000  -0.000   0.000  -0.000
  121       -0.000  -0.000   0.000  -0.000
  122       -0.000  -0.000   0.000  -0.000
  123        0.000   0.000   0.000   0.000
  124       -0.000  -0.000   0.000  -0.000
  125       -0.000   0.000   0.000   0.000
  126       -0.000  -0.000   0.000  -0.000
  127       -0.000  -0.000   0.000  -0.000
  128       -0.000  -0.000   0.000  -0.000
  129       -0.000  -0.000   0.000  -0.000
  130        0.000  -0.000   0.000  -0.000
  131       -0.000  -0.000   0.000  -0.000
  132       -0.000   0.000   0.000   0.000
  133       -0.000  -0.000   0.000  -0.000
  134       -0.000  -0.000   0.000  -0.001
  135       -0.000  -0.000   0.000  -0.000
  136        0.000   0.000   0.000   0.000
  137        0.000   0.000   0.000   0.000
  138       -0.000   0.000   0.000   0.000
  139       -0.000  -0.000   0.000  -0.000
  140       -0.000  -0.000   0.000  -0.000
  141        0.000  -0.000   0.000  -0.000
  142        0.000  -0.000   0.000  -0.000
  143        0.000   0.000   0.000   0.000
  144       -0.000   0.001   0.000   0.001
  145        0.000  -0.000   0.000  -0.000
  146       -0.000  -0.000   0.000  -0.000
  147       -0.000  -0.000   0.000  -0.000
  148       -0.000  -0.000   0.000  -0.000
  149       -0.000   0.001   0.000   0.001
  150       -0.000  -0.000   0.000  -0.000
  151        0.000  -0.000   0.000  -0.000
  152        0.000  -0.000   0.000  -0.000
  153       -0.000  -0.000   0.000  -0.000
  154       -0.000  -0.000   0.000  -0.000
  155       -0.000  -0.000   0.000  -0.000
  156       -0.000  -0.000   0.000  -0.000
  157       -0.000  -0.000   0.000  -0.000
  158        0.000   0.000   0.000   0.000
  159        0.000   0.000   0.000   0.000
  160       -0.000   0.000   0.000   0.000
  161       -0.000  -0.000   0.000  -0.000
  162       -0.000  -0.000   0.000  -0.000
  163       -0.000  -0.000   0.000  -0.000
  164       -0.000  -0.000   0.000  -0.000
  165        0.000  -0.000   0.000  -0.000
  166       -0.000  -0.000   0.000  -0.000
  167       -0.000  -0.000   0.000  -0.000
  168       -0.000  -0.000   0.000  -0.000
  169       -0.000  -0.000   0.000  -0.000
  170        0.000  -0.000   0.000  -0.000
  171       -0.000  -0.000   0.000  -0.000
  172       -0.000  -0.000   0.000  -0.000
  173       -0.000  -0.000   0.000  -0.000
  174       -0.000  -0.000   0.000  -0.000
  175       -0.000  -0.001   0.000  -0.001
  176        0.000  -0.000   0.000  -0.000
  177       -0.000  -0.000   0.000  -0.000
  178       -0.000  -0.000   0.000  -0.000
  179        0.000   0.000   0.000   0.000
  180       -0.000  -0.000   0.000  -0.000
  181        0.000  -0.000   0.000  -0.000
  182       -0.000  -0.000   0.000  -0.000
  183       -0.000  -0.000   0.000  -0.000
  184       -0.000  -0.000   0.000  -0.000
  185        0.000  -0.000   0.000  -0.000
  186       -0.000  -0.000   0.000  -0.000
  187       -0.000  -0.000   0.000  -0.000
  188       -0.000  -0.000   0.000  -0.000
  189       -0.000  -0.000   0.000  -0.000
  190        0.000  -0.000   0.000  -0.000
  191       -0.000  -0.001   0.000  -0.001
  192       -0.000  -0.000   0.000  -0.000
  193       -0.000  -0.000   0.000  -0.000
  194       -0.000  -0.000   0.000  -0.000
  195       -0.000  -0.000   0.000  -0.000
  196       -0.000  -0.000   0.000  -0.000
  197        0.000  -0.000   0.000  -0.000
  198       -0.000  -0.000   0.000  -0.000
  199       -0.000  -0.004   0.000  -0.004
  200        0.000  -0.000   0.000  -0.000
  201       -0.000  -0.000   0.000  -0.000
  202       -0.000  -0.000   0.000  -0.000
  203        0.000   0.000   0.000   0.000
  204        0.000  -0.000   0.000  -0.000
  205       -0.000  -0.000   0.000  -0.000
  206       -0.000  -0.000   0.000  -0.000
  207       -0.000  -0.000   0.000  -0.000
  208       -0.000  -0.000   0.000  -0.000
  209        0.000  -0.000   0.000  -0.000
  210       -0.000  -0.000   0.000  -0.000
  211       -0.000  -0.000   0.000  -0.000
  212       -0.000  -0.000   0.000  -0.000
  213        0.000   0.000   0.000   0.000
  214        0.000  -0.000   0.000  -0.000
  215       -0.000  -0.000   0.000  -0.000
  216       -0.000  -0.000   0.000  -0.000
  217        0.000   0.000   0.000   0.000
  218        0.000  -0.000   0.000  -0.000
  219        0.000  -0.000   0.000  -0.000
  220       -0.000  -0.000   0.000  -0.000
  221       -0.000   0.000   0.000   0.000
  222        0.000  -0.000   0.000  -0.000
  223        0.000   0.000   0.000   0.000
  224       -0.000   0.001   0.000   0.000
  225       -0.000  -0.000   0.000  -0.000
  226        0.000   0.000   0.000   0.000
  227        0.000  -0.000   0.000  -0.000
  228        0.000  -0.000   0.000  -0.000
  229        0.000  -0.000   0.000  -0.000
  230        0.000   0.000   0.000   0.000
  231        0.000  -0.000   0.000  -0.000
  232        0.000  -0.000   0.000  -0.000
  233       -0.000  -0.000   0.000  -0.000
  234       -0.000  -0.000   0.000  -0.000
  235       -0.000  -0.000   0.000  -0.000
  236        0.000  -0.000   0.000  -0.000
  237        0.000  -0.000   0.000  -0.000
  238       -0.000   0.000   0.000  -0.000
  239       -0.000  -0.000   0.000  -0.000
  240       -0.000  -0.000   0.000  -0.000
  241       -0.000  -0.000   0.000  -0.000
  242       -0.000   0.000   0.000   0.000
  243       -0.000  -0.000   0.000  -0.000
  244        0.000   0.000   0.000   0.000
  245       -0.000   0.000   0.000   0.000
  246       -0.000  -0.000   0.000  -0.000
  247        0.000  -0.000   0.000  -0.000
  248       -0.000  -0.000   0.000  -0.000
  249        0.000  -0.000   0.000  -0.000
  250        0.000  -0.000   0.000  -0.000
  251       -0.000  -0.000   0.000  -0.000
  252       -0.000  -0.000   0.000  -0.000
  253       -0.000  -0.000   0.000  -0.000
  254       -0.000  -0.000   0.000  -0.000
  255       -0.000  -0.000   0.000  -0.000
  256       -0.000  -0.000   0.000  -0.000
  257        0.000  -0.000   0.000  -0.000
--------------------------------------------------
tot          0.002  -0.063   1.001   0.939
 

 total amount of memory used by VASP MPI-rank0   291516. kBytes
=======================================================================

   base      :      30000. kBytes
   nonlr-proj:      49481. kBytes
   fftplans  :      27976. kBytes
   grid      :      34041. kBytes
   one-center:       1026. kBytes
   wavefun   :     148992. kBytes
 
  
  
 General timing and accounting informations for this job:
 ========================================================
  
                  Total CPU time used (sec):     4660.876
                            User time (sec):     4258.000
                          System time (sec):      402.877
                         Elapsed time (sec):     4696.487
  
                   Maximum memory used (kb):      626596.
                   Average memory used (kb):           0.
  
                          Minor page faults:       264266
                          Major page faults:           14
                 Voluntary context switches:        32944
