       N       E                     dE             d eps       ncg     rms          rms(c)
DAV:   1    -0.212729906915E+03   -0.21273E+03   -0.30468E-03 20480   0.343E-01    0.281E-03
DAV:   2    -0.212729906768E+03    0.14653E-06   -0.54585E-07 10912   0.549E-03
   1 F= -.21272991E+03 E0= -.21272991E+03  d E =-.212730E+03  mag=     0.0000
