LTO                                     
           1
     7.878980   -0.000012   -0.000005
    -0.000012    7.725552   -0.000291
    -0.000005   -0.000289    7.583993
   Ti   O    F 
   8   8  16
Direct configuration=     1
   0.00000011  0.00101674  0.98192340
   0.00000027  0.98200366  0.50366528
   0.00000004  0.50068539  0.00247600
   0.99999978  0.50638401  0.50099783
   0.50000009  0.01297177  0.01238366
   0.50000024  0.01331684  0.48882398
   0.49999998  0.48856823  0.98790155
   0.49999971  0.48824803  0.51108456
   0.99999943  0.75294259  0.49776064
   0.49999977  0.24905076  0.99931899
   0.49999938  0.24930052  0.50057443
   0.00000009  0.00343018  0.75205370
   0.99999980  0.49792438  0.24774617
   0.99999988  0.49771521  0.75447549
   0.50000013  0.99361907  0.24964474
   0.49999980  0.50601798  0.75028067
   0.24735613  0.99755437  0.99984829
   0.24972030  0.00032794  0.50040135
   0.25176084  0.50341339  0.00448085
   0.25246336  0.49989625  0.49606288
   0.75264406  0.99755504  0.99984808
   0.75028029  0.00033244  0.50040069
   0.74823918  0.50341246  0.00448072
   0.74753618  0.49989591  0.49606307
   0.00000058  0.24654489  0.00679028
   0.00000018  0.24510363  0.49675158
   0.99999982  0.75511983  0.00821050
   0.50000036  0.75113691  0.99929284
   0.50000006  0.75083631  0.50059371
   0.00000010  0.00614668  0.24543498
   0.50000012  0.98822362  0.75065055
   0.49999992  0.51130498  0.24957856
