 vasp.5.4.4.18Apr17-6-g9f103f2a35 (build Jul 16 2019 12:12:28) complex          
  
 executed on             LinuxIFC date 2020.01.06  10:24:38
 running on   96 total cores
 distrk:  each k-point on   96 cores,    1 groups
 distr:  one band on NCORES_PER_BAND=   8 cores,   12 groups


--------------------------------------------------------------------------------------------------------


 INCAR:
 POTCAR:    PAW_PBE Li_sv 10Sep2004               
 POTCAR:    PAW_PBE Ti_pv 07Sep2000               
 POTCAR:    PAW_PBE O 08Apr2002                   
 POTCAR:    PAW_PBE F 08Apr2002                   
 POTCAR:    PAW_PBE Li_sv 10Sep2004               
   VRHFIN =Li: 1s2s2p                                                           
   LEXCH  = PE                                                                  
   EATOM  =   202.7858 eV,   14.9043 Ry                                         
                                                                                
   TITEL  = PAW_PBE Li_sv 10Sep2004                                             
   LULTRA =        F    use ultrasoft PP ?                                      
   IUNSCR =        0    unscreen: 0-lin 1-nonlin 2-no                           
   RPACOR =    0.000    partial core radius                                     
   POMASS =    7.010; ZVAL   =    3.000    mass and valenz                      
   RCORE  =    1.700    outmost cutoff radius                                   
   RWIGS  =    2.050; RWIGS  =    1.085    wigner-seitz radius (au A)           
   ENMAX  =  499.034; ENMIN  =  374.276 eV                                      
   ICORE  =        2    local potential                                         
   LCOR   =        T    correct aug charges                                     
   LPAW   =        T    paw PP                                                  
   EAUG   =  628.945                                                            
   RMAX   =    1.732    core radius for proj-oper                               
   RAUG   =    1.300    factor for augmentation sphere                          
   RDEP   =    1.728    radius for radial grids                                 
   RDEPT  =    1.329    core radius for aug-charge                              
                                                                                
   Atomic configuration                                                         
    4 entries                                                                   
     n  l   j            E        occ.                                          
     1  0  0.50       -51.8549   2.0000                                         
     2  0  0.50        -2.8742   1.0000                                         
     2  1  0.50        -1.3606   0.0000                                         
     3  2  1.50        -1.3606   0.0000                                         
   Description                                                                  
     l       E           TYP  RCUT    TYP  RCUT                                 
     0    -51.8548813     23  1.400                                             
     0     -2.8742052     23  1.700                                             
     1     -1.3605826     23  1.400                                             
     2     -1.3605826     23  1.400                                             
  local pseudopotential read in
  atomic valenz-charges read in
  non local Contribution for L=           0  read in
    real space projection operators read in
  non local Contribution for L=           0  read in
    real space projection operators read in
  non local Contribution for L=           1  read in
    real space projection operators read in
    PAW grid and wavefunctions read in
 
   number of l-projection  operators is LMAX  =           3
   number of lm-projection operators is LMMAX =           5
 
 POTCAR:    PAW_PBE Ti_pv 07Sep2000               
   VRHFIN =Ti: d3 s1                                                            
   LEXCH  = PE                                                                  
   EATOM  =  1042.5995 eV,   76.6289 Ry                                         
                                                                                
   TITEL  = PAW_PBE Ti_pv 07Sep2000                                             
   LULTRA =        F    use ultrasoft PP ?                                      
   IUNSCR =        1    unscreen: 0-lin 1-nonlin 2-no                           
   RPACOR =    2.200    partial core radius                                     
   POMASS =   47.880; ZVAL   =   10.000    mass and valenz                      
   RCORE  =    2.500    outmost cutoff radius                                   
   RWIGS  =    2.500; RWIGS  =    1.323    wigner-seitz radius (au A)           
   ENMAX  =  222.335; ENMIN  =  166.751 eV                                      
   RCLOC  =    1.701    cutoff for local pot                                    
   LCOR   =        T    correct aug charges                                     
   LPAW   =        T    paw PP                                                  
   EAUG   =  482.848                                                            
   DEXC   =    0.000                                                            
   RMAX   =    2.564    core radius for proj-oper                               
   RAUG   =    1.300    factor for augmentation sphere                          
   RDEP   =    2.538    radius for radial grids                                 
   RDEPT  =    1.952    core radius for aug-charge                              
                                                                                
   Atomic configuration                                                         
    8 entries                                                                   
     n  l   j            E        occ.                                          
     1  0  0.50     -4865.3608   2.0000                                         
     2  0  0.50      -533.1368   2.0000                                         
     2  1  1.50      -440.5031   6.0000                                         
     3  0  0.50       -59.3186   2.0000                                         
     3  1  1.50       -35.7012   6.0000                                         
     3  2  2.50        -1.9157   3.0000                                         
     4  0  0.50        -3.7291   1.0000                                         
     4  3  2.50        -1.3606   0.0000                                         
   Description                                                                  
     l       E           TYP  RCUT    TYP  RCUT                                 
     1    -35.7012140     23  2.300                                             
     1     -1.3605826     23  2.300                                             
     2     -1.9156996     23  2.500                                             
     2     -0.4063033     23  2.500                                             
     0     -3.7290856     23  2.500                                             
     0     20.4087390     23  2.500                                             
  local pseudopotential read in
  partial core-charges read in
  partial kinetic energy density read in
  atomic valenz-charges read in
  non local Contribution for L=           1  read in
    real space projection operators read in
  non local Contribution for L=           1  read in
    real space projection operators read in
  non local Contribution for L=           2  read in
    real space projection operators read in
  non local Contribution for L=           2  read in
    real space projection operators read in
  non local Contribution for L=           0  read in
    real space projection operators read in
  non local Contribution for L=           0  read in
    real space projection operators read in
    PAW grid and wavefunctions read in
 
   number of l-projection  operators is LMAX  =           6
   number of lm-projection operators is LMMAX =          18
 
 POTCAR:    PAW_PBE O 08Apr2002                   
   VRHFIN =O: s2p4                                                              
   LEXCH  = PE                                                                  
   EATOM  =   432.3788 eV,   31.7789 Ry                                         
                                                                                
   TITEL  = PAW_PBE O 08Apr2002                                                 
   LULTRA =        F    use ultrasoft PP ?                                      
   IUNSCR =        1    unscreen: 0-lin 1-nonlin 2-no                           
   RPACOR =    1.200    partial core radius                                     
   POMASS =   16.000; ZVAL   =    6.000    mass and valenz                      
   RCORE  =    1.520    outmost cutoff radius                                   
   RWIGS  =    1.550; RWIGS  =    0.820    wigner-seitz radius (au A)           
   ENMAX  =  400.000; ENMIN  =  300.000 eV                                      
   ICORE  =        2    local potential                                         
   LCOR   =        T    correct aug charges                                     
   LPAW   =        T    paw PP                                                  
   EAUG   =  605.392                                                            
   DEXC   =    0.000                                                            
   RMAX   =    1.553    core radius for proj-oper                               
   RAUG   =    1.300    factor for augmentation sphere                          
   RDEP   =    1.550    radius for radial grids                                 
   RDEPT  =    1.329    core radius for aug-charge                              
                                                                                
   Atomic configuration                                                         
    4 entries                                                                   
     n  l   j            E        occ.                                          
     1  0  0.50      -514.6923   2.0000                                         
     2  0  0.50       -23.9615   2.0000                                         
     2  1  0.50        -9.0305   4.0000                                         
     3  2  1.50        -9.5241   0.0000                                         
   Description                                                                  
     l       E           TYP  RCUT    TYP  RCUT                                 
     0    -23.9615318     23  1.200                                             
     0     -9.5240782     23  1.200                                             
     1     -9.0304911     23  1.520                                             
     1      8.1634956     23  1.520                                             
     2     -9.5240782      7  1.500                                             
  local pseudopotential read in
  partial core-charges read in
  partial kinetic energy density read in
  kinetic energy density of atom read in
  atomic valenz-charges read in
  non local Contribution for L=           0  read in
    real space projection operators read in
  non local Contribution for L=           0  read in
    real space projection operators read in
  non local Contribution for L=           1  read in
    real space projection operators read in
  non local Contribution for L=           1  read in
    real space projection operators read in
    PAW grid and wavefunctions read in
 
   number of l-projection  operators is LMAX  =           4
   number of lm-projection operators is LMMAX =           8
 
 POTCAR:    PAW_PBE F 08Apr2002                   
   VRHFIN =F: s2p5                                                              
   LEXCH  = PE                                                                  
   EATOM  =   659.6475 eV,   48.4827 Ry                                         
                                                                                
   TITEL  = PAW_PBE F 08Apr2002                                                 
   LULTRA =        F    use ultrasoft PP ?                                      
   IUNSCR =        1    unscreen: 0-lin 1-nonlin 2-no                           
   RPACOR =    1.200    partial core radius                                     
   POMASS =   18.998; ZVAL   =    7.000    mass and valenz                      
   RCORE  =    1.520    outmost cutoff radius                                   
   RWIGS  =    1.500; RWIGS  =    0.794    wigner-seitz radius (au A)           
   ENMAX  =  400.000; ENMIN  =  300.000 eV                                      
   ICORE  =        2    local potential                                         
   LCOR   =        T    correct aug charges                                     
   LPAW   =        T    paw PP                                                  
   EAUG   =  613.614                                                            
   RMAX   =    1.555    core radius for proj-oper                               
   RAUG   =    1.300    factor for augmentation sphere                          
   RDEP   =    1.539    radius for radial grids                                 
   RDEPT  =    1.299    core radius for aug-charge                              
                                                                                
   Atomic configuration                                                         
    4 entries                                                                   
     n  l   j            E        occ.                                          
     1  0  0.50      -663.3661   2.0000                                         
     2  0  0.50       -29.8995   2.0000                                         
     2  1  0.50       -11.1114   5.0000                                         
     3  2  1.50       -10.8847   0.0000                                         
   Description                                                                  
     l       E           TYP  RCUT    TYP  RCUT                                 
     0    -29.8995018     23  1.200                                             
     0     -9.5240782     23  1.200                                             
     1    -11.1113914     23  1.520                                             
     1      1.3605826     23  1.520                                             
     2    -10.8846608      7  1.500                                             
  local pseudopotential read in
  partial core-charges read in
  partial kinetic energy density read in
  atomic valenz-charges read in
  non local Contribution for L=           0  read in
    real space projection operators read in
  non local Contribution for L=           0  read in
    real space projection operators read in
  non local Contribution for L=           1  read in
    real space projection operators read in
  non local Contribution for L=           1  read in
    real space projection operators read in
    PAW grid and wavefunctions read in
 
   number of l-projection  operators is LMAX  =           4
   number of lm-projection operators is LMMAX =           8
 
 Optimization of the real space projectors (new method)

 maximal supplied QI-value         = 22.11
 optimisation between [QCUT,QGAM] = [ 11.28, 22.77] = [ 35.61,145.23] Ry 
 Optimized for a Real-space Cutoff    1.31 Angstroem

   l    n(q)    QCUT    max X(q) W(low)/X(q) W(high)/X(q)  e(spline) 
   0      9    11.276    10.506    0.19E-04    0.17E-04    0.32E-07
   0      9    11.276     8.367    0.38E-04    0.40E-04    0.65E-07
   1      8    11.276     8.983    0.55E-04    0.98E-04    0.20E-06
 Optimization of the real space projectors (new method)

 maximal supplied QI-value         = 15.12
 optimisation between [QCUT,QGAM] = [ 11.34, 22.83] = [ 36.00,145.93] Ry 
 Optimized for a Real-space Cutoff    1.56 Angstroem

   l    n(q)    QCUT    max X(q) W(low)/X(q) W(high)/X(q)  e(spline) 
   1     10    11.338     4.216    0.27E-04    0.12E-04    0.66E-07
   1     10    11.338     5.422    0.81E-04    0.24E-04    0.19E-06
   2     10    11.338    72.084    0.64E-04    0.21E-03    0.51E-06
   2     10    11.338    65.965    0.63E-04    0.21E-03    0.50E-06
   0     11    11.338    41.531    0.33E-04    0.54E-04    0.13E-06
   0     11    11.338    16.290    0.26E-04    0.41E-04    0.11E-06
 Optimization of the real space projectors (new method)

 maximal supplied QI-value         = 24.76
 optimisation between [QCUT,QGAM] = [ 11.39, 22.77] = [ 36.31,145.25] Ry 
 Optimized for a Real-space Cutoff    1.20 Angstroem

   l    n(q)    QCUT    max X(q) W(low)/X(q) W(high)/X(q)  e(spline) 
   0      8    11.387    20.381    0.89E-04    0.31E-03    0.27E-06
   0      8    11.387    15.268    0.93E-04    0.32E-03    0.29E-06
   1      8    11.387     5.964    0.53E-04    0.28E-03    0.29E-06
   1      8    11.387     5.382    0.37E-04    0.22E-03    0.26E-06
 Optimization of the real space projectors (new method)

 maximal supplied QI-value         = 24.76
 optimisation between [QCUT,QGAM] = [ 11.39, 22.77] = [ 36.31,145.25] Ry 
 Optimized for a Real-space Cutoff    1.20 Angstroem

   l    n(q)    QCUT    max X(q) W(low)/X(q) W(high)/X(q)  e(spline) 
   0      8    11.387    14.049    0.69E-04    0.23E-03    0.18E-06
   0      8    11.387     8.945    0.88E-04    0.30E-03    0.26E-06
   1      8    11.387     7.086    0.62E-04    0.27E-03    0.27E-06
   1      8    11.387     6.747    0.46E-04    0.23E-03    0.25E-06

 ----------------------------------------------------------------------------- 
|                                                                             |
|  ADVICE TO THIS USER RUNNING 'VASP/VAMP'   (HEAR YOUR MASTER'S VOICE ...):  |
|                                                                             |
|      You enforced a specific xc-type in the INCAR file,                     |
|      a different type was found on the POTCAR file                          |
|          I HOPE YOU KNOW, WHAT YOU ARE  DOING                               |
|                                                                             |
 ----------------------------------------------------------------------------- 

  PAW_PBE Li_sv 10Sep2004               :
 energy of atom  1       EATOM= -202.7858
 kinetic energy error for atom=    0.0143 (will be added to EATOM!!)
  PAW_PBE Ti_pv 07Sep2000               :
 energy of atom  2       EATOM=-1042.5995
 kinetic energy error for atom=    0.0024 (will be added to EATOM!!)
  PAW_PBE O 08Apr2002                   :
 energy of atom  3       EATOM= -432.3788
 kinetic energy error for atom=    0.0224 (will be added to EATOM!!)
  PAW_PBE F 08Apr2002                   :
 energy of atom  4       EATOM= -659.6475
 kinetic energy error for atom=    0.0354 (will be added to EATOM!!)
 
 
 POSCAR: config 41                               
  positions in direct lattice
  velocities in cartesian coordinates
 exchange correlation table for  LEXCH =       14
   RHO(1)=    0.500       N(1)  =     2000
   RHO(2)=  100.500       N(2)  =     4000

 VTST: version 3.2, (02/03/18)

 CHAIN: initializing optimizer
 
 OPT: Using VASP QUASI-newton optimizer
 CHAIN: Read ICHAIN            0
 
 POSCAR: config 41                               
  positions in direct lattice
  velocities in cartesian coordinates
 


--------------------------------------------------------------------------------------------------------


 ion  position               nearest neighbor table
   1  0.590  0.618  0.092- 135 2.02  90 2.09  94 2.10 217 2.21   8 2.82
   2  0.996  0.994  0.995- 118 1.87  68 1.88 103 1.90 130 2.04 171 2.04 212 2.05
   3  0.999  0.992  0.494- 119 1.81  67 1.83 172 1.95 193 1.97 131 2.01 213 2.09
   4  0.007  0.496  0.998-  89 1.84 117 1.86 138 1.93 132 1.98 214 2.02 194 2.05
   5  0.995  0.504  0.507-  66 1.83 104 1.84 215 1.93 223 2.01 173 2.02 137 2.03
   6  0.495  0.995  0.001- 101 1.82 121 1.87 140 1.96 133 1.97 216 2.02 174 2.03
   7  0.502  0.009  0.499- 112 1.78 191 1.92 139 1.93 134 1.93 175 1.94 225 2.03
   8  0.503  0.491  0.993-  70 1.84 120 1.86  90 1.95 192 2.00 217 2.08 135 2.12   1 2.82
   9  0.493  0.499  0.495- 102 1.81  69 1.86 218 2.00 224 2.00 136 2.02 176 2.07
  10  0.007  0.004  0.256-  91 1.84  67 1.86 219 1.95 227 1.97 130 2.00 197 2.06
  11  0.002  0.007  0.757-  68 1.79 113 1.84 177 1.95 198 1.99 228 2.05 131 2.06
  12  0.995  0.492  0.251- 107 1.83 122 1.86 137 1.93 132 1.97 220 2.01 178 2.02
  13  0.993  0.500  0.742- 108 1.82  66 1.83 226 1.93 221 1.97 138 2.03 179 2.05
  14  0.506  0.009  0.250-  92 1.84 114 1.85 133 1.95 231 1.97 139 2.00 195 2.02
  15  0.493  0.006  0.753- 105 1.81 115 1.84 140 1.95 134 2.01 232 2.02 180 2.03
  16  0.493  0.495  0.259-  69 1.82 106 1.85 222 1.94 229 1.98 181 2.07 135 2.09
  17  0.502  0.504  0.757-  70 1.83 116 1.85 182 1.94 196 1.97 136 2.04 230 2.05
  18  0.996  0.258  0.002- 117 1.83 110 1.88 141 1.96 146 1.97 183 2.02 212 2.02
  19  0.998  0.248  0.491-  74 1.78 213 1.91 184 1.94 202 1.94 223 1.95 142 2.02
  20  0.997  0.758  0.006- 118 1.81  71 1.85 203 1.97 185 1.99 148 2.04 214 2.07
  21  0.996  0.757  0.506- 119 1.83  72 1.84 204 1.95 186 1.98 147 2.01 215 2.03
  22  0.496  0.257  0.003- 120 1.82 109 1.84 150 1.97 143 1.98 187 2.04 216 2.06
  23  0.509  0.246  0.498-  93 1.81 112 1.91 144 1.94 149 1.95 224 1.98 199 2.01
  24  0.508  0.759  1.000- 121 1.82  94 1.89 152 1.93 145 1.95 200 2.02 217 2.08
  25  0.507  0.753  0.508-  95 1.82  73 1.83 151 1.98 225 1.99 218 1.99 201 2.04
  26  1.000  0.258  0.255- 122 1.80  74 1.88 209 1.95 188 1.97 141 1.99 219 2.03
  27  0.007  0.243  0.748- 113 1.81  96 1.83 142 1.96 146 1.98 210 2.05 226 2.05
  28  0.003  0.748  0.243-  71 1.82  97 1.85 220 1.96 227 1.99 211 2.01 147 2.06
  29  0.992  0.750  0.744- 111 1.84  72 1.84 228 1.93 221 1.98 148 2.02 189 2.03
  30  0.507  0.241  0.253- 114 1.81  98 1.84 143 1.95 149 1.98 205 2.04 229 2.05
  31  0.507  0.244  0.751-  99 1.84 115 1.85 150 1.94 144 1.99 206 2.02 230 2.02
  32  0.503  0.752  0.252- 100 1.94 207 2.00 151 2.01 231 2.04 222 2.05 145 2.06
  33  0.501  0.742  0.742-  73 1.81 116 1.83 190 1.94 208 1.97 232 2.06 152 2.07
  34  0.257  0.998  0.006-  75 1.84 101 1.88 246 1.94 233 1.97 171 2.02 157 2.04
  35  0.252  0.993  0.506- 128 1.82  76 1.85 172 1.96 191 2.00 156 2.02 234 2.03
  36  0.244  0.509  0.998- 123 1.82  89 1.84 159 1.93 153 1.97 245 2.04 192 2.06
  37  0.256  0.494  0.507-  77 1.86 102 1.88 127 1.88 173 2.04 235 2.05 158 2.05
  38  0.757  0.999  0.994- 103 1.79  81 1.87 236 1.96 249 1.98 154 2.04 174 2.06
  39  0.750  0.007  0.495-  80 1.83 124 1.85 193 1.94 155 1.99 175 2.00 250 2.04
  40  0.742  0.501  0.005-  90 1.83  78 1.86 247 1.96 237 1.97 161 2.02 194 2.04
  41  0.756  0.499  0.506-  79 1.84 104 1.86 248 1.96 238 1.98 176 2.02 160 2.03
  42  0.245  0.003  0.244-  75 1.84  91 1.85 239 1.94 252 1.97 156 2.03 195 2.05
  43  0.259  0.998  0.744-  76 1.84 105 1.84 253 1.93 240 1.97 177 2.03 157 2.03
  44  0.256  0.491  0.252- 106 1.83 129 1.84 158 1.93 153 1.97 241 2.04 178 2.06
  45  0.247  0.506  0.741-  77 1.79 125 1.83 179 1.95 196 1.98 251 2.02 159 2.07
  46  0.744  0.002  0.256-  92 1.85  80 1.86 256 1.94 242 1.97 154 2.00 197 2.00
  47  0.748  0.007  0.756-  81 1.82 126 1.84 180 1.95 198 1.96 257 2.04 155 2.06
  48  0.758  0.498  0.244-  78 1.83 107 1.85 243 1.95 254 1.96 160 2.03 181 2.04
  49  0.758  0.498  0.743- 108 1.83  79 1.83 255 1.93 244 1.98 182 2.03 161 2.05
  50  0.257  0.252  0.006- 109 1.85  82 1.85 245 1.94 233 1.98 168 2.02 183 2.06
  51  0.254  0.257  0.505- 127 1.81  83 1.85 199 1.97 184 2.02 167 2.04 234 2.05
  52  0.251  0.742  0.994- 123 1.83  86 1.83 200 1.97 185 1.97 162 2.03 246 2.04
  53  0.252  0.755  0.493-  85 1.83 128 1.87 201 1.94 186 1.99 235 2.01 163 2.05
  54  0.757  0.252  0.008- 110 1.81  84 1.85 236 1.94 247 1.96 170 2.04 187 2.04
  55  0.742  0.243  0.498- 124 1.82  93 1.84 169 1.94 164 1.96 248 2.03 202 2.05
  56  0.740  0.749  0.994-  88 1.83  94 1.86 249 1.95 237 1.96 165 2.03 203 2.04
  57  0.741  0.753  0.493-  87 1.82  95 1.83 250 1.96 238 1.98 204 2.05 166 2.05
  58  0.250  0.258  0.244- 129 1.82  82 1.83 205 1.97 188 2.00 167 2.02 239 2.04
  59  0.244  0.252  0.744-  83 1.84  96 1.84 251 1.94 240 1.98 168 2.04 206 2.05
  60  0.241  0.747  0.255-  97 1.82  85 1.85 241 1.95 252 1.99 162 2.04 207 2.05
  61  0.247  0.742  0.757- 125 1.81  86 1.84 189 1.94 208 1.99 163 2.03 253 2.04
  62  0.741  0.250  0.243-  84 1.80  98 1.83 254 1.95 242 1.95 169 2.06 209 2.07
  63  0.745  0.243  0.751- 126 1.82  99 1.84 170 1.94 164 2.00 210 2.01 255 2.05
  64  0.741  0.750  0.255- 100 1.80  87 1.86 243 1.97 256 1.97 165 2.05 211 2.05
  65  0.756  0.750  0.757- 111 1.82  88 1.86 257 1.93 244 1.97 166 2.03 190 2.03
  66  0.009  0.503  0.625-  13 1.83   5 1.83
  67  0.997  0.006  0.376-   3 1.83  10 1.86
  68  0.002  0.002  0.873-  11 1.79   2 1.88
  69  0.499  0.482  0.376-  16 1.82   9 1.86
  70  0.496  0.486  0.874-  17 1.83   8 1.84
  71  0.990  0.744  0.125-  28 1.82  20 1.85
  72  0.992  0.744  0.625-  29 1.84  21 1.84
  73  0.490  0.743  0.625-  33 1.81  25 1.83
  74  0.990  0.248  0.376-  19 1.78  26 1.88
  75  0.257  0.002  0.125-  34 1.84  42 1.84
  76  0.259  0.003  0.625-  43 1.84  35 1.85
  77  0.239  0.493  0.626-  45 1.79  37 1.86
  78  0.751  0.494  0.126-  48 1.83  40 1.86
  79  0.747  0.492  0.624-  49 1.83  41 1.84
  80  0.749  0.001  0.376-  39 1.83  46 1.86
  81  0.743  0.999  0.874-  47 1.82  38 1.87
  82  0.242  0.251  0.126-  58 1.83  50 1.85
  83  0.250  0.251  0.625-  59 1.84  51 1.85
  84  0.738  0.259  0.127-  62 1.80  54 1.85
  85  0.246  0.745  0.375-  53 1.83  60 1.85
  86  0.242  0.750  0.876-  52 1.83  61 1.84
  87  0.742  0.752  0.375-  57 1.82  64 1.86
  88  0.736  0.751  0.876-  56 1.83  65 1.86
  89  0.125  0.513  0.994-  36 1.84   4 1.84
  90  0.625  0.521  0.004-  40 1.83   8 1.95   1 2.09
  91  0.125  0.011  0.250-  10 1.84  42 1.85
  92  0.625  0.013  0.249-  14 1.84  46 1.85
  93  0.625  0.264  0.490-  23 1.81  55 1.84
  94  0.624  0.727  0.018-  56 1.86  24 1.89   1 2.10
  95  0.624  0.768  0.510-  25 1.82  57 1.83
  96  0.125  0.254  0.753-  27 1.83  59 1.84
  97  0.123  0.744  0.245-  60 1.82  28 1.85
  98  0.626  0.237  0.265-  62 1.83  30 1.84
  99  0.626  0.255  0.752-  63 1.84  31 1.84
 100  0.627  0.739  0.236-  64 1.80  32 1.94
 101  0.377  0.991  0.991-   6 1.82  34 1.88
 102  0.376  0.511  0.505-   9 1.81  37 1.88
 103  0.873  0.990  0.998-  38 1.79   2 1.90
 104  0.876  0.510  0.500-   5 1.84  41 1.86
 105  0.377  0.998  0.761-  15 1.81  43 1.84
 106  0.374  0.487  0.246-  44 1.83  16 1.85
 107  0.877  0.486  0.252-  12 1.83  48 1.85
 108  0.876  0.512  0.746-  13 1.82  49 1.83
 109  0.377  0.257  0.008-  22 1.84  50 1.85
 110  0.874  0.259  0.009-  54 1.81  18 1.88
 111  0.874  0.741  0.760-  65 1.82  29 1.84
 112  0.517  0.123  0.487-   7 1.78  23 1.91
 113  0.999  0.126  0.744-  27 1.81  11 1.84
 114  0.487  0.126  0.271-  30 1.81  14 1.85
 115  0.504  0.124  0.759-  15 1.84  31 1.85
 116  0.505  0.624  0.758-  33 1.83  17 1.85
 117  0.009  0.376  0.005-  18 1.83   4 1.86
 118  0.011  0.874  0.003-  20 1.81   2 1.87
 119  0.985  0.875  0.499-   3 1.81  21 1.83
 120  0.513  0.373  0.016-  22 1.82   8 1.86
 121  0.514  0.875  0.014-  24 1.82   6 1.87
 122  0.016  0.373  0.246-  26 1.80  12 1.86
 123  0.265  0.625  0.004-  36 1.82  52 1.83
 124  0.734  0.126  0.505-  55 1.82  39 1.85
 125  0.245  0.624  0.749-  61 1.81  45 1.83
 126  0.749  0.125  0.744-  63 1.82  47 1.84
 127  0.260  0.373  0.492-  51 1.81  37 1.88
 128  0.261  0.876  0.499-  35 1.82  53 1.87
 129  0.235  0.374  0.259-  58 1.82  44 1.84
 130  0.998  0.004  0.126-  10 2.00   2 2.04
 131  0.002  0.997  0.624-   3 2.01  11 2.06
 132  1.000  0.510  0.125-  12 1.97   4 1.98
 133  0.491  0.021  0.126-  14 1.95   6 1.97
 134  0.494  0.008  0.623-   7 1.93  15 2.01
 135  0.508  0.523  0.127-   1 2.02  16 2.09   8 2.12
 136  0.510  0.506  0.625-   9 2.02  17 2.04
 137  0.004  0.495  0.376-  12 1.93   5 2.03
 138  0.994  0.496  0.873-   4 1.93  13 2.03
 139  0.507  0.982  0.377-   7 1.93  14 2.00
 140  0.519  0.989  0.876-  15 1.95   6 1.96
 141  0.012  0.244  0.127-  18 1.96  26 1.99
 142  0.004  0.258  0.621-  27 1.96  19 2.02
 143  0.512  0.229  0.127-  30 1.95  22 1.98
 144  0.503  0.237  0.623-  23 1.94  31 1.99
 145  0.488  0.729  0.121-  24 1.95  32 2.06
 146  0.992  0.252  0.874-  18 1.97  27 1.98
 147  0.002  0.751  0.376-  21 2.01  28 2.06
 148  0.009  0.751  0.874-  29 2.02  20 2.04
 149  0.489  0.271  0.376-  23 1.95  30 1.98
 150  0.497  0.264  0.875-  31 1.94  22 1.97
 151  0.501  0.767  0.381-  25 1.98  32 2.01
 152  0.512  0.760  0.875-  24 1.93  33 2.07
 153  0.243  0.492  0.124-  36 1.97  44 1.97
 154  0.751  0.003  0.126-  46 2.00  38 2.04
 155  0.749  0.995  0.623-  39 1.99  47 2.06
 156  0.250  0.003  0.376-  35 2.02  42 2.03
 157  0.241  0.995  0.875-  43 2.03  34 2.04
 158  0.250  0.514  0.375-  44 1.93  37 2.05
 159  0.262  0.500  0.874-  36 1.93  45 2.07
 160  0.747  0.507  0.375-  48 2.03  41 2.03
 161  0.751  0.506  0.875-  40 2.02  49 2.05
 162  0.257  0.756  0.125-  52 2.03  60 2.04
 163  0.257  0.752  0.626-  61 2.03  53 2.05
 164  0.747  0.263  0.623-  55 1.96  63 2.00
 165  0.764  0.748  0.124-  56 2.03  64 2.05
 166  0.758  0.749  0.625-  65 2.03  57 2.05
 167  0.258  0.242  0.374-  58 2.02  51 2.04
 168  0.256  0.251  0.876-  50 2.02  59 2.04
 169  0.767  0.242  0.374-  55 1.94  62 2.06
 170  0.757  0.245  0.876-  63 1.94  54 2.04
 171  0.126  0.010  0.004-  34 2.02   2 2.04
 172  0.125  0.993  0.501-   3 1.95  35 1.96
 173  0.124  0.492  0.491-   5 2.02  37 2.04
 174  0.625  0.012  0.010-   6 2.03  38 2.06
 175  0.624  0.978  0.505-   7 1.94  39 2.00
 176  0.626  0.486  0.498-  41 2.02   9 2.07
 177  0.127  0.998  0.745-  11 1.95  43 2.03
 178  0.124  0.514  0.250-  12 2.02  44 2.06
 179  0.124  0.490  0.764-  45 1.95  13 2.05
 180  0.624  0.993  0.738-  47 1.95  15 2.03
 181  0.626  0.509  0.248-  48 2.04  16 2.07
 182  0.627  0.489  0.755-  17 1.94  49 2.03
 183  0.125  0.242  0.991-  18 2.02  50 2.06
 184  0.124  0.255  0.493-  19 1.94  51 2.02
 185  0.124  0.734  0.009-  52 1.97  20 1.99
 186  0.124  0.760  0.505-  21 1.98  53 1.99
 187  0.626  0.239  0.991-  22 2.04  54 2.04
 188  0.124  0.231  0.261-  26 1.97  58 2.00
 189  0.123  0.756  0.743-  61 1.94  29 2.03
 190  0.626  0.756  0.738-  33 1.94  65 2.03
 191  0.378  0.017  0.491-   7 1.92  35 2.00
 192  0.375  0.487  0.010-   8 2.00  36 2.06
 193  0.874  0.018  0.507-  39 1.94   3 1.97
 194  0.874  0.488  0.999-  40 2.04   4 2.05
 195  0.377  0.991  0.258-  14 2.02  42 2.05
 196  0.376  0.501  0.739-  17 1.97  45 1.98
 197  0.874  0.992  0.248-  46 2.00  10 2.06
 198  0.874  0.996  0.746-  47 1.96  11 1.99
 199  0.380  0.234  0.501-  51 1.97  23 2.01
 200  0.377  0.765  0.991-  52 1.97  24 2.02
 201  0.376  0.736  0.495-  53 1.94  25 2.04
 202  0.874  0.240  0.510-  19 1.94  55 2.05
 203  0.871  0.765  0.988-  20 1.97  56 2.04
 204  0.872  0.734  0.495-  21 1.95  57 2.05
 205  0.378  0.265  0.242-  58 1.97  30 2.04
 206  0.377  0.247  0.749-  31 2.02  59 2.05
 207  0.373  0.757  0.253-  32 2.00  60 2.05
 208  0.375  0.752  0.761-  33 1.97  61 1.99
 209  0.874  0.265  0.240-  26 1.95  62 2.07
 210  0.875  0.252  0.743-  63 2.01  27 2.05
 211  0.874  0.757  0.258-  28 2.01  64 2.05
 212  0.994  0.127  0.000-  18 2.02   2 2.05
 213  0.009  0.126  0.509-  19 1.91   3 2.09
 214  0.984  0.625  0.993-   4 2.02  20 2.07
 215  0.012  0.627  0.492-   5 1.93  21 2.03
 216  0.496  0.125  0.986-   6 2.02  22 2.06
 217  0.488  0.625  0.992-   8 2.08  24 2.08   1 2.21
 218  0.515  0.626  0.490-  25 1.99   9 2.00
 219  0.984  0.128  0.247-  10 1.95  26 2.03
 220  0.990  0.623  0.259-  28 1.96  12 2.01
 221  0.014  0.624  0.757-  13 1.97  29 1.98
 222  0.493  0.621  0.268-  16 1.94  32 2.05
 223  0.992  0.374  0.499-  19 1.95   5 2.01
 224  0.487  0.371  0.516-  23 1.98   9 2.00
 225  0.481  0.880  0.511-  25 1.99   7 2.03
 226  0.993  0.375  0.749-  13 1.93  27 2.05
 227  0.004  0.876  0.250-  10 1.97  28 1.99
 228  0.997  0.875  0.748-  29 1.93  11 2.05
 229  0.514  0.372  0.232-  16 1.98  30 2.05
 230  0.495  0.373  0.735-  31 2.02  17 2.05
 231  0.506  0.883  0.233-  14 1.97  32 2.04
 232  0.500  0.875  0.745-  15 2.02  33 2.06
 233  0.257  0.125  0.994-  34 1.97  50 1.98
 234  0.241  0.125  0.498-  35 2.03  51 2.05
 235  0.239  0.626  0.508-  53 2.01  37 2.05
 236  0.757  0.126  0.004-  54 1.94  38 1.96
 237  0.770  0.625  0.003-  56 1.96  40 1.97
 238  0.735  0.625  0.503-  41 1.98  57 1.98
 239  0.266  0.127  0.251-  42 1.94  58 2.04
 240  0.250  0.125  0.757-  43 1.97  59 1.98
 241  0.258  0.623  0.239-  60 1.95  44 2.04
 242  0.769  0.127  0.246-  62 1.95  46 1.97
 243  0.762  0.624  0.247-  48 1.95  64 1.97
 244  0.736  0.624  0.747-  65 1.97  49 1.98
 245  0.241  0.376  0.995-  50 1.94  36 2.04
 246  0.237  0.874  0.003-  34 1.94  52 2.04
 247  0.734  0.376  0.988-  40 1.96  54 1.96
 248  0.764  0.373  0.488-  41 1.96  55 2.03
 249  0.731  0.874  0.008-  56 1.95  38 1.98
 250  0.769  0.877  0.503-  57 1.96  39 2.04
 251  0.258  0.376  0.758-  59 1.94  45 2.02
 252  0.245  0.876  0.253-  42 1.97  60 1.99
 253  0.249  0.873  0.747-  43 1.93  61 2.04
 254  0.737  0.374  0.265-  62 1.95  48 1.96
 255  0.759  0.374  0.760-  49 1.93  63 2.05
 256  0.744  0.876  0.244-  46 1.94  64 1.97
 257  0.753  0.875  0.746-  65 1.93  47 2.04
 

IMPORTANT INFORMATION: All symmetrisations will be switched off!
NOSYMM: (Re-)initialisation of all symmetry stuff for point group C_1.

 
 
 KPOINTS: Title                                   

Automatic generation of k-mesh.
Space group operators:
 irot       det(A)        alpha          n_x          n_y          n_z        tau_x        tau_y        tau_z
    1     1.000000     0.000001     1.000000     0.000000     0.000000     0.000000     0.000000     0.000000
 
 Subroutine IBZKPT returns following result:
 ===========================================
 
 Found      4 irreducible k-points:
 
 Following reciprocal coordinates:
            Coordinates               Weight
  0.250000  0.250000  0.250000      2.000000
 -0.250000  0.250000  0.250000      2.000000
  0.250000 -0.250000  0.250000      2.000000
 -0.250000 -0.250000  0.250000      2.000000
 
 Following cartesian coordinates:
            Coordinates               Weight
  0.016206  0.016206  0.016206      2.000000
 -0.016206  0.016206  0.016206      2.000000
  0.016206 -0.016206  0.016206      2.000000
 -0.016206 -0.016206  0.016206      2.000000
 


--------------------------------------------------------------------------------------------------------




 Dimension of arrays:
   k-points           NKPTS =      4   k-points in BZ     NKDIM =      4   number of bands    NBANDS=   1164
   number of dos      NEDOS =   3001   number of ions     NIONS =    257
   non local maximal  LDIM  =      6   non local SUM 2l+1 LMDIM =     18
   total plane-waves  NPLWV = ******
   max r-space proj   IRMAX =   7595   max aug-charges    IRDMAX= 146383
   dimension x,y,z NGX =   120 NGY =  120 NGZ =  120
   dimension x,y,z NGXF=   240 NGYF=  240 NGZF=  240
   support grid    NGXF=   480 NGYF=  480 NGZF=  480
   ions per type =               1  64  64 128
   NGX,Y,Z   is equivalent  to a cutoff of  12.93, 12.93, 12.93 a.u.
   NGXF,Y,Z  is equivalent  to a cutoff of  25.86, 25.86, 25.86 a.u.

 SYSTEM =  LTO                                     
 POSCAR =  config 41                               

 Startparameter for this run:
   NWRITE =      2    write-flag & timer
   PREC   = accura    normal or accurate (medium, high low for compatibility)
   ISTART =      1    job   : 0-new  1-cont  2-samecut
   ICHARG =      0    charge: 1-file 2-atom 10-const
   ISPIN  =      2    spin polarized calculation?
   LNONCOLLINEAR =      F non collinear calculations
   LSORBIT =      F    spin-orbit coupling
   INIWAV =      1    electr: 0-lowe 1-rand  2-diag
   LASPH  =      T    aspherical Exc in radial PAW
   METAGGA=      F    non-selfconsistent MetaGGA calc.

 Electronic Relaxation 1
   ENCUT  =  500.0 eV  36.75 Ry    6.06 a.u.  28.13 28.13 28.13*2*pi/ulx,y,z
   ENINI  =  500.0     initial cutoff
   ENAUG  =  628.9 eV  augmentation charge cutoff
   NELM   =     60;   NELMIN=  2; NELMDL=  0     # of ELM steps 
   EDIFF  = 0.1E-05   stopping-criterion for ELM
   LREAL  =      T    real-space projection
   NLSPLINE    = F    spline interpolate recip. space projectors
   LCOMPAT=      F    compatible to vasp.4.4
   GGA_COMPAT  = T    GGA compatible to vasp.4.4-vasp.4.6
   LMAXPAW     = -100 max onsite density
   LMAXMIX     =    4 max onsite mixed and CHGCAR
   VOSKOWN=      0    Vosko Wilk Nusair interpolation
   ROPT   =   -0.00010  -0.00010  -0.00010  -0.00010
 Ionic relaxation
   EDIFFG = -.5E-01   stopping-criterion for IOM
   NSW    =    100    number of steps for IOM
   NBLOCK =      1;   KBLOCK =    100    inner block; outer block 
   IBRION =      1    ionic relax: 0-MD 1-quasi-New 2-CG
   NFREE  =      0    steps in history (QN), initial steepest desc. (CG)
   ISIF   =      2    stress and relaxation
   IWAVPR =     11    prediction:  0-non 1-charg 2-wave 3-comb
   ISYM   =      0    0-nonsym 1-usesym 2-fastsym
   LCORR  =      T    Harris-Foulkes like correction to forces

   POTIM  = 0.5000    time-step for ionic-motion
   TEIN   =    0.0    initial temperature
   TEBEG  =    0.0;   TEEND  =   0.0 temperature during run
   SMASS  =  -3.00    Nose mass-parameter (am)
   estimated Nose-frequenzy (Omega)   =  0.10E-29 period in steps =****** mass=  -0.544E-26a.u.
   SCALEE = 1.0000    scale energy and forces
   NPACO  =    256;   APACO  = 16.0  distance and # of slots for P.C.
   PSTRESS=    0.0 pullay stress

  Mass of Ions in am
   POMASS =   7.01 47.88 16.00 19.00
  Ionic Valenz
   ZVAL   =   3.00 10.00  6.00  7.00
  Atomic Wigner-Seitz radii
   RWIGS  =  -1.00 -1.00 -1.00 -1.00
  virtual crystal weights 
   VCA    =   1.00  1.00  1.00  1.00
   NELECT =    1923.0000    total number of electrons
   NUPDOWN=       1.0000    fix difference up-down

 DOS related values:
   EMIN   =  10.00;   EMAX   =-10.00  energy-range for DOS
   EFERMI =   0.00
   ISMEAR =     0;   SIGMA  =   0.01  broadening in eV -4-tet -1-fermi 0-gaus

 Electronic relaxation 2 (details)
   IALGO  =     38    algorithm
   LDIAG  =      T    sub-space diagonalisation (order eigenvalues)
   LSUBROT=      F    optimize rotation matrix (better conditioning)
   TURBO    =      0    0=normal 1=particle mesh
   IRESTART =      0    0=no restart 2=restart with 2 vectors
   NREBOOT  =      0    no. of reboots
   NMIN     =      0    reboot dimension
   EREF     =   0.00    reference energy to select bands
   IMIX   =      4    mixing-type and parameters
     AMIX     =   0.40;   BMIX     =  1.00
     AMIX_MAG =   1.60;   BMIX_MAG =  1.00
     AMIN     =   0.10
     WC   =   100.;   INIMIX=   1;  MIXPRE=   1;  MAXMIX= -45

 Intra band minimization:
   WEIMIN = 0.0010     energy-eigenvalue tresh-hold
   EBREAK =  0.21E-09  absolut break condition
   DEPER  =   0.30     relativ break condition  

   TIME   =   0.40     timestep for ELM

  volume/ion in A,a.u.               =      14.28        96.39
  Fermi-wavevector in a.u.,A,eV,Ry     =   1.319690  2.493853 23.695660  1.741582
  Thomas-Fermi vector in A             =   2.449570
 
 Write flags
   LWAVE        =      T    write WAVECAR
   LDOWNSAMPLE  =      F    k-point downsampling of WAVECAR
   LCHARG       =      T    write CHGCAR
   LVTOT        =      F    write LOCPOT, total local potential
   LVHAR        =      F    write LOCPOT, Hartree potential only
   LELF         =      F    write electronic localiz. function (ELF)
   LORBIT       =     11    0 simple, 1 ext, 2 COOP (PROOUT), +10 PAW based schemes


 Dipole corrections
   LMONO  =      F    monopole corrections only (constant potential shift)
   LDIPOL =      F    correct potential (dipole corrections)
   IDIPOL =      0    1-x, 2-y, 3-z, 4-all directions 
   EPSILON=  1.0000000 bulk dielectric constant

 LDA+U is selected, type is set to LDAUTYPE =  2
   angular momentum for each species LDAUL =    -1    2   -1   -1
   U (eV)           for each species LDAUU =   0.0  4.2  0.0  0.0
   J (eV)           for each species LDAUJ =   0.0  0.0  0.0  0.0
 Exchange correlation treatment:
   GGA     =    PS    GGA type
   LEXCH   =    14    internal setting for exchange type
   VOSKOWN=      0    Vosko Wilk Nusair interpolation
   LHFCALC =     F    Hartree Fock is set to
   LHFONE  =     F    Hartree Fock one center treatment
   AEXX    =    0.0000 exact exchange contribution

 Linear response parameters
   LEPSILON=     F    determine dielectric tensor
   LRPA    =     F    only Hartree local field effects (RPA)
   LNABLA  =     F    use nabla operator in PAW spheres
   LVEL    =     F    velocity operator in full k-point grid
   LINTERFAST=   F  fast interpolation
   KINTER  =     0    interpolate to denser k-point grid
   CSHIFT  =0.1000    complex shift for real part using Kramers Kronig
   OMEGAMAX=  -1.0    maximum frequency
   DEG_THRESHOLD= 0.2000000E-02 threshold for treating states as degnerate
   RTIME   =   -0.100 relaxation time in fs
  (WPLASMAI=    0.000 imaginary part of plasma frequency in eV, 0.658/RTIME)
   DFIELD  = 0.0000000 0.0000000 0.0000000 field for delta impulse in time
 
 Orbital magnetization related:
   ORBITALMAG=     F  switch on orbital magnetization
   LCHIMAG   =     F  perturbation theory with respect to B field
   DQ        =  0.001000  dq finite difference perturbation B field
   LLRAUG    =     F  two centre corrections for induced B field



--------------------------------------------------------------------------------------------------------


 quasi-Newton-method for relaxation of ions
 charge density and potential will be updated during run
 spin polarized calculation
 Variant of blocked Davidson
 Davidson routine will perform the subspace rotation
 perform sub-space diagonalisation
    after iterative eigenvector-optimisation
 modified Broyden-mixing scheme, WC =      100.0
 initial mixing is a Kerker type mixing with AMIX =  0.4000 and BMIX =      1.0000
 Hartree-type preconditioning will be used
 using additional bands          202
 real space projection scheme for non local part
 use partial core corrections
 calculate Harris-corrections to forces 
   (improved forces if not selfconsistent)
 use gradient corrections 
 use of overlap-Matrix (Vanderbilt PP)
 Gauss-broadening in eV      SIGMA  =   0.01


--------------------------------------------------------------------------------------------------------


  energy-cutoff  :      500.00
  volume of cell :     3671.03
      direct lattice vectors                 reciprocal lattice vectors
    15.426331000  0.000000000  0.000000000     0.064824228  0.000000000  0.000000000
     0.000000000 15.426331000  0.000000000     0.000000000  0.064824228  0.000000000
     0.000000000  0.000000000 15.426331000     0.000000000  0.000000000  0.064824228

  length of vectors
    15.426331000 15.426331000 15.426331000     0.064824228  0.064824228  0.064824228


 
 old parameters found on file WAVECAR:
  energy-cutoff  :      500.00
  volume of cell :     3671.03
      direct lattice vectors                 reciprocal lattice vectors
    15.426331000  0.000000000  0.000000000     0.064824228  0.000000000  0.000000000
     0.000000000 15.426331000  0.000000000     0.000000000  0.064824228  0.000000000
     0.000000000  0.000000000 15.426331000     0.000000000  0.000000000  0.064824228

  length of vectors

 
 k-points in units of 2pi/SCALE and weight: Title                                   
   0.01620606  0.01620606  0.01620606       0.250
  -0.01620606  0.01620606  0.01620606       0.250
   0.01620606 -0.01620606  0.01620606       0.250
  -0.01620606 -0.01620606  0.01620606       0.250
 
 k-points in reciprocal lattice and weights: Title                                   
   0.25000000  0.25000000  0.25000000       0.250
  -0.25000000  0.25000000  0.25000000       0.250
   0.25000000 -0.25000000  0.25000000       0.250
  -0.25000000 -0.25000000  0.25000000       0.250
 
 position of ions in fractional coordinates (direct lattice) 
   0.59009145  0.61788517  0.09184338
   0.99574476  0.99403016  0.99479714
   0.99851623  0.99163781  0.49379405
   0.00653196  0.49601127  0.99751226
   0.99476103  0.50384128  0.50704837
   0.49488123  0.99473077  0.00077216
   0.50200241  0.00893040  0.49853265
   0.50346312  0.49136957  0.99283179
   0.49271352  0.49864053  0.49533166
   0.00672242  0.00379217  0.25602476
   0.00206671  0.00747183  0.75700718
   0.99535992  0.49231418  0.25130158
   0.99314871  0.49977827  0.74183403
   0.50593146  0.00923944  0.25037498
   0.49341999  0.00574969  0.75346077
   0.49329222  0.49521664  0.25905805
   0.50196869  0.50402274  0.75662291
   0.99564975  0.25819768  0.00187279
   0.99848395  0.24820493  0.49120788
   0.99734786  0.75759820  0.00607165
   0.99554671  0.75686017  0.50616833
   0.49573911  0.25740564  0.00255892
   0.50941827  0.24582281  0.49774498
   0.50767464  0.75856332  0.99959817
   0.50679319  0.75345681  0.50849077
   0.99975088  0.25830577  0.25501272
   0.00702487  0.24283488  0.74761193
   0.00311030  0.74778872  0.24258457
   0.99153850  0.75006928  0.74417452
   0.50728188  0.24059922  0.25257994
   0.50742716  0.24375332  0.75143167
   0.50252379  0.75198245  0.25163124
   0.50119641  0.74168628  0.74229961
   0.25662725  0.99756749  0.00604574
   0.25168125  0.99344063  0.50634163
   0.24401918  0.50896767  0.99778132
   0.25556911  0.49436091  0.50650165
   0.75680047  0.99903659  0.99438722
   0.74967156  0.00741985  0.49470169
   0.74229402  0.50105816  0.00529040
   0.75619676  0.49860842  0.50565715
   0.24492684  0.00315518  0.24382247
   0.25864584  0.99799837  0.74449306
   0.25578577  0.49141137  0.25165685
   0.24716477  0.50566319  0.74088149
   0.74438870  0.00181826  0.25569345
   0.74774339  0.00666278  0.75629831
   0.75791089  0.49808790  0.24396853
   0.75797116  0.49828105  0.74260121
   0.25703835  0.25236745  0.00637369
   0.25418516  0.25669554  0.50514756
   0.25134637  0.74215074  0.99404900
   0.25183889  0.75500377  0.49300447
   0.75671713  0.25191863  0.00819910
   0.74221559  0.24304175  0.49756131
   0.74039964  0.74880535  0.99426563
   0.74086941  0.75324621  0.49343504
   0.25036995  0.25817680  0.24391822
   0.24436298  0.25192060  0.74396973
   0.24079790  0.74724159  0.25538131
   0.24694425  0.74150771  0.75691975
   0.74107607  0.25015346  0.24318260
   0.74461520  0.24261671  0.75121802
   0.74122183  0.74952023  0.25459251
   0.75627301  0.75011841  0.75684339
   0.00923635  0.50316312  0.62467110
   0.99699022  0.00596476  0.37631272
   0.00239975  0.00179234  0.87318356
   0.49947345  0.48213708  0.37629518
   0.49574719  0.48642388  0.87388869
   0.98978558  0.74439353  0.12509617
   0.99243157  0.74446775  0.62498198
   0.48970356  0.74327103  0.62530910
   0.99032620  0.24760750  0.37631051
   0.25711155  0.00187248  0.12513625
   0.25888164  0.00346468  0.62540157
   0.23885221  0.49262447  0.62570032
   0.75063357  0.49352376  0.12551711
   0.74689813  0.49178616  0.62438522
   0.74928960  0.00066937  0.37639471
   0.74309646  0.99924973  0.87392719
   0.24202702  0.25139443  0.12550621
   0.25013402  0.25108488  0.62498798
   0.73775415  0.25876678  0.12656290
   0.24591381  0.74462204  0.37509932
   0.24221527  0.75049689  0.87597438
   0.74155343  0.75242095  0.37537089
   0.73632054  0.75120403  0.87594112
   0.12484221  0.51289949  0.99351735
   0.62543495  0.52132854  0.00408560
   0.12536628  0.01083893  0.25005770
   0.62522596  0.01329537  0.24874586
   0.62478121  0.26436296  0.49019647
   0.62435097  0.72657168  0.01753109
   0.62403642  0.76849090  0.50960568
   0.12511799  0.25389924  0.75286430
   0.12308523  0.74410584  0.24471306
   0.62553607  0.23667415  0.26538623
   0.62608741  0.25549925  0.75174549
   0.62670144  0.73946769  0.23611647
   0.37708371  0.99074437  0.99101824
   0.37640845  0.51061156  0.50497606
   0.87261649  0.99038864  0.99804525
   0.87585478  0.50988964  0.49997299
   0.37676099  0.99849174  0.76119811
   0.37443486  0.48720593  0.24619594
   0.87666802  0.48647235  0.25247461
   0.87564626  0.51183108  0.74623204
   0.37663249  0.25668649  0.00816702
   0.87396260  0.25946911  0.00937717
   0.87391463  0.74112985  0.75992476
   0.51735938  0.12292856  0.48678837
   0.99890935  0.12615409  0.74426988
   0.48706779  0.12620279  0.27055571
   0.50402314  0.12433778  0.75883810
   0.50467370  0.62393201  0.75796655
   0.00922650  0.37577251  0.00539483
   0.01057043  0.87427086  0.00277469
   0.98544636  0.87500088  0.49915222
   0.51333090  0.37325327  0.01603164
   0.51388369  0.87536953  0.01350935
   0.01551620  0.37346612  0.24638830
   0.26523402  0.62506331  0.00396985
   0.73379048  0.12556093  0.50477704
   0.24519473  0.62423686  0.74855818
   0.74912701  0.12500472  0.74388951
   0.25970495  0.37312738  0.49207401
   0.26075558  0.87574952  0.49875319
   0.23527954  0.37435377  0.25878846
   0.99834460  0.00371896  0.12648698
   0.00193594  0.99733226  0.62389400
   0.99992799  0.51025456  0.12499467
   0.49073005  0.02109830  0.12569446
   0.49379834  0.00812657  0.62329520
   0.50779851  0.52267196  0.12686443
   0.51024801  0.50636054  0.62454053
   0.00374746  0.49477407  0.37596574
   0.99444540  0.49577500  0.87306078
   0.50665290  0.98151537  0.37677012
   0.51878148  0.98931649  0.87593677
   0.01155863  0.24402898  0.12719408
   0.00410229  0.25836254  0.62137443
   0.51153479  0.22885594  0.12694554
   0.50252888  0.23673190  0.62268404
   0.48807270  0.72891610  0.12115112
   0.99169309  0.25162659  0.87446145
   0.00150140  0.75124629  0.37591040
   0.00894022  0.75118820  0.87426601
   0.48857365  0.27106095  0.37557473
   0.49667996  0.26423187  0.87523024
   0.50143463  0.76732420  0.38130967
   0.51249932  0.75968989  0.87460189
   0.24308182  0.49175074  0.12442850
   0.75093893  0.00309121  0.12623667
   0.74922880  0.99485982  0.62336963
   0.25017699  0.00311472  0.37557560
   0.24099498  0.99475150  0.87485120
   0.25045803  0.51362250  0.37482846
   0.26222216  0.49991543  0.87415787
   0.74652518  0.50723275  0.37471720
   0.75083556  0.50593381  0.87490027
   0.25664082  0.75629092  0.12455385
   0.25656526  0.75186339  0.62593703
   0.74746327  0.26275199  0.62303787
   0.76427008  0.74837801  0.12396633
   0.75777127  0.74865511  0.62543021
   0.25760875  0.24199226  0.37397300
   0.25592212  0.25061503  0.87566792
   0.76655619  0.24247741  0.37436099
   0.75681024  0.24464433  0.87644509
   0.12649366  0.01005926  0.00432949
   0.12498246  0.99278276  0.50109586
   0.12421085  0.49227662  0.49121680
   0.62468824  0.01221267  0.01036569
   0.62392465  0.97833547  0.50547444
   0.62613060  0.48591232  0.49760909
   0.12734342  0.99824298  0.74450484
   0.12439203  0.51368013  0.24958567
   0.12387614  0.49004004  0.76413452
   0.62365396  0.99334431  0.73783475
   0.62614691  0.50943776  0.24824283
   0.62701244  0.48870956  0.75517404
   0.12498912  0.24212245  0.99113345
   0.12392469  0.25541730  0.49329131
   0.12441328  0.73429958  0.00862722
   0.12361511  0.76025178  0.50541989
   0.62602893  0.23890196  0.99075134
   0.12441016  0.23085355  0.26055247
   0.12303937  0.75645732  0.74261120
   0.62603448  0.75620717  0.73791773
   0.37818263  0.01662764  0.49091845
   0.37525285  0.48740061  0.00983535
   0.87447502  0.01839918  0.50705865
   0.87395200  0.48840792  0.99903642
   0.37671773  0.99103149  0.25827485
   0.37553935  0.50130152  0.73919369
   0.87377360  0.99239619  0.24821049
   0.87424466  0.99596362  0.74591473
   0.37958311  0.23391846  0.50072485
   0.37721892  0.76488066  0.99141654
   0.37643020  0.73585923  0.49477208
   0.87448864  0.23959353  0.50992250
   0.87125232  0.76480437  0.98844085
   0.87203982  0.73390897  0.49511057
   0.37796022  0.26502966  0.24158523
   0.37687286  0.24730157  0.74889344
   0.37322000  0.75661930  0.25276348
   0.37517378  0.75175535  0.76134291
   0.87427918  0.26538730  0.24021671
   0.87464163  0.25180031  0.74299691
   0.87412824  0.75706184  0.25789748
   0.99391792  0.12705186  0.00048892
   0.00879993  0.12592311  0.50893007
   0.98446985  0.62477685  0.99252181
   0.01168508  0.62675027  0.49186107
   0.49562393  0.12478368  0.98628516
   0.48767009  0.62527505  0.99186260
   0.51544533  0.62597809  0.48964582
   0.98404258  0.12803230  0.24668446
   0.98979952  0.62258722  0.25851422
   0.01426745  0.62446868  0.75712417
   0.49272736  0.62065206  0.26775398
   0.99249464  0.37412660  0.49913079
   0.48650266  0.37092835  0.51641973
   0.48132767  0.87975530  0.51089518
   0.99260512  0.37494269  0.74943948
   0.00355281  0.87648416  0.24987627
   0.99707422  0.87519537  0.74754942
   0.51356916  0.37175092  0.23182235
   0.49456737  0.37292675  0.73542162
   0.50591055  0.88281749  0.23272332
   0.50038457  0.87515274  0.74547159
   0.25657221  0.12478218  0.99428662
   0.24105216  0.12453839  0.49801515
   0.23866904  0.62624157  0.50750957
   0.75664645  0.12602028  0.00378899
   0.77036069  0.62547346  0.00268389
   0.73478961  0.62527860  0.50344538
   0.26633259  0.12697131  0.25092561
   0.24965502  0.12468137  0.75749016
   0.25800944  0.62328697  0.23902839
   0.76858589  0.12686837  0.24643608
   0.76223972  0.62407530  0.24678593
   0.73574363  0.62429124  0.74698225
   0.24064982  0.37649839  0.99534306
   0.23713122  0.87359828  0.00283868
   0.73406474  0.37554782  0.98816992
   0.76409176  0.37268019  0.48835904
   0.73071798  0.87426782  0.00755928
   0.76880435  0.87695409  0.50250310
   0.25753489  0.37594534  0.75807045
   0.24479907  0.87600243  0.25305937
   0.24944910  0.87336742  0.74695893
   0.73715799  0.37424779  0.26528893
   0.75936690  0.37418943  0.76015838
   0.74360284  0.87647602  0.24362851
   0.75298392  0.87485071  0.74627806
 
 position of ions in cartesian coordinates  (Angst):
   9.10294597  9.53170114  1.41680635
  15.36068829 15.33423825 15.34607002
  15.40344180 15.29733306  7.61743050
   0.10076423  7.65163404 15.38795434
  15.34551296  7.77242234  7.82189595
   7.63420162 15.34504605  0.01191154
   7.74405536  0.13776329  7.69052965
   7.76658877  7.58002968 15.31575175
   7.60076181  7.69219392  7.64115011
   0.10370232  0.05849926  3.94952271
   0.03188175  0.11526289 11.67784326
  15.35475163  7.59460144  3.87666131
  15.32064080  7.70974502 11.44377728
   7.80466616  0.14253062  3.86236733
   7.61166004  0.08869669 11.62313520
   7.60968908  7.63937575  3.99631520
   7.74353510  7.77522169 11.67191538
  15.35922253  3.98304292  0.02889033
  15.40294386  3.82889146  7.57753532
  15.38541821 11.68696060  0.09366331
  15.35763310 11.67557543  7.80832023
   7.64743554  3.97082465  0.03947480
   7.85845485  3.79214403  7.67837883
   7.83155708 11.70184883 15.42013229
   7.81795950 11.62307421  7.84414687
  15.42248795  3.98471023  3.93391064
   0.10836793  3.74605126 11.53290913
   0.04798059 11.53563628  3.74218990
  15.29580114 11.57081693 11.47988253
   7.82549819  3.71156319  3.89638181
   7.82773930  3.76021944 11.59183370
   7.75209832 11.60033025  3.88174672
   7.73162169 11.44149798 11.45095954
   3.95881687 15.38880628  0.09326362
   3.88251825 15.32514391  7.81099362
   3.76432062  7.85150370 15.39210487
   3.94249361  7.62617507  7.81346203
  11.67465450 15.41146913 15.33974642
  11.56468169  0.11446113  7.63143196
  11.45087333  7.72948909  0.08161142
  11.66534152  7.69169848  7.80043455
   3.77832254  0.04867282  3.76128608
   3.98995640 15.39545322 11.48479631
   3.94583591  7.58067441  3.88214184
   3.81284557  7.80052775 11.42908309
  11.48318654  0.02804908  3.94441172
  11.53493699  0.10278229 11.66690803
  11.69178422  7.68366888  3.76353932
  11.69271393  7.68664835 11.45561211
   3.96515873  3.89310385  0.09832258
   3.92114444  3.95987031  7.79257346
   3.87735232 11.44866303 15.33452895
   3.88495014 11.64693800  7.60525012
  11.67336897  3.88618025  0.12648198
  11.44966338  3.74924248  7.67554548
  11.42164990 11.55131923 15.33787066
  11.42889680 11.61982532  7.61189226
   3.86228965  3.98272071  3.76276327
   3.76962414  3.88621049 11.47672336
   3.71462807 11.52719612  3.93959664
   3.80944374 11.43874343 11.67649461
  11.43208469  3.85895001  3.75141524
  11.48668052  3.74268574 11.58853776
  11.43433329 11.56234714  3.92742828
  11.66651786 11.57157482 11.67531658
   0.14248298  7.76196078  9.63638310
  15.37990113  0.09201440  5.80512463
   0.03701935  0.02764918 13.47001861
   7.70504273  7.43760617  5.80485405
   7.64756024  7.50373585 13.48089616
  15.26875996 11.48326095  1.92977492
  15.30957782 11.48440597  9.64117889
   7.55432913 11.46594494  9.64622520
  15.27709971  3.81967532  5.80509049
   3.96628780  0.02888551  1.93039315
   3.99359385  0.05344733  9.64765168
   3.68461330  7.59938808  9.65226029
  11.57952185  7.61326081  1.93626843
  11.52189772  7.58645605  9.63197306
  11.55878941  0.01032587  5.80638939
  11.46325191 15.41475702 13.48149013
   3.73358900  3.87809366  1.93610035
   3.85865026  3.87331850  9.64127141
  11.38083971  3.99182204  1.95240119
   3.79354786 11.48678608  5.78640623
   3.73649289 11.57741345 13.51307066
  11.43944867 11.60709462  5.79059561
  11.35872443 11.58832206 13.51255766
   1.92585718  7.91215736 15.32632751
   9.64816650  8.04218664  0.06302574
   1.93394180  0.16720498  3.85747281
   9.64494261  0.20509885  3.83723596
   9.63808177  4.07815046  7.56193293
   9.63144466 11.20833523  0.27044041
   9.62659239 11.85499504  7.86134595
   1.93011160  3.91673365 11.61393383
   1.89875345 11.47882301  3.77502472
   9.64972644  3.65101381  4.09393587
   9.65823163  3.94141600 11.59667469
   9.66770380 11.40727339  3.64241087
   5.81701810 15.28355063 15.28777543
   5.80660129  7.87686301  7.78992791
  13.46127085 15.27806300 15.39617633
  13.51122581  7.86572637  7.71274888
   5.81203975 15.40306413 11.74249406
   5.77615612  7.51579991  3.79790009
  13.52377109  7.50448345  3.89475695
  13.50800898  7.89567558 11.51162243
   5.81005753  3.95973071  0.12598717
  13.48203631  4.00265644  0.14465532
  13.48129640 11.43291437 11.72285093
   7.98095700  1.89633659  7.50935852
  15.40950631  1.94609476 11.48135349
   7.51366890  1.94684597  4.17368194
   7.77522785  1.91807568 11.70608774
   7.78526357  9.62498170 11.69264287
   0.14233102  5.79679109  0.08322241
   0.16306300 13.48679169  0.04280333
  15.20182180 13.49805320  7.70008737
   7.91881237  5.75792857  0.24730932
   7.92733994 13.50374009  0.20839964
   0.23935804  5.76121195  3.80086740
   4.09158776  9.64243348  0.06124026
  11.31969483  1.93694451  7.78685764
   3.78245509  9.62968449 11.54750621
  11.55628122  1.92836416 11.47548574
   4.00629453  5.75598640  7.59089652
   4.02250188 13.50960202  7.69393187
   3.62950005  5.77490522  3.99215647
  15.40079422  0.05736989  1.95122999
   0.02986446 15.38517763  9.62439534
  15.42522022  7.87135573  1.92820915
   7.57016416  0.32546930  1.93900433
   7.61749667  0.12536318  9.61515806
   7.83346791  8.06291070  1.95705276
   7.87125474  7.81128531  9.63436895
   0.05780948  7.63254852  5.79977197
  15.34064388  7.64798933 13.46812450
   7.81579529 15.14118091  5.81218059
   8.00289483 15.26152366 13.51249056
   0.17830727  3.76447179  1.96213804
   0.06328328  3.98558613  9.58552770
   7.89110496  3.53040745  1.95830393
   7.75217681  3.65190464  9.60573015
   7.52917098 11.24450098  1.86891729
  15.29818582  3.88167509 13.48973174
   0.02316106 11.58897393  5.79891826
   0.13791476 11.58807779 13.48671688
   7.53689882  4.18147595  5.79374006
   7.66194944  4.07612826 13.50159143
   7.73529654 11.83699703  5.88220917
   7.90598421 11.71922767 13.49189828
   3.74986054  7.58590962  1.91947516
  11.58423243  0.04768600  1.94736865
  11.55785146 15.34703682  9.61630632
   3.85931306  0.04804872  5.79375351
   3.71766826 15.34536587 13.49574419
   3.86364840  7.92331064  5.78222782
   4.04512591  7.71186085 13.48504860
  11.51614452  7.82474030  5.78051154
  11.58263790  7.80470241 13.49650111
   3.95902622 11.66679412  1.92140888
   3.95786068 11.59849345  9.65591188
  11.53061581  4.05329918  9.61118841
  11.78988315 11.54472688  1.91234569
  11.68963048 11.54900154  9.64809348
   3.97395787  3.73305273  5.76903123
   3.94793934  3.86607037 13.50834319
  11.82514959  3.74053683  5.77501655
  11.67480519  3.77396442 13.52033207
   1.95133299  0.15517752  0.06678819
   1.92802075 15.31499540  7.73007063
   1.91611773  7.59402205  7.57767289
   9.63664761  0.18839667  0.15990455
   9.62486824 15.09212686  7.79761607
   9.65889795  7.49584428  7.67628252
   1.96444172 15.39922664 11.48497816
   1.91891262  7.92419970  3.85019118
   1.91095439  7.55951989 11.78779205
   9.62069245 15.32365816 11.38208314
   9.65914942  7.85875549  3.82947601
   9.67250144  7.53899546 11.64956468
   1.92812360  3.73506113 15.28955273
   1.91170334  3.94015189  7.60967506
   1.91924048 11.32754843  0.13308642
   1.90692757 11.72789564  7.79677451
   9.65732948  3.68538077 15.28365814
   1.91919238  3.56122323  4.01936861
   1.89804610 11.66936104 11.45576613
   9.65741503 11.66550217 11.38336317
   5.83397046  0.25650349  7.57307044
   5.78877465  7.51880321  0.15172344
  13.48994106  0.28383180  7.82205453
  13.48187288  7.53434221 15.41146654
   5.81137233 15.28797975  3.98423332
   5.79319436  7.73324324 11.40304660
  13.47912077 15.30903211  3.82897725
  13.48638754 15.36406449 11.50672756
   5.85557469  3.60850365  7.72434724
   5.81910397 11.79930231 15.29391970
   5.80693682 11.35160812  7.63251783
  13.49015120  3.69604914  7.86623322
  13.44022666 11.79812537 15.24801577
  13.45237485 11.32152269  7.63773959
   5.83053943  4.08843533  3.72677378
   5.81376552  3.81495583 11.55267810
   5.75741531 11.67185982  3.89921309
   5.78755488 11.59682680 11.74472779
  13.48692008  4.09395234  3.70566253
  13.49251129  3.88435498 11.46171631
  13.48459152 11.67868659  3.97841195
  15.33250687  1.95994404  0.00754219
   0.13575063  1.94253164  7.85092368
  15.18675776  9.63801453 15.31096993
   0.18025797  9.66845714  7.58761170
   7.64565874  1.92495429 15.21476127
   7.52296022  9.64569990 15.30080084
   7.95143029  9.65654519  7.55343842
  15.18016657  1.97506865  3.80543607
  15.26897508  9.60423649  3.98792600
   0.22009433  9.63326054 11.67964803
   7.60097534  9.57438418  4.13046151
  15.31055089  5.77140079  7.69975675
   7.50495101  5.72206349  7.96646166
   7.42511993 13.57139651  7.88123822
  15.31225510  5.78399008 11.56110142
   0.05480686 13.52093484  3.85467413
  15.38119689 13.50105348 11.53194484
   7.92248788  5.73475267  3.57616838
   7.62935991  5.75289154 11.34485740
   7.80434356 13.61863485  3.59006690
   7.71909799 13.50039588 11.49989143
   3.95796785  1.92493114 15.33819450
   3.71855040  1.92117036  7.68254650
   3.68178756  9.66060971  7.82901065
  11.67227864  1.94403049  0.05845021
  11.88383904  9.64876059  0.04140251
  11.33510768  9.64575467  7.76631506
   4.10853470  1.95870147  3.87086146
   3.85126091  1.92337608 11.68529401
   3.98013905  9.61503111  3.68733104
  11.85646034  1.95711349  3.80160457
  11.75856224  9.62719211  3.80700145
  11.34982480  9.63052333 11.52319546
   3.71234383  5.80798874 15.35449144
   3.65806465 13.47641619  0.04379038
  11.32392561  5.79332493 15.24383631
  11.78713248  5.74908801  7.53358827
  11.27229750 13.48674478  0.11661189
  11.85983044 13.52818403  7.75177919
   3.97281848  5.79945720 11.69424573
   3.77635141 13.51350344  3.90377764
   3.84808444 13.47285493 11.52283574
  11.37164315  5.77327026  4.09243480
  11.71424512  5.77236998 11.72645479
  11.47106348 13.52080913  3.75829405
  11.61577925 13.49573670 11.51233236
 


--------------------------------------------------------------------------------------------------------


 k-point  1 :   0.2500 0.2500 0.2500  plane waves:   93161
 k-point  2 :  -0.2500 0.2500 0.2500  plane waves:   93161
 k-point  3 :   0.2500-0.2500 0.2500  plane waves:   93161
 k-point  4 :  -0.2500-0.2500 0.2500  plane waves:   93161

 maximum and minimum number of plane-waves per node :     11686    11606

 maximum number of plane-waves:     93161
 maximum index in each direction: 
   IXMAX=   28   IYMAX=   28   IZMAX=   27
   IXMIN=  -28   IYMIN=  -28   IZMIN=  -28


 real space projection operators:
  total allocation   :     105577.32 KBytes
  max/ min on nodes  :      13238.79      13162.70


 parallel 3D FFT for wavefunctions:
    minimum data exchange during FFTs selected (reduces bandwidth)
 parallel 3D FFT for charge:
    minimum data exchange during FFTs selected (reduces bandwidth)


 total amount of memory used by VASP MPI-rank0   291484. kBytes
=======================================================================

   base      :      30000. kBytes
   nonlr-proj:      49449. kBytes
   fftplans  :      27976. kBytes
   grid      :      34041. kBytes
   one-center:       1026. kBytes
   wavefun   :     148992. kBytes
 
     INWAV:  cpu time   52.7380: real time   53.0432
 Broyden mixing: mesh for mixing (old mesh)
   NGX = 57   NGY = 57   NGZ = 57
  (NGX  =240   NGY  =240   NGZ  =240)
  gives a total of 185193 points

 charge density for first step will be calculated from the start-wavefunctions


--------------------------------------------------------------------------------------------------------


 Maximum index for non-local projection operator          971
 Maximum index for augmentation-charges         3297 (set IRDMAX)


--------------------------------------------------------------------------------------------------------


 initial charge from wavefunction
 First call to EWALD:  gamma=   0.115
 Maximum number of real-space cells 3x 3x 3
 Maximum number of reciprocal cells 3x 3x 3

    FEWALD:  cpu time    0.0167: real time    0.0173


--------------------------------------- Iteration      1(   1)  ---------------------------------------


    POTLOK:  cpu time    0.2756: real time    0.2939
    SETDIJ:  cpu time    1.1871: real time    1.3876
     EDDAV:  cpu time  130.8209: real time  131.5532
       DOS:  cpu time    0.0033: real time    0.0106
    CHARGE:  cpu time    5.3114: real time    5.3575
    MIXING:  cpu time    0.0562: real time    0.0626
    --------------------------------------------
      LOOP:  cpu time  137.6545: real time  138.6655

 eigenvalue-minimisations  : 23112
 total energy-change (2. order) :-0.1848774E+04  (-0.3564458E+03)
 number of electron    1923.0000027 magnetization       1.0000000
 augmentation part      504.3727514 magnetization       0.5849069

 Broyden mixing:
  rms(total) = 0.81743E+01    rms(broyden)= 0.81713E+01
  rms(prec ) = 0.12540E+02
  weight for this iteration     100.00

 Free energy of the ion-electron system (eV)
  ---------------------------------------------------
  alpha Z        PSCENC =      6118.73324990
  Ewald energy   TEWEN  =   -103839.99046984
  -Hartree energ DENC   =    -64796.63530830
  -exchange      EXHF   =         0.00000000
  -V(xc)+E(xc)   XCENC  =      8954.88115303
  PAW double counting   =    196719.09121175  -197712.40420451
  entropy T*S    EENTRO =        -0.00689538
  eigenvalues    EBANDS =    -25869.69561062
  atomic energy  EATOM  =    178577.25249613
  Solvation  Ediel_sol  =         0.00000000
  ---------------------------------------------------
  free energy    TOTEN  =     -1848.77437784 eV

  energy without entropy =    -1848.76748246  energy(sigma->0) =    -1848.77093015


--------------------------------------------------------------------------------------------------------




--------------------------------------- Iteration      1(   2)  ---------------------------------------


    POTLOK:  cpu time    0.4085: real time    0.4373
    SETDIJ:  cpu time    1.4889: real time    1.5128
     EDDAV:  cpu time  146.8102: real time  147.6542
       DOS:  cpu time    0.0029: real time    0.0029
    CHARGE:  cpu time    5.3130: real time    5.3174
    MIXING:  cpu time    0.0205: real time    0.0410
    --------------------------------------------
      LOOP:  cpu time  154.0440: real time  154.9657

 eigenvalue-minimisations  : 26940
 total energy-change (2. order) :-0.3919930E+02  (-0.3226335E+03)
 number of electron    1923.0000027 magnetization       1.0000000
 augmentation part      506.7413639 magnetization       0.3997835

 Broyden mixing:
  rms(total) = 0.10643E+02    rms(broyden)= 0.10639E+02
  rms(prec ) = 0.15659E+02
  weight for this iteration     100.00

 eigenvalues of (default mixing * dielectric matrix)
  average eigenvalue GAMMA=   0.3977
  0.3977

 Free energy of the ion-electron system (eV)
  ---------------------------------------------------
  alpha Z        PSCENC =      6118.73324990
  Ewald energy   TEWEN  =   -103839.99046984
  -Hartree energ DENC   =    -64885.99230313
  -exchange      EXHF   =         0.00000000
  -V(xc)+E(xc)   XCENC  =      8954.42826073
  PAW double counting   =    198344.55533358  -199311.61901275
  entropy T*S    EENTRO =        -0.00368009
  eigenvalues    EBANDS =    -25845.33755117
  atomic energy  EATOM  =    178577.25249613
  Solvation  Ediel_sol  =         0.00000000
  ---------------------------------------------------
  free energy    TOTEN  =     -1887.97367663 eV

  energy without entropy =    -1887.96999654  energy(sigma->0) =    -1887.97183658


--------------------------------------------------------------------------------------------------------




--------------------------------------- Iteration      1(   3)  ---------------------------------------


    POTLOK:  cpu time    0.2964: real time    0.2967
    SETDIJ:  cpu time    1.4397: real time    1.4407
     EDDAV:  cpu time  149.5144: real time  150.6218
       DOS:  cpu time    0.0018: real time    0.0018
    CHARGE:  cpu time    5.2691: real time    5.2729
    MIXING:  cpu time    0.0426: real time    0.0426
    --------------------------------------------
      LOOP:  cpu time  156.5641: real time  157.6765

 eigenvalue-minimisations  : 27720
 total energy-change (2. order) : 0.3028225E+02  (-0.1270427E+03)
 number of electron    1923.0000026 magnetization       1.0000000
 augmentation part      492.1961380 magnetization       0.5870801

 Broyden mixing:
  rms(total) = 0.57328E+01    rms(broyden)= 0.57304E+01
  rms(prec ) = 0.65865E+01
  weight for this iteration     100.00

 eigenvalues of (default mixing * dielectric matrix)
  average eigenvalue GAMMA=   0.4466
  0.4466  0.4466

 Free energy of the ion-electron system (eV)
  ---------------------------------------------------
  alpha Z        PSCENC =      6118.73324990
  Ewald energy   TEWEN  =   -103839.99046984
  -Hartree energ DENC   =    -64969.96261437
  -exchange      EXHF   =         0.00000000
  -V(xc)+E(xc)   XCENC  =      8956.87740376
  PAW double counting   =    198552.17845471  -199512.75998180
  entropy T*S    EENTRO =        -0.00000000
  eigenvalues    EBANDS =    -25740.01996446
  atomic energy  EATOM  =    178577.25249613
  Solvation  Ediel_sol  =         0.00000000
  ---------------------------------------------------
  free energy    TOTEN  =     -1857.69142597 eV

  energy without entropy =    -1857.69142597  energy(sigma->0) =    -1857.69142597


--------------------------------------------------------------------------------------------------------




--------------------------------------- Iteration      1(   4)  ---------------------------------------


    POTLOK:  cpu time    0.2683: real time    0.2709
    SETDIJ:  cpu time    1.4089: real time    1.4094
     EDDAV:  cpu time  142.3500: real time  142.9743
       DOS:  cpu time    0.0017: real time    0.0017
    CHARGE:  cpu time    5.3067: real time    5.3107
    MIXING:  cpu time    0.0079: real time    0.0082
    --------------------------------------------
      LOOP:  cpu time  149.3434: real time  149.9752

 eigenvalue-minimisations  : 25704
 total energy-change (2. order) : 0.4671364E+02  (-0.3203113E+02)
 number of electron    1923.0000026 magnetization       1.0000000
 augmentation part      493.4727783 magnetization       0.5974740

 Broyden mixing:
  rms(total) = 0.42575E+01    rms(broyden)= 0.42568E+01
  rms(prec ) = 0.49511E+01
  weight for this iteration     100.00

 eigenvalues of (default mixing * dielectric matrix)
  average eigenvalue GAMMA=   0.5845
  0.6542  0.6542  0.4451

 Free energy of the ion-electron system (eV)
  ---------------------------------------------------
  alpha Z        PSCENC =      6118.73324990
  Ewald energy   TEWEN  =   -103839.99046984
  -Hartree energ DENC   =    -64925.37870953
  -exchange      EXHF   =         0.00000000
  -V(xc)+E(xc)   XCENC  =      8962.55254960
  PAW double counting   =    198646.20742767  -199622.86180540
  entropy T*S    EENTRO =        -0.00000000
  eigenvalues    EBANDS =    -25727.49252684
  atomic energy  EATOM  =    178577.25249613
  Solvation  Ediel_sol  =         0.00000000
  ---------------------------------------------------
  free energy    TOTEN  =     -1810.97778831 eV

  energy without entropy =    -1810.97778831  energy(sigma->0) =    -1810.97778831


--------------------------------------------------------------------------------------------------------




--------------------------------------- Iteration      1(   5)  ---------------------------------------


    POTLOK:  cpu time    0.2637: real time    0.2658
    SETDIJ:  cpu time    1.3814: real time    1.3827
     EDDAV:  cpu time  147.1379: real time  147.9198
       DOS:  cpu time    0.0017: real time    0.0017
    CHARGE:  cpu time    5.3491: real time    5.3742
    MIXING:  cpu time    0.0094: real time    0.0094
    --------------------------------------------
      LOOP:  cpu time  154.1433: real time  154.9537

 eigenvalue-minimisations  : 26568
 total energy-change (2. order) : 0.3799511E+02  (-0.1129595E+02)
 number of electron    1923.0000026 magnetization       1.0000000
 augmentation part      494.1072542 magnetization       0.5892410

 Broyden mixing:
  rms(total) = 0.22405E+01    rms(broyden)= 0.22400E+01
  rms(prec ) = 0.26199E+01
  weight for this iteration     100.00

 eigenvalues of (default mixing * dielectric matrix)
  average eigenvalue GAMMA=   0.6811
  0.8702  0.8702  0.4919  0.4919

 Free energy of the ion-electron system (eV)
  ---------------------------------------------------
  alpha Z        PSCENC =      6118.73324990
  Ewald energy   TEWEN  =   -103839.99046984
  -Hartree energ DENC   =    -64931.48329918
  -exchange      EXHF   =         0.00000000
  -V(xc)+E(xc)   XCENC  =      8968.31966132
  PAW double counting   =    198115.50318060  -199107.51576608
  entropy T*S    EENTRO =        -0.00000000
  eigenvalues    EBANDS =    -25673.80173420
  atomic energy  EATOM  =    178577.25249613
  Solvation  Ediel_sol  =         0.00000000
  ---------------------------------------------------
  free energy    TOTEN  =     -1772.98268135 eV

  energy without entropy =    -1772.98268135  energy(sigma->0) =    -1772.98268135


--------------------------------------------------------------------------------------------------------




--------------------------------------- Iteration      1(   6)  ---------------------------------------


    POTLOK:  cpu time    0.2634: real time    0.2663
    SETDIJ:  cpu time    1.3807: real time    1.3811
     EDDAV:  cpu time  148.8852: real time  149.5393
       DOS:  cpu time    0.0018: real time    0.0018
    CHARGE:  cpu time    5.3051: real time    5.3091
    MIXING:  cpu time    0.0085: real time    0.0085
    --------------------------------------------
      LOOP:  cpu time  155.8448: real time  156.5060

 eigenvalue-minimisations  : 27120
 total energy-change (2. order) : 0.1187431E+02  (-0.5282219E+01)
 number of electron    1923.0000026 magnetization       1.0000000
 augmentation part      495.4596405 magnetization       0.5800478

 Broyden mixing:
  rms(total) = 0.14497E+01    rms(broyden)= 0.14494E+01
  rms(prec ) = 0.15606E+01
  weight for this iteration     100.00

 eigenvalues of (default mixing * dielectric matrix)
  average eigenvalue GAMMA=   0.7058
  0.9525  0.9525  0.4470  0.5886  0.5886

 Free energy of the ion-electron system (eV)
  ---------------------------------------------------
  alpha Z        PSCENC =      6118.73324990
  Ewald energy   TEWEN  =   -103839.99046984
  -Hartree energ DENC   =    -64869.31122112
  -exchange      EXHF   =         0.00000000
  -V(xc)+E(xc)   XCENC  =      8968.07245787
  PAW double counting   =    197687.58258586  -198687.70271056
  entropy T*S    EENTRO =        -0.00000000
  eigenvalues    EBANDS =    -25715.74475688
  atomic energy  EATOM  =    178577.25249613
  Solvation  Ediel_sol  =         0.00000000
  ---------------------------------------------------
  free energy    TOTEN  =     -1761.10836864 eV

  energy without entropy =    -1761.10836864  energy(sigma->0) =    -1761.10836864


--------------------------------------------------------------------------------------------------------




--------------------------------------- Iteration      1(   7)  ---------------------------------------


    POTLOK:  cpu time    0.2664: real time    0.2667
    SETDIJ:  cpu time    1.3891: real time    1.3900
     EDDAV:  cpu time  149.2843: real time  150.4039
       DOS:  cpu time    0.0018: real time    0.0018
    CHARGE:  cpu time    5.2970: real time    5.3011
    MIXING:  cpu time    0.0085: real time    0.0085
    --------------------------------------------
      LOOP:  cpu time  156.2472: real time  157.3719

 eigenvalue-minimisations  : 27468
 total energy-change (2. order) : 0.1253575E+01  (-0.9385038E+00)
 number of electron    1923.0000026 magnetization       1.0000000
 augmentation part      496.0617124 magnetization       0.5845329

 Broyden mixing:
  rms(total) = 0.98740E+00    rms(broyden)= 0.98691E+00
  rms(prec ) = 0.10683E+01
  weight for this iteration     100.00

 eigenvalues of (default mixing * dielectric matrix)
  average eigenvalue GAMMA=   0.8769
  1.3973  1.3973  0.7173  0.7173  0.5163  0.5163

 Free energy of the ion-electron system (eV)
  ---------------------------------------------------
  alpha Z        PSCENC =      6118.73324990
  Ewald energy   TEWEN  =   -103839.99046984
  -Hartree energ DENC   =    -64839.32127642
  -exchange      EXHF   =         0.00000000
  -V(xc)+E(xc)   XCENC  =      8966.89628205
  PAW double counting   =    197434.74826998  -198435.80851752
  entropy T*S    EENTRO =        -0.00000000
  eigenvalues    EBANDS =    -25742.36482769
  atomic energy  EATOM  =    178577.25249613
  Solvation  Ediel_sol  =         0.00000000
  ---------------------------------------------------
  free energy    TOTEN  =     -1759.85479342 eV

  energy without entropy =    -1759.85479342  energy(sigma->0) =    -1759.85479342


--------------------------------------------------------------------------------------------------------




--------------------------------------- Iteration      1(   8)  ---------------------------------------


    POTLOK:  cpu time    0.2631: real time    0.2661
    SETDIJ:  cpu time    1.3856: real time    1.3866
     EDDAV:  cpu time  146.1371: real time  146.7924
       DOS:  cpu time    0.0019: real time    0.0019
    CHARGE:  cpu time    5.3110: real time    5.3168
    MIXING:  cpu time    0.0082: real time    0.0081
    --------------------------------------------
      LOOP:  cpu time  153.1069: real time  153.7719

 eigenvalue-minimisations  : 26508
 total energy-change (2. order) : 0.4118832E+00  (-0.7548175E+00)
[...]
   81        1.574   3.459   0.000   5.033
   82        1.574   3.458   0.000   5.033
   83        1.574   3.458   0.000   5.032
   84        1.576   3.468   0.000   5.044
   85        1.575   3.460   0.000   5.034
   86        1.575   3.463   0.000   5.038
   87        1.574   3.461   0.000   5.035
   88        1.574   3.458   0.000   5.033
   89        1.574   3.458   0.000   5.032
   90        1.568   3.468   0.000   5.037
   91        1.574   3.457   0.000   5.031
   92        1.574   3.457   0.000   5.031
   93        1.578   3.465   0.000   5.043
   94        1.569   3.477   0.000   5.045
   95        1.576   3.468   0.000   5.044
   96        1.575   3.462   0.000   5.037
   97        1.575   3.462   0.000   5.037
   98        1.576   3.466   0.000   5.042
   99        1.575   3.462   0.000   5.037
  100        1.572   3.464   0.000   5.036
  101        1.574   3.452   0.000   5.027
  102        1.575   3.456   0.000   5.030
  103        1.575   3.454   0.000   5.030
  104        1.574   3.457   0.000   5.031
  105        1.577   3.470   0.000   5.046
  106        1.574   3.460   0.000   5.034
  107        1.575   3.461   0.000   5.035
  108        1.576   3.470   0.000   5.046
  109        1.574   3.458   0.000   5.032
  110        1.574   3.455   0.000   5.030
  111        1.576   3.467   0.000   5.043
  112        1.576   3.454   0.000   5.031
  113        1.576   3.472   0.000   5.048
  114        1.577   3.463   0.000   5.040
  115        1.574   3.461   0.000   5.035
  116        1.574   3.460   0.000   5.034
  117        1.575   3.457   0.000   5.032
  118        1.575   3.458   0.000   5.034
  119        1.576   3.471   0.000   5.048
  120        1.575   3.457   0.000   5.033
  121        1.575   3.456   0.000   5.031
  122        1.577   3.464   0.000   5.041
  123        1.577   3.468   0.000   5.045
  124        1.576   3.464   0.000   5.040
  125        1.576   3.473   0.000   5.049
  126        1.576   3.469   0.000   5.044
  127        1.575   3.455   0.000   5.030
  128        1.574   3.456   0.000   5.031
  129        1.576   3.465   0.000   5.041
  130        1.737   4.369   0.000   6.106
  131        1.737   4.370   0.000   6.107
  132        1.737   4.377   0.000   6.115
  133        1.738   4.380   0.000   6.119
  134        1.738   4.380   0.000   6.118
  135        1.735   4.371   0.000   6.106
  136        1.737   4.368   0.000   6.105
  137        1.739   4.379   0.000   6.118
  138        1.738   4.380   0.000   6.118
  139        1.739   4.379   0.000   6.118
  140        1.739   4.381   0.000   6.120
  141        1.738   4.378   0.000   6.116
  142        1.738   4.379   0.000   6.116
  143        1.738   4.379   0.000   6.117
  144        1.738   4.381   0.000   6.119
  145        1.738   4.379   0.000   6.116
  146        1.737   4.379   0.000   6.116
  147        1.736   4.367   0.000   6.104
  148        1.736   4.367   0.000   6.103
  149        1.739   4.377   0.000   6.116
  150        1.738   4.382   0.000   6.120
  151        1.736   4.380   0.000   6.116
  152        1.738   4.373   0.000   6.111
  153        1.737   4.380   0.000   6.118
  154        1.737   4.371   0.000   6.108
  155        1.737   4.371   0.000   6.108
  156        1.737   4.369   0.000   6.106
  157        1.737   4.366   0.000   6.102
  158        1.738   4.373   0.000   6.111
  159        1.738   4.374   0.000   6.111
  160        1.737   4.368   0.000   6.105
  161        1.736   4.368   0.000   6.105
  162        1.737   4.368   0.000   6.104
  163        1.736   4.365   0.000   6.101
  164        1.737   4.376   0.000   6.113
  165        1.737   4.366   0.000   6.103
  166        1.736   4.366   0.000   6.102
  167        1.737   4.368   0.000   6.105
  168        1.737   4.369   0.000   6.105
  169        1.738   4.373   0.000   6.111
  170        1.737   4.377   0.000   6.114
  171        1.737   4.366   0.000   6.103
  172        1.737   4.384   0.000   6.122
  173        1.737   4.367   0.000   6.104
  174        1.737   4.365   0.000   6.102
  175        1.739   4.376   0.000   6.115
  176        1.736   4.364   0.000   6.100
  177        1.737   4.378   0.000   6.115
  178        1.737   4.366   0.000   6.102
  179        1.738   4.373   0.000   6.111
  180        1.738   4.378   0.000   6.116
  181        1.736   4.365   0.000   6.101
  182        1.738   4.376   0.000   6.114
  183        1.736   4.364   0.000   6.101
  184        1.737   4.377   0.000   6.114
  185        1.737   4.374   0.000   6.111
  186        1.737   4.376   0.000   6.113
  187        1.737   4.366   0.000   6.103
  188        1.738   4.372   0.000   6.110
  189        1.738   4.378   0.000   6.116
  190        1.738   4.377   0.000   6.116
  191        1.739   4.381   0.000   6.119
  192        1.737   4.366   0.000   6.102
  193        1.738   4.383   0.000   6.121
  194        1.736   4.364   0.000   6.100
  195        1.737   4.366   0.000   6.103
  196        1.737   4.379   0.000   6.116
  197        1.737   4.367   0.000   6.104
  198        1.737   4.380   0.000   6.117
  199        1.738   4.376   0.000   6.114
  200        1.737   4.373   0.000   6.110
  201        1.738   4.374   0.000   6.112
  202        1.738   4.374   0.000   6.112
  203        1.737   4.372   0.000   6.109
  204        1.738   4.373   0.000   6.111
  205        1.737   4.372   0.000   6.108
  206        1.737   4.368   0.000   6.105
  207        1.736   4.376   0.000   6.113
  208        1.737   4.378   0.000   6.115
  209        1.737   4.370   0.000   6.107
  210        1.737   4.370   0.000   6.106
  211        1.737   4.369   0.000   6.105
  212        1.736   4.365   0.000   6.101
  213        1.739   4.372   0.000   6.110
  214        1.736   4.364   0.000   6.100
  215        1.739   4.376   0.000   6.115
  216        1.736   4.366   0.000   6.102
  217        1.736   4.365   0.000   6.101
  218        1.736   4.371   0.000   6.107
  219        1.738   4.375   0.000   6.114
  220        1.738   4.376   0.000   6.114
  221        1.738   4.378   0.000   6.116
  222        1.737   4.378   0.000   6.114
  223        1.737   4.379   0.000   6.116
  224        1.738   4.373   0.000   6.110
  225        1.737   4.372   0.000   6.109
  226        1.738   4.377   0.000   6.115
  227        1.737   4.378   0.000   6.114
  228        1.738   4.377   0.000   6.114
  229        1.737   4.369   0.000   6.106
  230        1.737   4.366   0.000   6.103
  231        1.736   4.374   0.000   6.111
  232        1.736   4.367   0.000   6.103
  233        1.737   4.378   0.000   6.115
  234        1.737   4.366   0.000   6.103
  235        1.737   4.366   0.000   6.102
  236        1.738   4.385   0.000   6.123
  237        1.739   4.379   0.000   6.118
  238        1.737   4.375   0.000   6.112
  239        1.738   4.374   0.000   6.113
  240        1.737   4.379   0.000   6.117
  241        1.738   4.374   0.000   6.111
  242        1.739   4.382   0.000   6.120
  243        1.738   4.385   0.000   6.123
  244        1.738   4.378   0.000   6.116
  245        1.738   4.375   0.000   6.113
  246        1.738   4.374   0.000   6.112
  247        1.738   4.380   0.000   6.119
  248        1.737   4.373   0.000   6.111
  249        1.738   4.380   0.000   6.117
  250        1.738   4.372   0.000   6.110
  251        1.738   4.379   0.000   6.117
  252        1.737   4.378   0.000   6.115
  253        1.738   4.378   0.000   6.116
  254        1.739   4.383   0.000   6.122
  255        1.738   4.376   0.000   6.114
  256        1.738   4.384   0.000   6.122
  257        1.738   4.377   0.000   6.115
--------------------------------------------------
tot        345.2701194.223 111.6661651.159
 


 magnetization (x)
 
# of ion       s       p       d       tot
------------------------------------------
    1       -0.000  -0.000   0.000  -0.000
    2       -0.000  -0.000  -0.000  -0.000
    3       -0.000  -0.000  -0.000  -0.000
    4        0.000   0.000   0.000   0.000
    5       -0.000  -0.000  -0.000  -0.000
    6        0.000   0.000   0.001   0.001
    7        0.000   0.000   0.001   0.001
    8        0.000   0.000   0.000   0.000
    9        0.000   0.000   0.002   0.002
   10       -0.000  -0.000  -0.000  -0.000
   11       -0.000  -0.000  -0.000  -0.000
   12       -0.000  -0.000  -0.000  -0.000
   13       -0.000  -0.000  -0.000  -0.000
   14        0.000   0.000   0.008   0.008
   15        0.000   0.000   0.000   0.000
   16       -0.000  -0.000   0.004   0.004
   17        0.000   0.000   0.000   0.000
   18       -0.000  -0.000  -0.000  -0.000
   19       -0.000  -0.000  -0.000  -0.000
   20       -0.000  -0.000  -0.000  -0.000
   21       -0.000  -0.000  -0.000  -0.000
   22        0.000   0.000   0.000   0.000
   23        0.000   0.000   0.000   0.000
   24        0.000   0.000   0.004   0.004
   25        0.000  -0.000   0.006   0.006
   26       -0.000  -0.000  -0.000  -0.000
   27       -0.000  -0.000  -0.000  -0.000
   28       -0.000  -0.000  -0.000  -0.000
   29       -0.000  -0.000  -0.000  -0.000
   30       -0.000  -0.000   0.001   0.001
   31        0.000   0.000   0.000   0.000
   32        0.005   0.006   0.926   0.938
   33       -0.000   0.000   0.000   0.000
   34       -0.000  -0.000  -0.000  -0.000
   35       -0.000  -0.000  -0.000  -0.000
   36       -0.000  -0.000   0.000   0.000
   37       -0.000  -0.000  -0.000  -0.000
   38       -0.000  -0.000   0.000   0.000
   39       -0.000  -0.000  -0.000  -0.000
   40       -0.000  -0.000  -0.000  -0.000
   41       -0.000  -0.000   0.000   0.000
   42       -0.000  -0.000   0.000   0.000
   43       -0.000  -0.000  -0.000  -0.000
   44       -0.000  -0.000   0.000   0.000
   45       -0.000  -0.000  -0.000  -0.000
   46       -0.000  -0.000  -0.000  -0.000
   47       -0.000  -0.000  -0.000  -0.000
   48        0.000   0.000   0.000   0.000
   49       -0.000  -0.000   0.000   0.000
   50       -0.000  -0.000   0.000   0.000
   51       -0.000  -0.000  -0.000  -0.000
   52       -0.000  -0.000   0.000   0.000
   53       -0.000  -0.000  -0.000  -0.000
   54        0.000  -0.000   0.000   0.000
   55       -0.000  -0.000  -0.000  -0.000
   56       -0.000  -0.000  -0.000  -0.000
   57       -0.000  -0.000  -0.000  -0.000
   58        0.000  -0.000   0.000   0.000
   59       -0.000  -0.000  -0.000  -0.000
   60       -0.000  -0.000   0.000  -0.000
   61       -0.000  -0.000   0.000   0.000
   62       -0.000  -0.000  -0.000  -0.000
   63       -0.000  -0.000  -0.000  -0.000
   64       -0.000  -0.000  -0.003  -0.004
   65        0.000  -0.000  -0.000  -0.000
   66        0.000   0.000   0.000   0.000
   67        0.000   0.000   0.000   0.000
   68        0.000   0.000   0.000   0.000
   69       -0.000  -0.000   0.000  -0.000
   70        0.000  -0.000   0.000  -0.000
   71        0.000  -0.000   0.000   0.000
   72       -0.000  -0.000   0.000  -0.000
   73       -0.000  -0.001   0.000  -0.001
   74        0.000   0.000   0.000   0.000
   75       -0.000  -0.000   0.000  -0.000
   76        0.000   0.000   0.000   0.000
   77        0.000  -0.000   0.000  -0.000
   78        0.000   0.000   0.000   0.000
   79       -0.000  -0.000   0.000  -0.000
   80       -0.000  -0.000   0.000  -0.000
   81       -0.000   0.000   0.000   0.000
   82       -0.000  -0.000   0.000  -0.000
   83        0.000   0.000   0.000   0.000
   84       -0.000  -0.000   0.000  -0.000
   85       -0.000  -0.000   0.000  -0.000
   86       -0.000  -0.000   0.000  -0.000
   87        0.000  -0.000   0.000  -0.000
   88       -0.000  -0.000   0.000  -0.000
   89        0.000  -0.000   0.000  -0.000
   90       -0.000  -0.000   0.000  -0.000
   91       -0.000  -0.000   0.000  -0.000
   92       -0.000  -0.000   0.000  -0.000
   93       -0.000  -0.000   0.000  -0.000
   94       -0.000  -0.000   0.000  -0.000
   95       -0.000  -0.000   0.000  -0.000
   96        0.000   0.000   0.000   0.000
   97       -0.000  -0.000   0.000  -0.000
   98       -0.000  -0.000   0.000  -0.000
   99       -0.000  -0.000   0.000  -0.000
  100       -0.001  -0.016   0.000  -0.016
  101       -0.000  -0.000   0.000  -0.000
  102       -0.000  -0.000   0.000  -0.000
  103       -0.000  -0.000   0.000  -0.000
  104       -0.000  -0.000   0.000  -0.000
  105       -0.000  -0.000   0.000  -0.000
  106       -0.000  -0.000   0.000  -0.000
  107       -0.000  -0.000   0.000  -0.000
  108       -0.000  -0.000   0.000  -0.000
  109       -0.000  -0.000   0.000  -0.000
  110        0.000  -0.000   0.000  -0.000
  111       -0.000  -0.000   0.000  -0.000
  112       -0.000  -0.000   0.000  -0.000
  113        0.000   0.000   0.000   0.000
  114       -0.000  -0.001   0.000  -0.001
  115       -0.000  -0.000   0.000  -0.000
  116       -0.000  -0.000   0.000  -0.000
  117        0.000   0.000   0.000   0.000
  118       -0.000   0.000   0.000   0.000
  119        0.000   0.000   0.000   0.000
  120        0.000  -0.000   0.000  -0.000
  121       -0.000  -0.000   0.000  -0.000
  122       -0.000  -0.000   0.000  -0.000
  123       -0.000  -0.000   0.000  -0.000
  124        0.000  -0.000   0.000  -0.000
  125        0.000  -0.000   0.000  -0.000
  126        0.000   0.000   0.000   0.000
  127       -0.000  -0.000   0.000  -0.000
  128       -0.000  -0.000   0.000  -0.000
  129       -0.000  -0.000   0.000  -0.000
  130       -0.000   0.000   0.000   0.000
  131        0.000   0.000   0.000   0.000
  132       -0.000  -0.000   0.000  -0.000
  133        0.000   0.000   0.000   0.000
  134        0.000   0.000   0.000   0.000
  135        0.000   0.000   0.000   0.000
  136       -0.000  -0.000   0.000  -0.000
  137       -0.000   0.000   0.000  -0.000
  138        0.000   0.000   0.000   0.000
  139        0.000   0.000   0.000   0.000
  140        0.000   0.000   0.000   0.000
  141        0.000   0.000   0.000   0.000
  142        0.000   0.000   0.000   0.000
  143       -0.000  -0.000   0.000  -0.000
  144       -0.000  -0.000   0.000  -0.000
  145       -0.000   0.002   0.000   0.002
  146        0.000   0.000   0.000   0.000
  147        0.000  -0.000   0.000  -0.000
  148       -0.000  -0.000   0.000  -0.000
  149       -0.000  -0.000   0.000  -0.000
  150        0.000  -0.000   0.000  -0.000
  151       -0.000   0.002   0.000   0.002
  152        0.000  -0.000   0.000   0.000
  153       -0.000  -0.000   0.000  -0.000
  154       -0.000  -0.000   0.000  -0.000
  155       -0.000  -0.000   0.000  -0.000
  156        0.000  -0.000   0.000  -0.000
  157        0.000  -0.000   0.000  -0.000
  158       -0.000  -0.000   0.000  -0.000
  159        0.000  -0.000   0.000  -0.000
  160        0.000  -0.000   0.000  -0.000
  161        0.000  -0.000   0.000  -0.000
  162       -0.000  -0.000   0.000  -0.000
  163       -0.000  -0.000   0.000  -0.000
  164        0.000   0.000   0.000   0.000
  165       -0.000  -0.000   0.000  -0.000
  166        0.000  -0.000   0.000  -0.000
  167        0.000   0.000   0.000   0.000
  168        0.000   0.000   0.000   0.000
  169       -0.000  -0.000   0.000  -0.000
  170        0.000   0.000   0.000   0.000
  171       -0.000  -0.000   0.000  -0.000
  172       -0.000   0.000   0.000  -0.000
  173       -0.000  -0.000   0.000  -0.000
  174       -0.000  -0.000   0.000  -0.000
  175       -0.000  -0.000   0.000  -0.000
  176       -0.000  -0.000   0.000  -0.000
  177       -0.000   0.000   0.000   0.000
  178       -0.000  -0.000   0.000  -0.000
  179        0.000   0.000   0.000   0.000
  180        0.000  -0.000   0.000  -0.000
  181       -0.000  -0.000   0.000  -0.000
  182       -0.000  -0.000   0.000  -0.000
  183       -0.000   0.000   0.000  -0.000
  184        0.000   0.000   0.000   0.000
  185       -0.000  -0.000   0.000  -0.000
  186       -0.000  -0.000   0.000  -0.000
  187       -0.000  -0.000   0.000  -0.000
  188       -0.000  -0.000   0.000  -0.000
  189       -0.000  -0.000   0.000  -0.000
  190       -0.000  -0.000   0.000  -0.000
  191       -0.000  -0.000   0.000  -0.000
  192       -0.000  -0.000   0.000  -0.000
  193        0.000  -0.000   0.000  -0.000
  194        0.000  -0.000   0.000  -0.000
  195       -0.000  -0.000   0.000  -0.000
  196       -0.000  -0.000   0.000  -0.000
  197       -0.000  -0.000   0.000  -0.000
  198        0.000   0.000   0.000   0.000
  199       -0.000  -0.000   0.000  -0.000
  200       -0.000  -0.000   0.000  -0.000
  201       -0.000  -0.000   0.000  -0.000
  202       -0.000   0.000   0.000   0.000
  203       -0.000  -0.000   0.000  -0.000
  204       -0.000  -0.000   0.000  -0.000
  205       -0.000  -0.000   0.000  -0.000
  206        0.000  -0.000   0.000  -0.000
  207       -0.000  -0.007   0.000  -0.007
  208       -0.000  -0.000   0.000  -0.000
  209       -0.000  -0.000   0.000  -0.000
  210        0.000   0.000   0.000   0.000
  211       -0.000  -0.000   0.000  -0.000
  212        0.000   0.000   0.000   0.000
  213        0.000   0.000   0.000   0.000
  214       -0.000  -0.000   0.000  -0.000
  215       -0.000   0.000   0.000   0.000
  216       -0.000  -0.000   0.000  -0.000
  217        0.000   0.000   0.000   0.000
  218        0.000  -0.000   0.000  -0.000
  219       -0.000  -0.000   0.000  -0.000
  220        0.000  -0.000   0.000  -0.000
  221       -0.000   0.000   0.000   0.000
  222       -0.000   0.002   0.000   0.002
  223        0.000   0.000   0.000   0.000
  224        0.000   0.000   0.000   0.000
  225        0.000   0.000   0.000   0.000
  226       -0.000   0.000   0.000   0.000
  227        0.000  -0.000   0.000  -0.000
  228        0.000   0.000   0.000   0.000
  229       -0.000  -0.000   0.000  -0.000
  230        0.000   0.000   0.000   0.000
  231       -0.000   0.001   0.000   0.001
  232       -0.000  -0.000   0.000  -0.000
  233       -0.000  -0.000   0.000  -0.000
  234        0.000   0.000   0.000   0.000
  235       -0.000  -0.000   0.000  -0.000
  236       -0.000  -0.000   0.000  -0.000
  237        0.000  -0.000   0.000  -0.000
  238       -0.000  -0.000   0.000  -0.000
  239       -0.000  -0.000   0.000  -0.000
  240        0.000   0.000   0.000   0.000
  241       -0.000  -0.000   0.000  -0.000
  242        0.000  -0.000   0.000  -0.000
  243       -0.000  -0.000   0.000  -0.000
  244       -0.000  -0.000   0.000  -0.000
  245       -0.000  -0.000   0.000  -0.000
  246       -0.000  -0.000   0.000  -0.000
  247        0.000  -0.000   0.000  -0.000
  248       -0.000  -0.000   0.000  -0.000
  249        0.000  -0.000   0.000  -0.000
  250       -0.000  -0.000   0.000  -0.000
  251       -0.000   0.000   0.000   0.000
  252       -0.000  -0.000   0.000  -0.000
  253        0.000   0.000   0.000   0.000
  254       -0.000  -0.000   0.000  -0.000
  255        0.000   0.000   0.000   0.000
  256        0.000  -0.000   0.000  -0.000
  257       -0.000  -0.000   0.000  -0.000
--------------------------------------------------
tot          0.003  -0.014   0.950   0.939
 

 total amount of memory used by VASP MPI-rank0   291484. kBytes
=======================================================================

   base      :      30000. kBytes
   nonlr-proj:      49449. kBytes
   fftplans  :      27976. kBytes
   grid      :      34041. kBytes
   one-center:       1026. kBytes
   wavefun   :     148992. kBytes
 
  
  
 General timing and accounting informations for this job:
 ========================================================
  
                  Total CPU time used (sec):     4100.955
                            User time (sec):     3711.547
                          System time (sec):      389.407
                         Elapsed time (sec):     4133.108
  
                   Maximum memory used (kb):      620340.
                   Average memory used (kb):           0.
  
                          Minor page faults:       361194
                          Major page faults:           35
                 Voluntary context switches:        30353
