 vasp.5.4.4.18Apr17-6-g9f103f2a35 (build Apr 30 2017 20:10:35) complex          
  
 executed on             LinuxIFC date 2017.08.03  19:36:16
 running on   64 total cores
 distrk:  each k-point on   64 cores,    1 groups
 distr:  one band on NCORES_PER_BAND=   8 cores,    8 groups


--------------------------------------------------------------------------------------------------------


 INCAR:
 POTCAR:   PAW_PBE Ti_pv 07Sep2000                
 POTCAR:   PAW_PBE O 08Apr2002                    
 POTCAR:    PAW_PBE F 08Apr2002                   
 POTCAR:   PAW_PBE Ti_pv 07Sep2000                
   VRHFIN =Ti: d3 s1                                                            
   LEXCH  = PE                                                                  
   EATOM  =  1042.3781 eV,   76.6126 Ry                                         
                                                                                
   TITEL  = PAW_PBE Ti_pv 07Sep2000                                             
   LULTRA =        F    use ultrasoft PP ?                                      
   IUNSCR =        1    unscreen: 0-lin 1-nonlin 2-no                           
   RPACOR =    2.200    partial core radius                                     
   POMASS =   47.880; ZVAL   =   10.000    mass and valenz                      
   RCORE  =    2.500    outmost cutoff radius                                   
   RWIGS  =    2.500; RWIGS  =    1.323    wigner-seitz radius (au A)           
   ENMAX  =  222.338; ENMIN  =  166.753 eV                                      
   RCLOC  =    1.701    cutoff for local pot                                    
   LCOR   =        T    correct aug charges                                     
   LPAW   =        T    paw PP                                                  
   EAUG   =  482.848                                                            
   DEXC   =    -.008                                                            
   RMAX   =    3.092    core radius for proj-oper                               
   RAUG   =    1.300    factor for augmentation sphere                          
   RDEP   =    2.538    radius for radial grids                                 
   QCUT   =   -4.042; QGAM   =    8.085    optimization parameters              
                                                                                
   Description                                                                  
     l     E      TYP  RCUT    TYP  RCUT                                        
     1   .000     23  2.300                                                     
     1  -.100     23  2.300                                                     
     2   .000     23  2.500                                                     
     2   .000     23  2.500                                                     
     0   .000     23  2.500                                                     
     0  1.500     23  2.500                                                     
     3   .000      7   .000                                                     
  local pseudopotential read in
  partial core-charges read in
  atomic valenz-charges read in
  non local Contribution for L=           1  read in
    real space projection operators read in
  non local Contribution for L=           1  read in
    real space projection operators read in
  non local Contribution for L=           2  read in
    real space projection operators read in
  non local Contribution for L=           2  read in
    real space projection operators read in
  non local Contribution for L=           0  read in
    real space projection operators read in
  non local Contribution for L=           0  read in
    real space projection operators read in
    PAW grid and wavefunctions read in
 
   number of l-projection  operators is LMAX  =           6
   number of lm-projection operators is LMMAX =          18
 
 POTCAR:   PAW_PBE O 08Apr2002                    
   VRHFIN =O: s2p4                                                              
   LEXCH  = PE                                                                  
   EATOM  =   432.3788 eV,   31.7789 Ry                                         
                                                                                
   TITEL  = PAW_PBE O 08Apr2002                                                 
   LULTRA =        F    use ultrasoft PP ?                                      
   IUNSCR =        0    unscreen: 0-lin 1-nonlin 2-no                           
   RPACOR =     .000    partial core radius                                     
   POMASS =   16.000; ZVAL   =    6.000    mass and valenz                      
   RCORE  =    1.520    outmost cutoff radius                                   
   RWIGS  =    1.550; RWIGS  =     .820    wigner-seitz radius (au A)           
   ENMAX  =  400.000; ENMIN  =  300.000 eV                                      
   ICORE  =        2    local potential                                         
   LCOR   =        T    correct aug charges                                     
   LPAW   =        T    paw PP                                                  
   EAUG   =  605.392                                                            
   DEXC   =     .000                                                            
   RMAX   =    2.264    core radius for proj-oper                               
   RAUG   =    1.300    factor for augmentation sphere                          
   RDEP   =    1.550    radius for radial grids                                 
   QCUT   =   -5.520; QGAM   =   11.041    optimization parameters              
                                                                                
   Description                                                                  
     l     E      TYP  RCUT    TYP  RCUT                                        
     0   .000     23  1.200                                                     
     0  -.700     23  1.200                                                     
     1   .000     23  1.520                                                     
     1   .600     23  1.520                                                     
     2   .000      7  1.500                                                     
  local pseudopotential read in
  atomic valenz-charges read in
  non local Contribution for L=           0  read in
    real space projection operators read in
  non local Contribution for L=           0  read in
    real space projection operators read in
  non local Contribution for L=           1  read in
    real space projection operators read in
  non local Contribution for L=           1  read in
    real space projection operators read in
    PAW grid and wavefunctions read in
 
   number of l-projection  operators is LMAX  =           4
   number of lm-projection operators is LMMAX =           8
 
 POTCAR:    PAW_PBE F 08Apr2002                   
   VRHFIN =F: s2p5                                                              
   LEXCH  = PE                                                                  
   EATOM  =   659.6475 eV,   48.4827 Ry                                         
                                                                                
   TITEL  = PAW_PBE F 08Apr2002                                                 
   LULTRA =        F    use ultrasoft PP ?                                      
   IUNSCR =        1    unscreen: 0-lin 1-nonlin 2-no                           
   RPACOR =    1.200    partial core radius                                     
   POMASS =   18.998; ZVAL   =    7.000    mass and valenz                      
   RCORE  =    1.520    outmost cutoff radius                                   
   RWIGS  =    1.500; RWIGS  =    0.794    wigner-seitz radius (au A)           
   ENMAX  =  400.000; ENMIN  =  300.000 eV                                      
   ICORE  =        2    local potential                                         
   LCOR   =        T    correct aug charges                                     
   LPAW   =        T    paw PP                                                  
   EAUG   =  613.614                                                            
   RMAX   =    1.555    core radius for proj-oper                               
   RAUG   =    1.300    factor for augmentation sphere                          
   RDEP   =    1.539    radius for radial grids                                 
   RDEPT  =    1.299    core radius for aug-charge                              
                                                                                
   Atomic configuration                                                         
    4 entries                                                                   
     n  l   j            E        occ.                                          
     1  0  0.50      -663.3661   2.0000                                         
     2  0  0.50       -29.8995   2.0000                                         
     2  1  0.50       -11.1114   5.0000                                         
     3  2  1.50       -10.8847   0.0000                                         
   Description                                                                  
     l       E           TYP  RCUT    TYP  RCUT                                 
     0    -29.8995018     23  1.200                                             
     0     -9.5240782     23  1.200                                             
     1    -11.1113914     23  1.520                                             
     1      1.3605826     23  1.520                                             
     2    -10.8846608      7  1.500                                             
  local pseudopotential read in
  partial core-charges read in
  partial kinetic energy density read in
  atomic valenz-charges read in
  non local Contribution for L=           0  read in
    real space projection operators read in
  non local Contribution for L=           0  read in
    real space projection operators read in
  non local Contribution for L=           1  read in
    real space projection operators read in
  non local Contribution for L=           1  read in
    real space projection operators read in
    PAW grid and wavefunctions read in
 
   number of l-projection  operators is LMAX  =           4
   number of lm-projection operators is LMMAX =           8
 
 Optimization of the real space projectors (new method)

 maximal supplied QI-value         = 15.12
 optimisation between [QCUT,QGAM] = [ 13.45, 27.06] = [ 50.69,205.06] Ry 
 Optimized for a Real-space Cutoff    1.49 Angstroem

   l    n(q)    QCUT    max X(q) W(low)/X(q) W(high)/X(q)  e(spline) 
   1     12    13.455     4.841    0.13E-05    0.83E-06    0.56E-07
   1     12    13.455     5.701    0.32E-04    0.25E-04    0.17E-06
   2     11    13.455     4.569    0.64E-05    0.34E-05    0.50E-07
   2     11    13.455    32.276    0.49E-04    0.38E-04    0.46E-06
   0     12    13.455    30.046    0.17E-04    0.41E-05    0.51E-07
   0     12    13.455    45.433    0.12E-04    0.27E-04    0.38E-06
 Optimization of the real space projectors (new method)

 maximal supplied QI-value         = 24.76
 optimisation between [QCUT,QGAM] = [ 13.37, 26.98] = [ 50.04,203.89] Ry 
 Optimized for a Real-space Cutoff    1.17 Angstroem

   l    n(q)    QCUT    max X(q) W(low)/X(q) W(high)/X(q)  e(spline) 
   0      9    13.368     4.192    0.20E-04    0.58E-05    0.56E-07
   0      9    13.368     8.473    0.60E-04    0.52E-04    0.21E-06
   1      9    13.368     2.474    0.22E-04    0.17E-04    0.28E-07
   1      9    13.368     3.912    0.94E-04    0.97E-04    0.20E-06
 Optimization of the real space projectors (new method)

 maximal supplied QI-value         = 24.76
 optimisation between [QCUT,QGAM] = [ 13.37, 26.98] = [ 50.04,203.89] Ry 
 Optimized for a Real-space Cutoff    1.17 Angstroem

   l    n(q)    QCUT    max X(q) W(low)/X(q) W(high)/X(q)  e(spline) 
   0      9    13.368    14.049    0.39E-04    0.34E-04    0.16E-06
   0      9    13.368     8.945    0.54E-04    0.47E-04    0.20E-06
   1      9    13.368     7.086    0.99E-04    0.10E-03    0.23E-06
   1      9    13.368     6.747    0.86E-04    0.89E-04    0.21E-06

 ----------------------------------------------------------------------------- 
|                                                                             |
|  ADVICE TO THIS USER RUNNING 'VASP/VAMP'   (HEAR YOUR MASTER'S VOICE ...):  |
|                                                                             |
|      You enforced a specific xc-type in the INCAR file,                     |
|      a different type was found on the POTCAR file                          |
|          I HOPE YOU KNOW, WHAT YOU ARE  DOING                               |
|                                                                             |
 ----------------------------------------------------------------------------- 

 PAW_PBE Ti_pv 07Sep2000                :
 energy of atom  1       EATOM=-1042.3781
 kinetic energy error for atom=    0.0006 (will be added to EATOM!!)
 PAW_PBE O 08Apr2002                    :
 energy of atom  2       EATOM= -432.3788
 kinetic energy error for atom=    0.0091 (will be added to EATOM!!)
  PAW_PBE F 08Apr2002                   :
 energy of atom  3       EATOM= -659.6475
 kinetic energy error for atom=    0.0140 (will be added to EATOM!!)
 
 
 POSCAR: TiOF2 2x2x2 config 0013                 
  positions in direct lattice
  velocities in cartesian coordinates
 exchange correlation table for  LEXCH =       14
   RHO(1)=    0.500       N(1)  =     2000
   RHO(2)=  100.500       N(2)  =     4000

 VTST: version 3.1, (03/28/14)

 CHAIN: initializing optimizer
 
 OPT: Using VASP QUASI-newton optimizer
 CHAIN: Read ICHAIN            0
 
 POSCAR: TiOF2 2x2x2 config 0013                 
  positions in direct lattice
  velocities in cartesian coordinates
 


--------------------------------------------------------------------------------------------------------


 ion  position               nearest neighbor table
   1  1.000  1.000  1.000-  31 1.93  32 1.93  21 1.94  17 1.94  27 1.97  25 1.97
   2  0.000  0.000  0.500-  32 1.84  31 1.84  18 1.87  22 1.87  28 1.90  26 1.90
   3  0.000  0.500  1.000-  12 1.89  11 1.89  25 1.94  27 1.94  23 1.96  19 1.96
   4  0.000  0.500  0.500-  12 1.88  11 1.88  20 1.93  24 1.93  28 2.01  26 2.01
   5  0.500  1.000  0.000-  13 1.86  14 1.86  30 1.95  29 1.95  17 2.02  21 2.02
   6  0.500  0.000  0.500-  14 1.92  13 1.92   9 1.94  10 1.94  18 2.09  22 2.09
   7  0.500  0.500  1.000-  16 1.86  15 1.86  30 1.96  29 1.96  23 2.00  19 2.00
   8  0.500  0.500  0.500-  15 1.91  16 1.91  10 1.97   9 1.97  24 2.03  20 2.03
   9  0.500  0.248  0.500-   6 1.94   8 1.97
  10  0.500  0.752  0.500-   6 1.94   8 1.97
  11  0.000  0.500  0.251-   4 1.88   3 1.89
  12  1.000  0.500  0.749-   4 1.88   3 1.89
  13  0.500  1.000  0.246-   5 1.86   6 1.92
  14  0.500  1.000  0.754-   5 1.86   6 1.92
  15  0.500  0.500  0.246-   7 1.86   8 1.91
  16  0.500  0.500  0.754-   7 1.86   8 1.91
  17  0.245  1.000  0.000-   1 1.94   5 2.02
  18  0.236  1.000  0.500-   2 1.87   6 2.09
  19  0.248  0.500  1.000-   3 1.96   7 2.00
  20  0.244  0.500  0.500-   4 1.93   8 2.03
  21  0.755  0.000  1.000-   1 1.94   5 2.02
  22  0.764  0.000  0.500-   2 1.87   6 2.09
  23  0.752  0.500  0.000-   3 1.96   7 2.00
  24  0.756  0.500  0.500-   4 1.93   8 2.03
  25  1.000  0.252  0.000-   3 1.94   1 1.97
  26  0.000  0.243  0.500-   2 1.90   4 2.01
  27  0.000  0.748  1.000-   3 1.94   1 1.97
  28  1.000  0.757  0.500-   2 1.90   4 2.01
  29  0.500  0.249  0.000-   5 1.95   7 1.96
  30  0.500  0.751  0.000-   5 1.95   7 1.96
  31  0.000  1.000  0.256-   2 1.84   1 1.93
  32  1.000  0.000  0.744-   2 1.84   1 1.93
 

IMPORTANT INFORMATION: All symmetrisations will be switched off!
NOSYMM: (Re-)initialisation of all symmetry stuff for point group C_1.

 
 
 KPOINTS: Title                                   

Automatic generation of k-mesh.
Space group operators:
 irot       det(A)        alpha          n_x          n_y          n_z        tau_x        tau_y        tau_z
    1     1.000000     0.000000     1.000000     0.000000     0.000000     0.000000     0.000000     0.000000
 
 Subroutine IBZKPT returns following result:
 ===========================================
 
 Found      4 irreducible k-points:
 
 Following reciprocal coordinates:
            Coordinates               Weight
  0.250000  0.250000  0.250000      2.000000
 -0.250000  0.250000  0.250000      2.000000
  0.250000 -0.250000  0.250000      2.000000
 -0.250000 -0.250000  0.250000      2.000000
 
 Following cartesian coordinates:
            Coordinates               Weight
  0.031542  0.031964  0.033132      2.000000
 -0.031532  0.031953  0.033133      2.000000
  0.031530 -0.031954  0.033133      2.000000
 -0.031543 -0.031965  0.033134      2.000000
 


--------------------------------------------------------------------------------------------------------




 Dimension of arrays:
   k-points           NKPTS =      4   k-points in BZ     NKDIM =      4   number of bands    NBANDS=    160
   number of dos      NEDOS =   3001   number of ions     NIONS =     32
   non local maximal  LDIM  =      6   non local SUM 2l+1 LMDIM =     18
   total plane-waves  NPLWV = 343000
   max r-space proj   IRMAX =  10164   max aug-charges    IRDMAX= 227858
   dimension x,y,z NGX =    70 NGY =   70 NGZ =   70
   dimension x,y,z NGXF=   140 NGYF=  140 NGZF=  140
   support grid    NGXF=   280 NGYF=  280 NGZF=  280
   ions per type =               8   8  16
   NGX,Y,Z   is equivalent  to a cutoff of  14.68, 14.88, 15.42 a.u.
   NGXF,Y,Z  is equivalent  to a cutoff of  29.36, 29.75, 30.85 a.u.

 SYSTEM =  LTO                                     
 POSCAR =  TiOF2 2x2x2 config 0013                 

 Startparameter for this run:
   NWRITE =      2    write-flag & timer
   PREC   = accura    normal or accurate (medium, high low for compatibility)
   ISTART =      1    job   : 0-new  1-cont  2-samecut
   ICHARG =      0    charge: 1-file 2-atom 10-const
   ISPIN  =      2    spin polarized calculation?
   LNONCOLLINEAR =      F non collinear calculations
   LSORBIT =      F    spin-orbit coupling
   INIWAV =      1    electr: 0-lowe 1-rand  2-diag
   LASPH  =      T    aspherical Exc in radial PAW
   METAGGA=      F    non-selfconsistent MetaGGA calc.

 Electronic Relaxation 1
   ENCUT  =  700.0 eV  51.45 Ry    7.17 a.u.  17.10 16.88 16.28*2*pi/ulx,y,z
   ENINI  =  700.0     initial cutoff
   ENAUG  =  613.6 eV  augmentation charge cutoff
   NELM   =     60;   NELMIN=  2; NELMDL=  0     # of ELM steps 
   EDIFF  = 0.1E-05   stopping-criterion for ELM
   LREAL  =      T    real-space projection
   NLSPLINE    = F    spline interpolate recip. space projectors
   LCOMPAT=      F    compatible to vasp.4.4
   GGA_COMPAT  = T    GGA compatible to vasp.4.4-vasp.4.6
   LMAXPAW     = -100 max onsite density
   LMAXMIX     =    4 max onsite mixed and CHGCAR
   VOSKOWN=      0    Vosko Wilk Nusair interpolation
   ROPT   =   -0.00010  -0.00010  -0.00010
 Ionic relaxation
   EDIFFG = -.1E-01   stopping-criterion for IOM
   NSW    =    100    number of steps for IOM
   NBLOCK =      1;   KBLOCK =    100    inner block; outer block 
   IBRION =      1    ionic relax: 0-MD 1-quasi-New 2-CG
   NFREE  =      0    steps in history (QN), initial steepest desc. (CG)
   ISIF   =      3    stress and relaxation
   IWAVPR =     11    prediction:  0-non 1-charg 2-wave 3-comb
   ISYM   =      0    0-nonsym 1-usesym 2-fastsym
   LCORR  =      T    Harris-Foulkes like correction to forces

   POTIM  = 0.5000    time-step for ionic-motion
   TEIN   =    0.0    initial temperature
   TEBEG  =    0.0;   TEEND  =   0.0 temperature during run
   SMASS  =  -3.00    Nose mass-parameter (am)
   estimated Nose-frequenzy (Omega)   =  0.10E-29 period in steps =****** mass=  -0.144E-26a.u.
   SCALEE = 1.0000    scale energy and forces
   NPACO  =    256;   APACO  = 16.0  distance and # of slots for P.C.
   PSTRESS=    0.0 pullay stress

  Mass of Ions in am
   POMASS =  47.88 16.00 19.00
  Ionic Valenz
   ZVAL   =  10.00  6.00  7.00
  Atomic Wigner-Seitz radii
   RWIGS  =  -1.00 -1.00 -1.00
  virtual crystal weights 
   VCA    =   1.00  1.00  1.00
   NELECT =     240.0000    total number of electrons
   NUPDOWN=      -1.0000    fix difference up-down

 DOS related values:
   EMIN   =  10.00;   EMAX   =-10.00  energy-range for DOS
   EFERMI =   0.00
   ISMEAR =     0;   SIGMA  =   0.01  broadening in eV -4-tet -1-fermi 0-gaus

 Electronic relaxation 2 (details)
   IALGO  =     38    algorithm
   LDIAG  =      T    sub-space diagonalisation (order eigenvalues)
   LSUBROT=      F    optimize rotation matrix (better conditioning)
   TURBO    =      0    0=normal 1=particle mesh
   IRESTART =      0    0=no restart 2=restart with 2 vectors
   NREBOOT  =      0    no. of reboots
   NMIN     =      0    reboot dimension
   EREF     =   0.00    reference energy to select bands
   IMIX   =      4    mixing-type and parameters
     AMIX     =   0.40;   BMIX     =  1.00
     AMIX_MAG =   1.60;   BMIX_MAG =  1.00
     AMIN     =   0.10
     WC   =   100.;   INIMIX=   1;  MIXPRE=   1;  MAXMIX= -45

 Intra band minimization:
   WEIMIN = 0.0010     energy-eigenvalue tresh-hold
   EBREAK =  0.16E-08  absolut break condition
   DEPER  =   0.30     relativ break condition  

   TIME   =   0.40     timestep for ELM

  volume/ion in A,a.u.               =      14.62        98.67
  Fermi-wavevector in a.u.,A,eV,Ry     =   1.310472  2.476433 23.365789  1.717337
  Thomas-Fermi vector in A             =   2.441000
 
 Write flags
   LWAVE        =      T    write WAVECAR
   LDOWNSAMPLE  =      F    k-point downsampling of WAVECAR
   LCHARG       =      T    write CHGCAR
   LVTOT        =      F    write LOCPOT, total local potential
   LVHAR        =      F    write LOCPOT, Hartree potential only
   LELF         =      F    write electronic localiz. function (ELF)
   LORBIT       =     11    0 simple, 1 ext, 2 COOP (PROOUT), +10 PAW based schemes


 Dipole corrections
   LMONO  =      F    monopole corrections only (constant potential shift)
   LDIPOL =      F    correct potential (dipole corrections)
   IDIPOL =      0    1-x, 2-y, 3-z, 4-all directions 
   EPSILON=  1.0000000 bulk dielectric constant

 LDA+U is selected, type is set to LDAUTYPE =  2
   angular momentum for each species LDAUL =     2   -1   -1
   U (eV)           for each species LDAUU =   4.2  0.0  0.0
   J (eV)           for each species LDAUJ =   0.0  0.0  0.0
 Exchange correlation treatment:
   GGA     =    PS    GGA type
   LEXCH   =    14    internal setting for exchange type
   VOSKOWN=      0    Vosko Wilk Nusair interpolation
   LHFCALC =     F    Hartree Fock is set to
   LHFONE  =     F    Hartree Fock one center treatment
   AEXX    =    0.0000 exact exchange contribution

 Linear response parameters
   LEPSILON=     F    determine dielectric tensor
   LRPA    =     F    only Hartree local field effects (RPA)
   LNABLA  =     F    use nabla operator in PAW spheres
   LVEL    =     F    velocity operator in full k-point grid
   LINTERFAST=   F  fast interpolation
   KINTER  =     0    interpolate to denser k-point grid
   CSHIFT  =0.1000    complex shift for real part using Kramers Kronig
   OMEGAMAX=  -1.0    maximum frequency
   DEG_THRESHOLD= 0.2000000E-02 threshold for treating states as degnerate
   RTIME   =   -0.100 relaxation time in fs
  (WPLASMAI=    0.000 imaginary part of plasma frequency in eV, 0.658/RTIME)
   DFIELD  = 0.0000000 0.0000000 0.0000000 field for delta impulse in time
 
 Orbital magnetization related:
   ORBITALMAG=     F  switch on orbital magnetization
   LCHIMAG   =     F  perturbation theory with respect to B field
   DQ        =  0.001000  dq finite difference perturbation B field
   LLRAUG    =     F  two centre corrections for induced B field



--------------------------------------------------------------------------------------------------------


 quasi-Newton-method for relaxation of ions
 charge density and potential will be updated during run
 spin polarized calculation
 Variant of blocked Davidson
 Davidson routine will perform the subspace rotation
 perform sub-space diagonalisation
    after iterative eigenvector-optimisation
 modified Broyden-mixing scheme, WC =      100.0
 initial mixing is a Kerker type mixing with AMIX =  0.4000 and BMIX =      1.0000
 Hartree-type preconditioning will be used
 using additional bands           40
 real space projection scheme for non local part
 use partial core corrections
 calculate Harris-corrections to forces 
   (improved forces if not selfconsistent)
 use gradient corrections 
 use of overlap-Matrix (Vanderbilt PP)
 Gauss-broadening in eV      SIGMA  =   0.01


--------------------------------------------------------------------------------------------------------


  energy-cutoff  :      700.00
  volume of cell :      467.90
      direct lattice vectors                 reciprocal lattice vectors
     7.927262645 -0.001433098  0.000129229     0.126146954  0.000022755 -0.000002042
    -0.001411079  7.822527911  0.000092552     0.000023110  0.127835918 -0.000001530
     0.000122111  0.000090274  7.545396832    -0.000002161 -0.000001568  0.132531134

  length of vectors
     7.927262775  7.822528039  7.545396834     0.126146956  0.127835920  0.132531134


 
 old parameters found on file WAVECAR:
  energy-cutoff  :      700.00
  volume of cell :      438.28
      direct lattice vectors                 reciprocal lattice vectors
     7.596000000  0.000000000  0.000000000     0.131648236  0.000000000  0.000000000
     0.000000000  7.596000000  0.000000000     0.000000000  0.131648236  0.000000000
     0.000000000  0.000000000  7.596000000     0.000000000  0.000000000  0.131648236

  length of vectors

 
 k-points in units of 2pi/SCALE and weight: Title                                   
   0.03154198  0.03196428  0.03313189       0.250
  -0.03153150  0.03195290  0.03313291       0.250
   0.03153042 -0.03195368  0.03313266       0.250
  -0.03154306 -0.03196506  0.03313368       0.250
 
 k-points in reciprocal lattice and weights: Title                                   
   0.25000000  0.25000000  0.25000000       0.250
  -0.25000000  0.25000000  0.25000000       0.250
   0.25000000 -0.25000000  0.25000000       0.250
  -0.25000000 -0.25000000  0.25000000       0.250
 
 position of ions in fractional coordinates (direct lattice) 
   0.99999998  0.99999897  0.99999986
   0.00000009  0.00000020  0.50000013
   0.00000009  0.49999906  0.99999991
   0.00000024  0.50000031  0.49999997
   0.49999993  0.99999509  0.00000030
   0.49999973  0.00002039  0.50000019
   0.50000043  0.50000030  0.99999926
   0.50000014  0.50000381  0.49999955
   0.49999035  0.24803411  0.50000018
   0.50000448  0.75196125  0.49999985
   0.00000072  0.50000229  0.25094658
   0.99999946  0.49999812  0.74905334
   0.49999791  0.99997661  0.24597626
   0.50000002  0.99997718  0.75402384
   0.50000035  0.50002387  0.24632326
   0.50000342  0.50002556  0.75367819
   0.24508346  0.99991257  0.00000244
   0.23648338  0.99999400  0.50000191
   0.24779234  0.49998477  0.99999945
   0.24361174  0.49998873  0.49999926
   0.75491655  0.00008793  0.99999732
   0.76351647  0.00000212  0.49999789
   0.75220824  0.50001211  0.00000066
   0.75638848  0.50000682  0.50000132
   0.99991416  0.25182066  0.00000977
   0.00000550  0.24254492  0.49999946
   0.00008601  0.74817780  0.99998977
   0.99999471  0.75745569  0.50000028
   0.49998252  0.24913480  0.00000000
   0.50001889  0.75086111  0.00000028
   0.00000694  0.99999787  0.25614652
   0.99999325  0.00000099  0.74385300
 
 position of ions in cartesian coordinates  (Angst):
   7.92597354  7.82117699  7.54561755
   0.00006179  0.00004667  3.77269941
  -0.00058271  3.91134684  7.54544246
  -0.00064256  3.91131150  3.77274443
   3.96221969  7.82177293  0.00015940
   3.96369019 -0.00051191  3.77276448
   3.96305126  3.91064005  7.54550214
   3.96298795  3.91062234  3.77280589
   3.96326592  1.93958236  3.77278737
   3.96266684  5.88156642  3.77283151
  -0.00066921  3.91130450  1.89353779
   7.92664428  3.90988373  5.65208019
   3.96223377  7.82165062  1.85614566
   3.96231255  7.82170096  5.68956624
   3.96295856  3.91075636  1.85871765
   3.96304488  3.91081535  5.68691194
   1.94143000  7.82149275  0.00014260
   1.87331586  7.82218720  3.77283596
   1.96373158  3.91087998  7.54547097
   1.93052977  3.91087184  3.77277056
   5.98454377 -0.00030375  7.54547416
   6.05265663 -0.00103244  3.77278116
   5.96224674  3.91028073  0.00014849
   5.99544565  3.91027847  3.77285240
   7.92622685  1.96844120  0.00022628
  -0.00023756  1.89735952  3.77271677
  -0.00025184  5.85273186  7.54538894
   7.92621293  5.92383032  3.77289984
   3.96314123  1.94814740  0.00008769
   3.96272157  5.87291541  0.00013620
  -0.00132479  7.82253439  1.93281972
   7.92729996 -0.00135818  5.61279528
 


--------------------------------------------------------------------------------------------------------


 k-point  1 :   0.2500 0.2500 0.2500  plane waves:   19674
 k-point  2 :  -0.2500 0.2500 0.2500  plane waves:   19673
 k-point  3 :   0.2500-0.2500 0.2500  plane waves:   19673
 k-point  4 :  -0.2500-0.2500 0.2500  plane waves:   19673

 maximum and minimum number of plane-waves per node :      2502     2428

 maximum number of plane-waves:     19674
 maximum index in each direction: 
   IXMAX=   17   IYMAX=   17   IZMAX=   16
   IXMIN=  -17   IYMIN=  -17   IZMIN=  -16


 real space projection operators:
  total allocation   :      18222.38 KBytes
  max/ min on nodes  :       2421.38       1891.88


 parallel 3D FFT for wavefunctions:
    minimum data exchange during FFTs selected (reduces bandwidth)
 parallel 3D FFT for charge:
    minimum data exchange during FFTs selected (reduces bandwidth)


 total amount of memory used by VASP MPI-rank0    62292. kBytes
=======================================================================

   base      :      30000. kBytes
   nonlr-proj:       8429. kBytes
   fftplans  :       8423. kBytes
   grid      :       8783. kBytes
   one-center:        124. kBytes
   wavefun   :       6533. kBytes
 
     INWAV:  cpu time    3.8164: real time    4.6181
 Broyden mixing: mesh for mixing (old mesh)
   NGX = 35   NGY = 33   NGZ = 33
  (NGX  =140   NGY  =140   NGZ  =140)
  gives a total of  38115 points

 charge density for first step will be calculated from the start-wavefunctions


--------------------------------------------------------------------------------------------------------


 Maximum index for non-local projection operator         1353
 Maximum index for augmentation-charges         7109 (set IRDMAX)


--------------------------------------------------------------------------------------------------------


 initial charge from wavefunction
 First call to EWALD:  gamma=   0.228
 Maximum number of real-space cells 3x 3x 3
 Maximum number of reciprocal cells 3x 3x 3

    FEWALD:  cpu time    0.0030: real time    0.0034


--------------------------------------- Iteration      1(   1)  ---------------------------------------


    POTLOK:  cpu time    0.1400: real time    0.2464
    SETDIJ:  cpu time    0.8339: real time    0.8396
     EDDAV:  cpu time    3.4635: real time    3.4727
       DOS:  cpu time    0.0010: real time    0.0008
    CHARGE:  cpu time    0.3699: real time    0.3788
    MIXING:  cpu time    0.0550: real time    0.0876
    --------------------------------------------
      LOOP:  cpu time    4.8633: real time    5.0260

 eigenvalue-minimisations  :  2560
 total energy-change (2. order) :-0.2085759E+03  (-0.8668584E-01)
 number of electron     240.0000002 magnetization      -0.0000000
 augmentation part       62.0024658 magnetization      -0.3825890

 Broyden mixing:
  rms(total) = 0.11135E-01    rms(broyden)= 0.10585E-01
  rms(prec ) = 0.12734E-01
  weight for this iteration     100.00

 Free energy of the ion-electron system (eV)
  ---------------------------------------------------
  alpha Z        PSCENC =       748.37912322
  Ewald energy   TEWEN  =    -12681.92061231
  -Hartree energ DENC   =     -8326.81207956
  -exchange      EXHF   =         0.00000000
  -V(xc)+E(xc)   XCENC  =      1119.12836265
  PAW double counting   =     17962.60229656   -18083.85063541
  entropy T*S    EENTRO =        -0.00000000
  eigenvalues    EBANDS =     -3248.45561421
  atomic energy  EATOM  =     22302.35321627
  Solvation  Ediel_sol  =         0.00000000
  ---------------------------------------------------
  free energy    TOTEN  =      -208.57594279 eV

  energy without entropy =     -208.57594279  energy(sigma->0) =     -208.57594279


--------------------------------------------------------------------------------------------------------




--------------------------------------- Iteration      1(   2)  ---------------------------------------


    POTLOK:  cpu time    0.2260: real time    0.2452
    SETDIJ:  cpu time    0.8419: real time    0.8401
     EDDAV:  cpu time    4.2324: real time    4.2297
       DOS:  cpu time    0.0010: real time    0.0009
    CHARGE:  cpu time    0.3769: real time    0.3752
    MIXING:  cpu time    0.0040: real time    0.0045
    --------------------------------------------
      LOOP:  cpu time    5.6821: real time    5.6956

 eigenvalue-minimisations  :  3312
 total energy-change (2. order) :-0.2461263E-03  (-0.2991153E-04)
 number of electron     240.0000002 magnetization      -0.0000000
 augmentation part       62.0035380 magnetization      -0.3825497

 Broyden mixing:
  rms(total) = 0.20903E-01    rms(broyden)= 0.20888E-01
  rms(prec ) = 0.28917E-01
  weight for this iteration     100.00

 eigenvalues of (default mixing * dielectric matrix)
  average eigenvalue GAMMA=   0.2410
  0.2410

 Free energy of the ion-electron system (eV)
  ---------------------------------------------------
  alpha Z        PSCENC =       748.37912322
  Ewald energy   TEWEN  =    -12681.92061231
  -Hartree energ DENC   =     -8326.72578605
  -exchange      EXHF   =         0.00000000
  -V(xc)+E(xc)   XCENC  =      1119.12352370
  PAW double counting   =     17963.56985617   -18084.79813955
  entropy T*S    EENTRO =        -0.00000000
  eigenvalues    EBANDS =     -3248.55737038
  atomic energy  EATOM  =     22302.35321627
  Solvation  Ediel_sol  =         0.00000000
  ---------------------------------------------------
  free energy    TOTEN  =      -208.57618892 eV

  energy without entropy =     -208.57618892  energy(sigma->0) =     -208.57618892


--------------------------------------------------------------------------------------------------------




--------------------------------------- Iteration      1(   3)  ---------------------------------------


    POTLOK:  cpu time    0.2480: real time    0.2567
    SETDIJ:  cpu time    0.8359: real time    0.8350
     EDDAV:  cpu time    4.3373: real time    4.3357
       DOS:  cpu time    0.0010: real time    0.0008
    CHARGE:  cpu time    0.3779: real time    0.3770
    MIXING:  cpu time    0.0030: real time    0.0026
    --------------------------------------------
      LOOP:  cpu time    5.8031: real time    5.8078

 eigenvalue-minimisations  :  3328
 total energy-change (2. order) : 0.1279859E-03  (-0.1875383E-04)
 number of electron     240.0000002 magnetization      -0.0000000
 augmentation part       62.0036245 magnetization      -0.3825724

 Broyden mixing:
  rms(total) = 0.46261E-02    rms(broyden)= 0.46192E-02
  rms(prec ) = 0.48647E-02
  weight for this iteration     100.00

 eigenvalues of (default mixing * dielectric matrix)
  average eigenvalue GAMMA=   1.2303
  2.2072  0.2535

 Free energy of the ion-electron system (eV)
  ---------------------------------------------------
  alpha Z        PSCENC =       748.37912322
  Ewald energy   TEWEN  =    -12681.92061231
  -Hartree energ DENC   =     -8326.73107162
  -exchange      EXHF   =         0.00000000
  -V(xc)+E(xc)   XCENC  =      1119.12393027
  PAW double counting   =     17963.72850653   -18084.95448636
  entropy T*S    EENTRO =        -0.00000000
  eigenvalues    EBANDS =     -3248.55466694
  atomic energy  EATOM  =     22302.35321627
  Solvation  Ediel_sol  =         0.00000000
  ---------------------------------------------------
  free energy    TOTEN  =      -208.57606094 eV

  energy without entropy =     -208.57606094  energy(sigma->0) =     -208.57606094


--------------------------------------------------------------------------------------------------------




--------------------------------------- Iteration      1(   4)  ---------------------------------------


    POTLOK:  cpu time    0.1650: real time    0.1752
    SETDIJ:  cpu time    0.8359: real time    0.8342
     EDDAV:  cpu time    3.6694: real time    3.6730
       DOS:  cpu time    0.0010: real time    0.0008
    CHARGE:  cpu time    0.3819: real time    0.3787
    MIXING:  cpu time    0.0020: real time    0.0024
    --------------------------------------------
      LOOP:  cpu time    5.0552: real time    5.0643

 eigenvalue-minimisations  :  2664
 total energy-change (2. order) :-0.1985321E-03  (-0.9144599E-05)
 number of electron     240.0000002 magnetization      -0.0000000
 augmentation part       62.0040027 magnetization      -0.3826096

 Broyden mixing:
  rms(total) = 0.50817E-02    rms(broyden)= 0.50797E-02
  rms(prec ) = 0.74704E-02
  weight for this iteration     100.00

 eigenvalues of (default mixing * dielectric matrix)
  average eigenvalue GAMMA=   1.0960
  2.4434  0.2706  0.5738

 Free energy of the ion-electron system (eV)
  ---------------------------------------------------
  alpha Z        PSCENC =       748.37912322
  Ewald energy   TEWEN  =    -12681.92061231
  -Hartree energ DENC   =     -8326.78016427
  -exchange      EXHF   =         0.00000000
  -V(xc)+E(xc)   XCENC  =      1119.12754549
  PAW double counting   =     17964.90503265   -18086.11362125
  entropy T*S    EENTRO =        -0.00000000
  eigenvalues    EBANDS =     -3248.52677926
  atomic energy  EATOM  =     22302.35321627
  Solvation  Ediel_sol  =         0.00000000
  ---------------------------------------------------
  free energy    TOTEN  =      -208.57625947 eV

  energy without entropy =     -208.57625947  energy(sigma->0) =     -208.57625947


--------------------------------------------------------------------------------------------------------




--------------------------------------- Iteration      1(   5)  ---------------------------------------


    POTLOK:  cpu time    0.1910: real time    0.1995
    SETDIJ:  cpu time    0.8369: real time    0.8348
     EDDAV:  cpu time    3.5225: real time    3.5200
       DOS:  cpu time    0.0010: real time    0.0010
    CHARGE:  cpu time    0.3789: real time    0.3775
    MIXING:  cpu time    0.0080: real time    0.0074
    --------------------------------------------
      LOOP:  cpu time    4.9382: real time    4.9401

 eigenvalue-minimisations  :  2528
 total energy-change (2. order) : 0.6192800E-05  (-0.9822553E-06)
 number of electron     240.0000002 magnetization      -0.0000000
 augmentation part       62.0038887 magnetization      -0.3825903

 Broyden mixing:
  rms(total) = 0.13642E-02    rms(broyden)= 0.13612E-02
  rms(prec ) = 0.18188E-02
  weight for this iteration     100.00

 eigenvalues of (default mixing * dielectric matrix)
  average eigenvalue GAMMA=   0.9992
  2.4606  0.2720  0.6322  0.6322

 Free energy of the ion-electron system (eV)
  ---------------------------------------------------
  alpha Z        PSCENC =       748.37912322
  Ewald energy   TEWEN  =    -12681.92061231
  -Hartree energ DENC   =     -8326.79347291
  -exchange      EXHF   =         0.00000000
  -V(xc)+E(xc)   XCENC  =      1119.12819194
  PAW double counting   =     17964.98678261   -18086.19317650
  entropy T*S    EENTRO =        -0.00000000
  eigenvalues    EBANDS =     -3248.51630560
  atomic energy  EATOM  =     22302.35321627
  Solvation  Ediel_sol  =         0.00000000
  ---------------------------------------------------
  free energy    TOTEN  =      -208.57625327 eV

  energy without entropy =     -208.57625327  energy(sigma->0) =     -208.57625327


--------------------------------------------------------------------------------------------------------




--------------------------------------- Iteration      1(   6)  ---------------------------------------


    POTLOK:  cpu time    0.1710: real time    0.1878
    SETDIJ:  cpu time    0.8319: real time    0.8409
     EDDAV:  cpu time    2.8756: real time    2.8822
       DOS:  cpu time    0.0010: real time    0.0008
    --------------------------------------------
      LOOP:  cpu time    3.8794: real time    3.9117

 eigenvalue-minimisations  :  1856
 total energy-change (2. order) :-0.4842695E-06  (-0.2407258E-06)
 number of electron     240.0000002 magnetization      -0.0000000
 augmentation part       62.0038887 magnetization      -0.3825903

 Free energy of the ion-electron system (eV)
  ---------------------------------------------------
  alpha Z        PSCENC =       748.37912322
  Ewald energy   TEWEN  =    -12681.92061231
  -Hartree energ DENC   =     -8326.80009767
  -exchange      EXHF   =         0.00000000
  -V(xc)+E(xc)   XCENC  =      1119.12850566
  PAW double counting   =     17964.95550900   -18086.16161437
  entropy T*S    EENTRO =        -0.00000000
  eigenvalues    EBANDS =     -3248.51028355
  atomic energy  EATOM  =     22302.35321627
  Solvation  Ediel_sol  =         0.00000000
  ---------------------------------------------------
  free energy    TOTEN  =      -208.57625376 eV

  energy without entropy =     -208.57625376  energy(sigma->0) =     -208.57625376


--------------------------------------------------------------------------------------------------------




 average (electrostatic) potential at core
  the test charge radii are     1.0397  0.7215  0.7167
  (the norm of the test charge is              1.0000)
       1 -58.0944       2 -60.6373       3 -59.0215       4 -58.9851       5 -58.7403
       6 -58.0187       7 -58.5573       8 -57.9269       9 -73.1775      10 -73.1802
      11 -73.5669      12 -73.5669      13 -73.4634      14 -73.4634      15 -73.2931
      16 -73.2931      17 -79.6022      18 -79.9068      19 -79.0775      20 -78.8723
      21 -79.6022      22 -79.9068      23 -79.0775      24 -78.8723      25 -79.5162
      26 -80.1746      27 -79.5162      28 -80.1747      29 -79.2408      30 -79.2406
      31 -80.7925      32 -80.7925
 
 
 
 E-fermi :   0.2457     XC(G=0):  -8.9202     alpha+bet : -7.5520


 spin component 1

 k-point     1 :       0.2500    0.2500    0.2500
  band No.  band energies     occupation 
      1     -36.6557      1.00000
      2     -36.5463      1.00000
      3     -36.5020      1.00000
      4     -35.0718      1.00000
      5     -35.0425      1.00000
      6     -34.9955      1.00000
      7     -34.9695      1.00000
      8     -34.8094      1.00000
      9     -34.7929      1.00000
     10     -34.6288      1.00000
     11     -34.6151      1.00000
     12     -34.6096      1.00000
     13     -34.5820      1.00000
     14     -34.5523      1.00000
     15     -34.3309      1.00000
     16     -34.1433      1.00000
     17     -34.0883      1.00000
     18     -33.9396      1.00000
     19     -33.7863      1.00000
     20     -33.6875      1.00000
     21     -33.6513      1.00000
     22     -33.6117      1.00000
     23     -33.4738      1.00000
     24     -33.3131      1.00000
     25     -24.6943      1.00000
     26     -24.1216      1.00000
     27     -23.9817      1.00000
     28     -23.6682      1.00000
     29     -23.5981      1.00000
     30     -23.4516      1.00000
     31     -23.2981      1.00000
     32     -23.2921      1.00000
     33     -23.1106      1.00000
     34     -23.0364      1.00000
     35     -22.9691      1.00000
     36     -22.8261      1.00000
     37     -22.7031      1.00000
     38     -22.6480      1.00000
     39     -22.5590      1.00000
     40     -22.3325      1.00000
     41     -16.4152      1.00000
     42     -16.4029      1.00000
     43     -16.2174      1.00000
     44     -15.8884      1.00000
     45     -15.7936      1.00000
     46     -15.6793      1.00000
     47     -15.5410      1.00000
     48     -15.4638      1.00000
     49      -8.2050      1.00000
     50      -7.5392      1.00000
     51      -7.1740      1.00000
     52      -6.8852      1.00000
     53      -6.7548      1.00000
     54      -6.7193      1.00000
     55      -6.5944      1.00000
     56      -6.5730      1.00000
     57      -6.5534      1.00000
     58      -6.4433      1.00000
     59      -6.3130      1.00000
     60      -6.2379      1.00000
     61      -6.1292      1.00000
     62      -6.0180      1.00000
     63      -5.8151      1.00000
     64      -5.7927      1.00000
     65      -5.5883      1.00000
     66      -5.5240      1.00000
     67      -5.5124      1.00000
     68      -5.4363      1.00000
     69      -5.3559      1.00000
     70      -5.1845      1.00000
     71      -5.1784      1.00000
     72      -4.9177      1.00000
     73      -4.8780      1.00000
     74      -4.8304      1.00000
     75      -4.8117      1.00000
     76      -4.7356      1.00000
     77      -4.7194      1.00000
     78      -4.6793      1.00000
     79      -4.6627      1.00000
     80      -4.6334      1.00000
     81      -4.6044      1.00000
     82      -4.5539      1.00000
     83      -4.4730      1.00000
     84      -4.4042      1.00000
     85      -4.2971      1.00000
     86      -4.2895      1.00000
     87      -4.1956      1.00000
     88      -4.1832      1.00000
     89      -4.1120      1.00000
     90      -4.0866      1.00000
     91      -4.0582      1.00000
     92      -3.9747      1.00000
     93      -3.9239      1.00000
     94      -3.9025      1.00000
     95      -3.8691      1.00000
     96      -3.7776      1.00000
     97      -3.7503      1.00000
     98      -3.7246      1.00000
     99      -3.4727      1.00000
    100      -3.3983      1.00000
    101      -2.6406      1.00000
    102      -2.2453      1.00000
    103      -2.0261      1.00000
    104      -1.9713      1.00000
    105      -1.8040      1.00000
    106      -1.6764      1.00000
    107      -1.6525      1.00000
    108      -1.6278      1.00000
    109      -1.6244      1.00000
    110      -1.2945      1.00000
    111      -1.2740      1.00000
    112      -1.2023      1.00000
    113      -1.1117      1.00000
    114      -1.0849      1.00000
    115      -1.0048      1.00000
    116      -0.9157      1.00000
    117      -0.9010      1.00000
    118      -0.5915      1.00000
    119      -0.4466      1.00000
    120      -0.0794      1.00000
    121       1.4105      0.00000
    122       1.4231      0.00000
    123       1.4282      0.00000
    124       2.3081      0.00000
    125       2.4487      0.00000
    126       2.4837      0.00000
    127       2.6008      0.00000
    128       2.7200      0.00000
    129       2.7746      0.00000
    130       2.8263      0.00000
    131       2.8997      0.00000
    132       3.1030      0.00000
    133       3.1229      0.00000
    134       3.1733      0.00000
    135       3.3014      0.00000
    136       3.3906      0.00000
    137       3.4712      0.00000
    138       3.4968      0.00000
    139       3.5480      0.00000
    140       3.6550      0.00000
    141       3.7543      0.00000
    142       3.8600      0.00000
    143       4.0054      0.00000
    144       4.1255      0.00000
    145       4.1625      0.00000
    146       4.2678      0.00000
    147       4.2737      0.00000
    148       4.3425      0.00000
    149       4.3812      0.00000
    150       4.5737      0.00000
    151       4.7141      0.00000
    152       4.7208      0.00000
    153       4.9756      0.00000
    154       5.2459      0.00000
    155       5.4779      0.00000
    156       5.6470      0.00000
    157       5.9225      0.00000
    158       6.1261      0.00000
    159       6.4157      0.00000
    160       6.6855      0.00000

 k-point     2 :      -0.2500    0.2500    0.2500
  band No.  band energies     occupation 
      1     -36.6557      1.00000
      2     -36.5463      1.00000
      3     -36.5020      1.00000
      4     -35.0718      1.00000
      5     -35.0425      1.00000
      6     -34.9955      1.00000
      7     -34.9695      1.00000
      8     -34.8094      1.00000
      9     -34.7929      1.00000
     10     -34.6288      1.00000
     11     -34.6151      1.00000
     12     -34.6096      1.00000
     13     -34.5820      1.00000
     14     -34.5523      1.00000
     15     -34.3309      1.00000
     16     -34.1433      1.00000
     17     -34.0883      1.00000
     18     -33.9396      1.00000
     19     -33.7863      1.00000
     20     -33.6875      1.00000
     21     -33.6513      1.00000
     22     -33.6117      1.00000
     23     -33.4738      1.00000
     24     -33.3131      1.00000
     25     -24.6943      1.00000
     26     -24.1216      1.00000
     27     -23.9817      1.00000
     28     -23.6681      1.00000
     29     -23.5981      1.00000
     30     -23.4517      1.00000
     31     -23.2980      1.00000
     32     -23.2921      1.00000
     33     -23.1107      1.00000
     34     -23.0363      1.00000
     35     -22.9691      1.00000
     36     -22.8261      1.00000
     37     -22.7032      1.00000
     38     -22.6480      1.00000
     39     -22.5590      1.00000
     40     -22.3325      1.00000
     41     -16.4152      1.00000
     42     -16.4029      1.00000
     43     -16.2174      1.00000
     44     -15.8884      1.00000
     45     -15.7936      1.00000
     46     -15.6793      1.00000
     47     -15.5410      1.00000
     48     -15.4638      1.00000
     49      -8.2050      1.00000
     50      -7.5392      1.00000
     51      -7.1740      1.00000
     52      -6.8855      1.00000
     53      -6.7545      1.00000
     54      -6.7190      1.00000
     55      -6.5949      1.00000
     56      -6.5726      1.00000
     57      -6.5533      1.00000
     58      -6.4433      1.00000
     59      -6.3130      1.00000
     60      -6.2379      1.00000
     61      -6.1294      1.00000
     62      -6.0179      1.00000
     63      -5.8166      1.00000
     64      -5.7912      1.00000
     65      -5.5886      1.00000
     66      -5.5249      1.00000
     67      -5.5113      1.00000
     68      -5.4364      1.00000
     69      -5.3558      1.00000
     70      -5.1847      1.00000
     71      -5.1784      1.00000
     72      -4.9174      1.00000
     73      -4.8766      1.00000
     74      -4.8308      1.00000
     75      -4.8119      1.00000
     76      -4.7356      1.00000
     77      -4.7195      1.00000
     78      -4.6793      1.00000
     79      -4.6625      1.00000
     80      -4.6334      1.00000
     81      -4.6044      1.00000
     82      -4.5539      1.00000
     83      -4.4730      1.00000
     84      -4.4041      1.00000
     85      -4.2988      1.00000
     86      -4.2895      1.00000
     87      -4.1958      1.00000
     88      -4.1831      1.00000
     89      -4.1120      1.00000
     90      -4.0865      1.00000
     91      -4.0574      1.00000
     92      -3.9748      1.00000
     93      -3.9247      1.00000
     94      -3.9026      1.00000
     95      -3.8691      1.00000
     96      -3.7774      1.00000
     97      -3.7503      1.00000
     98      -3.7246      1.00000
     99      -3.4727      1.00000
    100      -3.3978      1.00000
    101      -2.6406      1.00000
    102      -2.2453      1.00000
    103      -2.0261      1.00000
    104      -1.9713      1.00000
    105      -1.8040      1.00000
    106      -1.6765      1.00000
    107      -1.6525      1.00000
    108      -1.6277      1.00000
    109      -1.6244      1.00000
    110      -1.2945      1.00000
    111      -1.2740      1.00000
    112      -1.2022      1.00000
    113      -1.1117      1.00000
    114      -1.0850      1.00000
    115      -1.0049      1.00000
    116      -0.9156      1.00000
    117      -0.9010      1.00000
    118      -0.5914      1.00000
    119      -0.4466      1.00000
    120      -0.0794      1.00000
    121       1.4105      0.00000
    122       1.4230      0.00000
    123       1.4284      0.00000
    124       2.3080      0.00000
    125       2.4486      0.00000
    126       2.4837      0.00000
    127       2.6008      0.00000
    128       2.7201      0.00000
    129       2.7746      0.00000
    130       2.8263      0.00000
    131       2.8997      0.00000
    132       3.1032      0.00000
    133       3.1228      0.00000
    134       3.1733      0.00000
    135       3.3014      0.00000
    136       3.3906      0.00000
    137       3.4713      0.00000
    138       3.4968      0.00000
    139       3.5480      0.00000
    140       3.6551      0.00000
    141       3.7543      0.00000
    142       3.8598      0.00000
    143       4.0054      0.00000
    144       4.1255      0.00000
    145       4.1625      0.00000
    146       4.2679      0.00000
    147       4.2738      0.00000
    148       4.3424      0.00000
    149       4.3811      0.00000
    150       4.5737      0.00000
    151       4.7141      0.00000
    152       4.7208      0.00000
    153       4.9756      0.00000
    154       5.2459      0.00000
    155       5.4780      0.00000
    156       5.6470      0.00000
    157       5.9226      0.00000
    158       6.1260      0.00000
    159       6.4155      0.00000
    160       6.6856      0.00000

 k-point     3 :       0.2500   -0.2500    0.2500
  band No.  band energies     occupation 
      1     -36.6557      1.00000
      2     -36.5463      1.00000
      3     -36.5020      1.00000
      4     -35.0718      1.00000
      5     -35.0425      1.00000
      6     -34.9955      1.00000
      7     -34.9695      1.00000
      8     -34.8094      1.00000
      9     -34.7929      1.00000
     10     -34.6288      1.00000
     11     -34.6151      1.00000
     12     -34.6096      1.00000
     13     -34.5820      1.00000
     14     -34.5523      1.00000
     15     -34.3309      1.00000
     16     -34.1433      1.00000
     17     -34.0883      1.00000
     18     -33.9396      1.00000
     19     -33.7863      1.00000
     20     -33.6875      1.00000
     21     -33.6513      1.00000
     22     -33.6117      1.00000
     23     -33.4738      1.00000
     24     -33.3131      1.00000
     25     -24.6943      1.00000
     26     -24.1216      1.00000
     27     -23.9817      1.00000
     28     -23.6681      1.00000
     29     -23.5981      1.00000
     30     -23.4517      1.00000
     31     -23.2980      1.00000
     32     -23.2921      1.00000
     33     -23.1107      1.00000
     34     -23.0363      1.00000
     35     -22.9691      1.00000
     36     -22.8261      1.00000
     37     -22.7032      1.00000
     38     -22.6480      1.00000
     39     -22.5590      1.00000
     40     -22.3325      1.00000
     41     -16.4152      1.00000
     42     -16.4029      1.00000
     43     -16.2174      1.00000
     44     -15.8884      1.00000
     45     -15.7936      1.00000
     46     -15.6793      1.00000
     47     -15.5409      1.00000
     48     -15.4638      1.00000
     49      -8.2050      1.00000
     50      -7.5392      1.00000
     51      -7.1740      1.00000
     52      -6.8855      1.00000
     53      -6.7546      1.00000
     54      -6.7190      1.00000
     55      -6.5949      1.00000
     56      -6.5727      1.00000
     57      -6.5533      1.00000
     58      -6.4433      1.00000
     59      -6.3130      1.00000
     60      -6.2379      1.00000
     61      -6.1294      1.00000
     62      -6.0179      1.00000
     63      -5.8166      1.00000
     64      -5.7912      1.00000
     65      -5.5886      1.00000
     66      -5.5249      1.00000
     67      -5.5113      1.00000
     68      -5.4365      1.00000
     69      -5.3558      1.00000
     70      -5.1847      1.00000
     71      -5.1785      1.00000
     72      -4.9174      1.00000
     73      -4.8766      1.00000
     74      -4.8308      1.00000
     75      -4.8118      1.00000
     76      -4.7356      1.00000
     77      -4.7195      1.00000
     78      -4.6793      1.00000
     79      -4.6625      1.00000
     80      -4.6335      1.00000
     81      -4.6044      1.00000
     82      -4.5538      1.00000
     83      -4.4730      1.00000
     84      -4.4042      1.00000
     85      -4.2988      1.00000
     86      -4.2895      1.00000
     87      -4.1958      1.00000
     88      -4.1831      1.00000
     89      -4.1120      1.00000
     90      -4.0865      1.00000
     91      -4.0574      1.00000
     92      -3.9748      1.00000
     93      -3.9247      1.00000
     94      -3.9026      1.00000
     95      -3.8691      1.00000
     96      -3.7774      1.00000
     97      -3.7503      1.00000
     98      -3.7246      1.00000
     99      -3.4727      1.00000
    100      -3.3978      1.00000
    101      -2.6407      1.00000
    102      -2.2453      1.00000
    103      -2.0261      1.00000
    104      -1.9713      1.00000
    105      -1.8040      1.00000
    106      -1.6765      1.00000
    107      -1.6526      1.00000
    108      -1.6277      1.00000
    109      -1.6244      1.00000
    110      -1.2945      1.00000
    111      -1.2740      1.00000
    112      -1.2022      1.00000
    113      -1.1116      1.00000
    114      -1.0850      1.00000
    115      -1.0049      1.00000
    116      -0.9156      1.00000
    117      -0.9009      1.00000
    118      -0.5914      1.00000
    119      -0.4467      1.00000
    120      -0.0794      1.00000
    121       1.4105      0.00000
    122       1.4230      0.00000
    123       1.4284      0.00000
    124       2.3080      0.00000
    125       2.4486      0.00000
    126       2.4837      0.00000
    127       2.6008      0.00000
    128       2.7201      0.00000
    129       2.7746      0.00000
    130       2.8263      0.00000
    131       2.8997      0.00000
    132       3.1032      0.00000
    133       3.1229      0.00000
    134       3.1733      0.00000
    135       3.3014      0.00000
    136       3.3906      0.00000
    137       3.4713      0.00000
    138       3.4968      0.00000
    139       3.5480      0.00000
    140       3.6551      0.00000
    141       3.7543      0.00000
    142       3.8598      0.00000
    143       4.0054      0.00000
    144       4.1255      0.00000
    145       4.1625      0.00000
    146       4.2679      0.00000
    147       4.2738      0.00000
    148       4.3424      0.00000
    149       4.3811      0.00000
    150       4.5737      0.00000
    151       4.7141      0.00000
    152       4.7208      0.00000
    153       4.9756      0.00000
    154       5.2459      0.00000
    155       5.4780      0.00000
    156       5.6470      0.00000
    157       5.9226      0.00000
    158       6.1260      0.00000
    159       6.4155      0.00000
    160       6.6856      0.00000

 k-point     4 :      -0.2500   -0.2500    0.2500
  band No.  band energies     occupation 
      1     -36.6557      1.00000
      2     -36.5463      1.00000
      3     -36.5020      1.00000
      4     -35.0718      1.00000
      5     -35.0425      1.00000
      6     -34.9955      1.00000
      7     -34.9695      1.00000
      8     -34.8094      1.00000
      9     -34.7929      1.00000
     10     -34.6288      1.00000
     11     -34.6151      1.00000
     12     -34.6096      1.00000
     13     -34.5820      1.00000
     14     -34.5523      1.00000
     15     -34.3309      1.00000
     16     -34.1433      1.00000
     17     -34.0883      1.00000
     18     -33.9396      1.00000
     19     -33.7863      1.00000
     20     -33.6875      1.00000
     21     -33.6513      1.00000
     22     -33.6117      1.00000
     23     -33.4738      1.00000
     24     -33.3131      1.00000
     25     -24.6943      1.00000
     26     -24.1216      1.00000
     27     -23.9817      1.00000
     28     -23.6682      1.00000
     29     -23.5981      1.00000
     30     -23.4516      1.00000
     31     -23.2981      1.00000
     32     -23.2921      1.00000
     33     -23.1106      1.00000
     34     -23.0364      1.00000
     35     -22.9691      1.00000
     36     -22.8261      1.00000
     37     -22.7031      1.00000
     38     -22.6480      1.00000
     39     -22.5590      1.00000
     40     -22.3325      1.00000
     41     -16.4152      1.00000
     42     -16.4029      1.00000
     43     -16.2174      1.00000
     44     -15.8884      1.00000
     45     -15.7936      1.00000
     46     -15.6793      1.00000
     47     -15.5409      1.00000
     48     -15.4638      1.00000
     49      -8.2050      1.00000
     50      -7.5392      1.00000
     51      -7.1740      1.00000
     52      -6.8852      1.00000
     53      -6.7547      1.00000
     54      -6.7192      1.00000
     55      -6.5944      1.00000
     56      -6.5730      1.00000
     57      -6.5534      1.00000
     58      -6.4433      1.00000
     59      -6.3130      1.00000
     60      -6.2379      1.00000
     61      -6.1292      1.00000
     62      -6.0180      1.00000
     63      -5.8151      1.00000
     64      -5.7927      1.00000
     65      -5.5883      1.00000
     66      -5.5240      1.00000
     67      -5.5124      1.00000
     68      -5.4363      1.00000
     69      -5.3559      1.00000
     70      -5.1845      1.00000
     71      -5.1784      1.00000
     72      -4.9177      1.00000
     73      -4.8780      1.00000
     74      -4.8305      1.00000
     75      -4.8117      1.00000
     76      -4.7356      1.00000
     77      -4.7194      1.00000
     78      -4.6793      1.00000
     79      -4.6627      1.00000
     80      -4.6333      1.00000
     81      -4.6044      1.00000
     82      -4.5540      1.00000
     83      -4.4730      1.00000
     84      -4.4042      1.00000
     85      -4.2971      1.00000
     86      -4.2895      1.00000
     87      -4.1956      1.00000
     88      -4.1832      1.00000
     89      -4.1120      1.00000
     90      -4.0866      1.00000
     91      -4.0582      1.00000
     92      -3.9748      1.00000
     93      -3.9239      1.00000
     94      -3.9025      1.00000
     95      -3.8691      1.00000
     96      -3.7776      1.00000
     97      -3.7503      1.00000
     98      -3.7246      1.00000
     99      -3.4727      1.00000
    100      -3.3983      1.00000
    101      -2.6406      1.00000
    102      -2.2453      1.00000
    103      -2.0261      1.00000
    104      -1.9713      1.00000
    105      -1.8040      1.00000
    106      -1.6764      1.00000
    107      -1.6525      1.00000
    108      -1.6278      1.00000
    109      -1.6244      1.00000
    110      -1.2945      1.00000
    111      -1.2740      1.00000
    112      -1.2023      1.00000
    113      -1.1116      1.00000
    114      -1.0850      1.00000
    115      -1.0049      1.00000
    116      -0.9156      1.00000
    117      -0.9010      1.00000
    118      -0.5915      1.00000
    119      -0.4467      1.00000
    120      -0.0794      1.00000
    121       1.4105      0.00000
    122       1.4231      0.00000
    123       1.4282      0.00000
    124       2.3081      0.00000
    125       2.4486      0.00000
    126       2.4837      0.00000
    127       2.6008      0.00000
    128       2.7200      0.00000
    129       2.7746      0.00000
    130       2.8263      0.00000
    131       2.8997      0.00000
    132       3.1030      0.00000
    133       3.1229      0.00000
    134       3.1733      0.00000
    135       3.3014      0.00000
    136       3.3906      0.00000
    137       3.4712      0.00000
    138       3.4968      0.00000
    139       3.5479      0.00000
    140       3.6551      0.00000
    141       3.7543      0.00000
    142       3.8600      0.00000
    143       4.0054      0.00000
    144       4.1255      0.00000
    145       4.1625      0.00000
    146       4.2678      0.00000
    147       4.2737      0.00000
    148       4.3425      0.00000
    149       4.3812      0.00000
    150       4.5737      0.00000
    151       4.7141      0.00000
    152       4.7208      0.00000
    153       4.9756      0.00000
    154       5.2459      0.00000
    155       5.4779      0.00000
    156       5.6470      0.00000
    157       5.9225      0.00000
    158       6.1261      0.00000
    159       6.4157      0.00000
    160       6.6855      0.00000

 spin component 2

 k-point     1 :       0.2500    0.2500    0.2500
  band No.  band energies     occupation 
      1     -36.7260      1.00000
      2     -36.5738      1.00000
      3     -36.5721      1.00000
      4     -35.0790      1.00000
      5     -35.0489      1.00000
      6     -34.9973      1.00000
      7     -34.9807      1.00000
      8     -34.9728      1.00000
      9     -34.8033      1.00000
     10     -34.7910      1.00000
     11     -34.6216      1.00000
     12     -34.6112      1.00000
     13     -34.5935      1.00000
     14     -34.5670      1.00000
     15     -34.5585      1.00000
     16     -34.4145      1.00000
     17     -34.3341      1.00000
     18     -34.1518      1.00000
     19     -34.1297      1.00000
     20     -33.9779      1.00000
     21     -33.8294      1.00000
     22     -33.7405      1.00000
     23     -33.7011      1.00000
     24     -33.6679      1.00000
     25     -24.7047      1.00000
     26     -24.1433      1.00000
     27     -23.9850      1.00000
     28     -23.6673      1.00000
     29     -23.5998      1.00000
     30     -23.4492      1.00000
     31     -23.3085      1.00000
     32     -23.2904      1.00000
     33     -23.0991      1.00000
     34     -23.0229      1.00000
     35     -22.9958      1.00000
     36     -22.8247      1.00000
     37     -22.6837      1.00000
     38     -22.6481      1.00000
     39     -22.5584      1.00000
     40     -22.3327      1.00000
     41     -16.4153      1.00000
     42     -16.2147      1.00000
     43     -16.0023      1.00000
     44     -15.7937      1.00000
     45     -15.5858      1.00000
     46     -15.4272      1.00000
     47     -15.2924      1.00000
     48     -15.0326      1.00000
     49      -8.2504      1.00000
     50      -7.5451      1.00000
     51      -7.1794      1.00000
     52      -6.9178      1.00000
     53      -6.8004      1.00000
     54      -6.7796      1.00000
     55      -6.7260      1.00000
     56      -6.6041      1.00000
     57      -6.5531      1.00000
     58      -6.4589      1.00000
     59      -6.3144      1.00000
     60      -6.2418      1.00000
     61      -6.1330      1.00000
     62      -6.0222      1.00000
     63      -5.9062      1.00000
     64      -5.8078      1.00000
     65      -5.6102      1.00000
     66      -5.5948      1.00000
     67      -5.5181      1.00000
     68      -5.4304      1.00000
     69      -5.3543      1.00000
     70      -5.1898      1.00000
     71      -5.1828      1.00000
     72      -4.9173      1.00000
     73      -4.8765      1.00000
     74      -4.8442      1.00000
     75      -4.8102      1.00000
     76      -4.7864      1.00000
     77      -4.6943      1.00000
     78      -4.6661      1.00000
     79      -4.6506      1.00000
     80      -4.6470      1.00000
     81      -4.6045      1.00000
     82      -4.5618      1.00000
     83      -4.4688      1.00000
     84      -4.3784      1.00000
     85      -4.2904      1.00000
     86      -4.2875      1.00000
     87      -4.2229      1.00000
     88      -4.1572      1.00000
     89      -4.1080      1.00000
     90      -4.0527      1.00000
     91      -4.0463      1.00000
     92      -3.9394      1.00000
     93      -3.9137      1.00000
     94      -3.8990      1.00000
     95      -3.8605      1.00000
     96      -3.7691      1.00000
     97      -3.7320      1.00000
     98      -3.7140      1.00000
     99      -3.3930      1.00000
    100      -3.3533      1.00000
    101      -2.2903      1.00000
    102      -2.0568      1.00000
    103      -2.0028      1.00000
    104      -1.7783      1.00000
    105      -1.7081      1.00000
    106      -1.6663      1.00000
    107      -1.6200      1.00000
    108      -1.5729      1.00000
    109      -1.4563      1.00000
    110      -1.3105      1.00000
    111      -1.2021      1.00000
    112      -1.1433      1.00000
    113      -1.0148      1.00000
    114      -0.9264      1.00000
    115      -0.8365      1.00000
    116      -0.7871      1.00000
    117      -0.5762      1.00000
    118      -0.4000      1.00000
    119      -0.3498      1.00000
    120       0.1876      1.00000
    121       0.4973      0.00000
    122       1.2708      0.00000
    123       1.3599      0.00000
    124       1.3670      0.00000
    125       2.2228      0.00000
    126       2.4304      0.00000
    127       2.4757      0.00000
    128       2.5880      0.00000
    129       2.6725      0.00000
    130       2.7179      0.00000
    131       2.7684      0.00000
    132       2.9065      0.00000
    133       2.9362      0.00000
    134       2.9548      0.00000
    135       3.0097      0.00000
    136       3.1346      0.00000
    137       3.2280      0.00000
    138       3.2862      0.00000
    139       3.3833      0.00000
    140       3.5936      0.00000
    141       3.6574      0.00000
    142       3.7457      0.00000
    143       3.8045      0.00000
    144       3.9581      0.00000
    145       4.0370      0.00000
    146       4.1300      0.00000
    147       4.2455      0.00000
    148       4.2857      0.00000
    149       4.3229      0.00000
    150       4.3610      0.00000
    151       4.6426      0.00000
    152       4.7509      0.00000
    153       4.9083      0.00000
    154       5.2259      0.00000
    155       5.2444      0.00000
    156       5.4895      0.00000
    157       5.8828      0.00000
    158       6.0549      0.00000
    159       6.4030      0.00000
    160       6.6736      0.00000

 k-point     2 :      -0.2500    0.2500    0.2500
  band No.  band energies     occupation 
      1     -36.7260      1.00000
      2     -36.5738      1.00000
      3     -36.5721      1.00000
      4     -35.0790      1.00000
      5     -35.0489      1.00000
      6     -34.9973      1.00000
      7     -34.9807      1.00000
      8     -34.9728      1.00000
      9     -34.8033      1.00000
     10     -34.7910      1.00000
     11     -34.6216      1.00000
     12     -34.6112      1.00000
     13     -34.5935      1.00000
     14     -34.5670      1.00000
     15     -34.5585      1.00000
     16     -34.4145      1.00000
     17     -34.3341      1.00000
     18     -34.1518      1.00000
     19     -34.1297      1.00000
     20     -33.9779      1.00000
     21     -33.8294      1.00000
     22     -33.7405      1.00000
     23     -33.7011      1.00000
     24     -33.6679      1.00000
     25     -24.7047      1.00000
     26     -24.1433      1.00000
     27     -23.9850      1.00000
     28     -23.6672      1.00000
     29     -23.5998      1.00000
     30     -23.4493      1.00000
     31     -23.3083      1.00000
     32     -23.2904      1.00000
     33     -23.0993      1.00000
     34     -23.0228      1.00000
     35     -22.9959      1.00000
     36     -22.8246      1.00000
     37     -22.6838      1.00000
     38     -22.6481      1.00000
     39     -22.5584      1.00000
     40     -22.3327      1.00000
     41     -16.4153      1.00000
     42     -16.2147      1.00000
     43     -16.0023      1.00000
     44     -15.7937      1.00000
     45     -15.5858      1.00000
     46     -15.4272      1.00000
     47     -15.2924      1.00000
     48     -15.0326      1.00000
     49      -8.2504      1.00000
     50      -7.5451      1.00000
     51      -7.1794      1.00000
     52      -6.9180      1.00000
     53      -6.8002      1.00000
     54      -6.7796      1.00000
     55      -6.7257      1.00000
     56      -6.6043      1.00000
     57      -6.5531      1.00000
     58      -6.4589      1.00000
     59      -6.3144      1.00000
     60      -6.2417      1.00000
     61      -6.1332      1.00000
     62      -6.0220      1.00000
     63      -5.9063      1.00000
     64      -5.8078      1.00000
     65      -5.6104      1.00000
     66      -5.5946      1.00000
     67      -5.5181      1.00000
     68      -5.4305      1.00000
     69      -5.3542      1.00000
     70      -5.1898      1.00000
     71      -5.1829      1.00000
     72      -4.9170      1.00000
     73      -4.8753      1.00000
     74      -4.8441      1.00000
     75      -4.8105      1.00000
     76      -4.7864      1.00000
     77      -4.6943      1.00000
     78      -4.6661      1.00000
     79      -4.6506      1.00000
     80      -4.6470      1.00000
     81      -4.6045      1.00000
     82      -4.5618      1.00000
     83      -4.4688      1.00000
     84      -4.3783      1.00000
     85      -4.2921      1.00000
     86      -4.2875      1.00000
     87      -4.2230      1.00000
     88      -4.1573      1.00000
     89      -4.1081      1.00000
     90      -4.0520      1.00000
     91      -4.0462      1.00000
     92      -3.9396      1.00000
     93      -3.9143      1.00000
     94      -3.8991      1.00000
     95      -3.8604      1.00000
     96      -3.7688      1.00000
     97      -3.7321      1.00000
     98      -3.7139      1.00000
     99      -3.3925      1.00000
    100      -3.3533      1.00000
    101      -2.2903      1.00000
    102      -2.0569      1.00000
    103      -2.0027      1.00000
    104      -1.7783      1.00000
    105      -1.7080      1.00000
    106      -1.6662      1.00000
    107      -1.6199      1.00000
    108      -1.5730      1.00000
    109      -1.4563      1.00000
    110      -1.3105      1.00000
    111      -1.2020      1.00000
    112      -1.1432      1.00000
    113      -1.0148      1.00000
    114      -0.9264      1.00000
    115      -0.8365      1.00000
    116      -0.7871      1.00000
    117      -0.5762      1.00000
    118      -0.4000      1.00000
    119      -0.3497      1.00000
    120       0.1876      1.00000
    121       0.4973      0.00000
    122       1.2708      0.00000
    123       1.3599      0.00000
    124       1.3669      0.00000
    125       2.2227      0.00000
    126       2.4304      0.00000
    127       2.4757      0.00000
    128       2.5880      0.00000
    129       2.6725      0.00000
    130       2.7180      0.00000
    131       2.7684      0.00000
    132       2.9070      0.00000
    133       2.9360      0.00000
    134       2.9547      0.00000
    135       3.0096      0.00000
    136       3.1346      0.00000
    137       3.2280      0.00000
    138       3.2861      0.00000
    139       3.3834      0.00000
    140       3.5936      0.00000
    141       3.6575      0.00000
    142       3.7457      0.00000
    143       3.8044      0.00000
    144       3.9581      0.00000
    145       4.0369      0.00000
    146       4.1300      0.00000
    147       4.2457      0.00000
    148       4.2857      0.00000
    149       4.3229      0.00000
    150       4.3610      0.00000
    151       4.6426      0.00000
    152       4.7509      0.00000
    153       4.9083      0.00000
    154       5.2259      0.00000
    155       5.2444      0.00000
    156       5.4895      0.00000
    157       5.8828      0.00000
    158       6.0548      0.00000
    159       6.4028      0.00000
    160       6.6737      0.00000

 k-point     3 :       0.2500   -0.2500    0.2500
  band No.  band energies     occupation 
      1     -36.7260      1.00000
      2     -36.5738      1.00000
      3     -36.5721      1.00000
      4     -35.0790      1.00000
      5     -35.0489      1.00000
      6     -34.9973      1.00000
      7     -34.9807      1.00000
      8     -34.9728      1.00000
      9     -34.8033      1.00000
     10     -34.7910      1.00000
     11     -34.6216      1.00000
     12     -34.6112      1.00000
     13     -34.5935      1.00000
     14     -34.5670      1.00000
     15     -34.5585      1.00000
     16     -34.4145      1.00000
     17     -34.3341      1.00000
     18     -34.1518      1.00000
     19     -34.1297      1.00000
     20     -33.9779      1.00000
     21     -33.8294      1.00000
     22     -33.7405      1.00000
     23     -33.7011      1.00000
     24     -33.6679      1.00000
     25     -24.7047      1.00000
     26     -24.1433      1.00000
     27     -23.9850      1.00000
     28     -23.6672      1.00000
     29     -23.5998      1.00000
     30     -23.4493      1.00000
     31     -23.3083      1.00000
     32     -23.2904      1.00000
     33     -23.0993      1.00000
     34     -23.0228      1.00000
     35     -22.9959      1.00000
     36     -22.8246      1.00000
     37     -22.6838      1.00000
     38     -22.6481      1.00000
     39     -22.5584      1.00000
     40     -22.3327      1.00000
     41     -16.4153      1.00000
     42     -16.2147      1.00000
     43     -16.0023      1.00000
     44     -15.7937      1.00000
     45     -15.5858      1.00000
     46     -15.4272      1.00000
     47     -15.2924      1.00000
     48     -15.0326      1.00000
     49      -8.2504      1.00000
     50      -7.5451      1.00000
     51      -7.1794      1.00000
     52      -6.9180      1.00000
     53      -6.8003      1.00000
     54      -6.7796      1.00000
     55      -6.7258      1.00000
     56      -6.6042      1.00000
     57      -6.5531      1.00000
     58      -6.4588      1.00000
     59      -6.3144      1.00000
     60      -6.2418      1.00000
     61      -6.1332      1.00000
     62      -6.0220      1.00000
     63      -5.9063      1.00000
     64      -5.8078      1.00000
     65      -5.6104      1.00000
     66      -5.5946      1.00000
     67      -5.5181      1.00000
     68      -5.4305      1.00000
     69      -5.3542      1.00000
     70      -5.1898      1.00000
     71      -5.1829      1.00000
     72      -4.9170      1.00000
     73      -4.8753      1.00000
     74      -4.8441      1.00000
     75      -4.8105      1.00000
     76      -4.7864      1.00000
     77      -4.6943      1.00000
     78      -4.6661      1.00000
     79      -4.6506      1.00000
     80      -4.6470      1.00000
     81      -4.6045      1.00000
     82      -4.5618      1.00000
     83      -4.4688      1.00000
     84      -4.3784      1.00000
     85      -4.2921      1.00000
     86      -4.2875      1.00000
     87      -4.2229      1.00000
     88      -4.1573      1.00000
     89      -4.1080      1.00000
     90      -4.0520      1.00000
     91      -4.0462      1.00000
     92      -3.9396      1.00000
     93      -3.9143      1.00000
     94      -3.8991      1.00000
     95      -3.8605      1.00000
     96      -3.7688      1.00000
     97      -3.7321      1.00000
     98      -3.7140      1.00000
     99      -3.3925      1.00000
    100      -3.3533      1.00000
    101      -2.2903      1.00000
    102      -2.0569      1.00000
    103      -2.0027      1.00000
    104      -1.7783      1.00000
    105      -1.7081      1.00000
    106      -1.6662      1.00000
    107      -1.6200      1.00000
    108      -1.5730      1.00000
    109      -1.4562      1.00000
    110      -1.3105      1.00000
[...]
 -0.000  -0.000  -0.000   0.000  -0.000  -0.000   0.000  -0.008  -0.000  -0.010  -0.000   0.000  -0.005   0.000   0.003  -0.000
 -0.000  -0.000  -0.000  -0.000  -0.000  -0.000  -0.000  -0.000   0.003  -0.000  -0.016   0.000  -0.000   0.000  -0.000   0.002
 -0.000  -0.000  -0.000   0.000  -0.000   0.000   0.003   0.000  -0.000   0.000   0.000   0.006   0.000   0.000   0.000  -0.000
  0.000  -0.000   0.000   0.000   0.000  -0.000   0.000  -0.575  -0.000  -0.005  -0.000   0.000  -0.457  -0.000  -0.004  -0.000
  0.000  -0.000  -0.000  -0.000  -0.000   0.000   0.000  -0.000   0.003   0.000   0.000   0.000  -0.000   0.016   0.000  -0.005
  0.000   0.000  -0.000   0.000   0.000  -0.000   0.000  -0.005  -0.000   0.003  -0.000   0.000  -0.004   0.000   0.006   0.000
  0.000   0.000   0.000  -0.000  -0.000   0.000   0.000  -0.000  -0.000  -0.000   0.002  -0.000  -0.000  -0.005   0.000   0.024
 -0.000  -0.000   0.000  -0.000  -0.000  -0.000  -0.000   0.000  -0.004   0.000   0.008   0.000   0.000   0.015  -0.000  -0.023
 -0.000  -0.000  -0.000   0.000  -0.000  -0.000  -0.000  -0.000  -0.013   0.000   0.023   0.000  -0.000   0.020  -0.000  -0.033


------------------------ aborting loop because EDIFF is reached ----------------------------------------


 


 total charge     
 
# of ion       s       p       d       tot
------------------------------------------
    1        0.250   6.357   1.850   8.456
    2        0.330   6.525   1.757   8.612
    3        0.306   6.463   1.706   8.475
    4        0.299   6.458   1.720   8.477
    5        0.300   6.467   1.743   8.511
    6        0.299   6.447   1.718   8.465
    7        0.300   6.465   1.738   8.504
    8        0.304   6.448   1.691   8.442
    9        1.569   3.366   0.000   4.935
   10        1.569   3.367   0.000   4.936
   11        1.568   3.439   0.000   5.007
   12        1.568   3.439   0.000   5.007
   13        1.571   3.426   0.000   4.997
   14        1.571   3.426   0.000   4.997
   15        1.572   3.421   0.000   4.993
   16        1.572   3.421   0.000   4.993
   17        1.729   4.388   0.000   6.116
   18        1.732   4.371   0.000   6.103
   19        1.729   4.380   0.000   6.109
   20        1.730   4.377   0.000   6.107
   21        1.729   4.388   0.000   6.116
   22        1.732   4.371   0.000   6.103
   23        1.729   4.380   0.000   6.109
   24        1.730   4.377   0.000   6.107
   25        1.729   4.395   0.000   6.124
   26        1.731   4.384   0.000   6.115
   27        1.729   4.395   0.000   6.124
   28        1.731   4.384   0.000   6.115
   29        1.730   4.387   0.000   6.117
   30        1.730   4.387   0.000   6.117
   31        1.734   4.411   0.000   6.145
   32        1.734   4.411   0.000   6.145
--------------------------------------------------
tot         42.636 149.122  13.924 205.682
 


 magnetization (x)
 
# of ion       s       p       d       tot
------------------------------------------
    1       -0.004  -0.007  -0.889  -0.899
    2       -0.000  -0.000  -0.055  -0.056
    3        0.000   0.000  -0.005  -0.004
    4       -0.000  -0.000  -0.005  -0.005
    5       -0.000   0.001  -0.003  -0.003
    6       -0.002  -0.004  -0.048  -0.053
    7       -0.000   0.001  -0.008  -0.007
    8       -0.002  -0.004  -0.050  -0.056
    9        0.003   0.242   0.000   0.246
   10        0.003   0.243   0.000   0.246
   11       -0.000   0.000   0.000   0.000
   12       -0.000   0.000   0.000   0.000
   13        0.001   0.094   0.000   0.095
   14        0.001   0.094   0.000   0.095
   15        0.002   0.113   0.000   0.115
   16        0.002   0.113   0.000   0.115
   17        0.000   0.009   0.000   0.009
   18       -0.000   0.002   0.000   0.002
   19       -0.000   0.000   0.000   0.000
   20       -0.000   0.000   0.000   0.000
   21        0.000   0.009   0.000   0.009
   22       -0.000   0.002   0.000   0.002
   23       -0.000   0.000   0.000   0.000
   24       -0.000   0.000   0.000   0.000
   25        0.000  -0.006   0.000  -0.005
   26        0.000  -0.000   0.000  -0.000
   27        0.000  -0.006   0.000  -0.005
   28        0.000  -0.000   0.000  -0.000
   29        0.000   0.011   0.000   0.011
   30        0.000   0.011   0.000   0.011
   31        0.000   0.003   0.000   0.003
   32        0.000   0.003   0.000   0.003
--------------------------------------------------
tot          0.007   0.925  -1.063  -0.131
 
    CHARGE:  cpu time    0.4889: real time    0.4873
    FORLOC:  cpu time    0.0100: real time    0.0104
    FORNL :  cpu time    2.0447: real time    2.0399
    STRESS:  cpu time    6.3660: real time    6.3503
    FORCOR:  cpu time    0.1300: real time    0.1301
    FORHAR:  cpu time    0.0220: real time    0.0216
    MIXING:  cpu time    0.0020: real time    0.0018
    OFIELD:  cpu time    0.0000: real time    0.0000

  FORCE on cell =-STRESS in cart. coord.  units (eV):
  Direction    XX          YY          ZZ          XY          YZ          ZX
  --------------------------------------------------------------------------------------
  Alpha Z   748.37912   748.37912   748.37912
  Ewald   -4337.90659 -4284.65263 -4059.41485    -1.78702     0.10972     0.14886
  Hartree  2701.50317  2747.64103  2877.67390    -0.92986     0.05780     0.07709
  E(xc)   -1231.28632 -1231.57878 -1232.07304    -0.00226     0.00003     0.00006
  Local   -1989.08845 -2119.08894 -2532.72166     2.56632    -0.16546    -0.22124
  n-local  -974.54985  -969.71972  -958.88116    -0.04552     0.00084     0.00182
  augment   739.32117   754.09465   775.02109     0.07620    -0.00015    -0.00110
  Kinetic  4343.80731  4355.07490  4382.01004     0.14092    -0.00485    -0.00850
  Fock        0.00000     0.00000     0.00000     0.00000     0.00000     0.00000
  -------------------------------------------------------------------------------------
  Total       0.17955     0.14963    -0.00656     0.01879    -0.00207    -0.00302
  in kB       0.61481     0.51238    -0.02245     0.06433    -0.00710    -0.01034
  external pressure =        0.37 kB  Pullay stress =        0.00 kB


 VOLUME and BASIS-vectors are now :
 -----------------------------------------------------------------------------
  energy-cutoff  :      700.00
  volume of cell :      467.90
      direct lattice vectors                 reciprocal lattice vectors
     7.927262645 -0.001433098  0.000129229     0.126146954  0.000022755 -0.000002042
    -0.001411079  7.822527911  0.000092552     0.000023110  0.127835918 -0.000001530
     0.000122111  0.000090274  7.545396832    -0.000002161 -0.000001568  0.132531134

  length of vectors
     7.927262775  7.822528039  7.545396834     0.126146956  0.127835920  0.132531134


 FORCES acting on ions
    electron-ion (+dipol)            ewald-force                    non-local-force                 convergence-correction
 -----------------------------------------------------------------------------------------------
   0.752E-03 -.845E-02 0.867E-04   -.735E-03 0.633E-02 -.374E-04   -.806E-05 0.677E-05 -.387E-04   0.225E-05 0.215E-02 -.293E-05
   0.273E-02 -.150E-01 0.139E-02   -.271E-02 0.108E-01 -.149E-02   -.149E-04 0.405E-04 -.892E-05   0.504E-05 0.427E-02 0.147E-05
   -.173E-02 0.100E-01 -.540E-03   0.172E-02 -.784E-02 0.545E-03   0.220E-04 -.705E-05 0.561E-06   -.110E-05 -.215E-02 -.129E-05
   0.758E-03 0.692E-02 0.650E-03   -.753E-03 -.276E-02 -.655E-03   -.835E-05 0.850E-04 -.297E-05   -.460E-05 -.428E-02 0.973E-06
   -.122E-02 -.637E-01 0.274E-03   0.118E-02 0.576E-01 -.256E-03   0.285E-04 0.766E-03 0.120E-04   -.198E-06 0.497E-02 -.255E-04
   -.668E-02 -.432E-01 0.485E-04   0.651E-02 0.841E-02 -.713E-04   0.129E-03 -.144E-02 -.792E-06   -.430E-05 0.362E-01 0.232E-04
   0.387E-02 0.767E-01 -.431E-02   -.380E-02 -.702E-01 0.438E-02   -.656E-04 -.114E-02 -.399E-04   0.995E-06 -.496E-02 -.168E-04
   -.144E-02 0.909E-01 -.303E-02   0.139E-02 -.560E-01 0.297E-02   0.228E-04 0.589E-03 0.417E-04   0.374E-05 -.351E-01 0.147E-04
   0.371E-02 -.104E+02 -.807E-03   -.473E-02 0.112E+02 0.839E-03   0.966E-03 -.844E+00 -.457E-04   -.162E-05 0.344E-03 0.781E-05
   -.167E-02 0.103E+02 0.363E-03   0.212E-02 -.111E+02 -.352E-03   -.191E-03 0.832E+00 -.515E-05   0.133E-05 -.314E-03 0.825E-05
   0.681E-03 -.254E-02 0.287E+00   -.585E-03 0.458E-02 -.561E+00   -.109E-03 -.147E-03 0.275E+00   -.913E-06 -.184E-02 0.912E-04
   -.942E-03 0.132E-01 -.287E+00   0.814E-03 -.114E-01 0.561E+00   0.155E-03 0.320E-04 -.275E+00   -.166E-05 -.184E-02 -.910E-04
   -.221E-02 0.101E-01 -.389E+02   0.194E-02 -.227E-01 0.409E+02   0.375E-03 0.292E-02 -.203E+01   -.294E-05 0.101E-01 -.284E-03
   0.163E-02 0.818E-02 0.389E+02   -.162E-02 -.207E-01 -.409E+02   0.724E-04 0.287E-02 0.203E+01   -.177E-05 0.101E-01 0.282E-03
   -.152E-02 0.397E-02 -.371E+02   0.147E-02 0.751E-02 0.391E+02   -.288E-04 -.200E-02 -.200E+01   0.118E-05 -.100E-01 -.323E-03
   -.168E-02 0.205E-02 0.371E+02   0.209E-02 0.969E-02 -.391E+02   -.548E-03 -.225E-02 0.200E+01   0.195E-05 -.100E-01 0.322E-03
   -.458E+02 -.396E-02 0.555E-02   0.499E+02 -.126E-01 -.504E-02   -.412E+01 0.146E-01 -.571E-03   0.343E-03 0.239E-02 0.150E-05
   -.127E+03 -.585E-02 -.805E-02   0.138E+03 -.461E-02 0.825E-02   -.113E+02 0.217E-02 -.174E-03   -.170E-04 0.842E-02 0.406E-05
   -.232E+02 0.985E-01 0.236E-02   0.250E+02 -.969E-01 -.234E-02   -.178E+01 0.230E-03 -.303E-04   0.383E-03 -.236E-02 -.316E-05
   -.600E+02 0.177E-01 -.182E-02   0.653E+02 -.115E-01 0.166E-02   -.525E+01 0.259E-02 0.165E-03   0.547E-04 -.865E-02 0.315E-05
   0.458E+02 -.345E-01 -.535E-02   -.499E+02 0.470E-01 0.479E-02   0.412E+01 -.150E-01 0.623E-03   -.343E-03 0.229E-02 -.127E-04
   0.127E+03 -.613E-02 0.886E-02   -.138E+03 -.298E-02 -.919E-02   0.113E+02 0.541E-03 0.297E-03   0.250E-04 0.841E-02 0.623E-05
   0.232E+02 -.592E-01 -.420E-02   -.250E+02 0.627E-01 0.433E-02   0.178E+01 -.822E-03 -.101E-03   -.384E-03 -.235E-02 -.421E-05
   0.600E+02 0.286E-01 0.930E-03   -.653E+02 -.200E-01 -.625E-03   0.525E+01 0.170E-03 -.313E-03   -.612E-04 -.865E-02 0.386E-05
   0.263E-01 -.622E+01 -.708E-02   -.397E-01 0.511E+01 0.909E-02   0.132E-01 0.111E+01 -.208E-02   0.478E-04 0.179E-03 -.116E-05
   -.653E-02 -.717E+02 0.422E-03   0.744E-02 0.783E+02 -.512E-03   -.709E-03 -.663E+01 0.498E-04   0.646E-05 0.305E-03 0.118E-05
   -.267E-01 0.622E+01 0.695E-02   0.401E-01 -.511E+01 -.899E-02   -.133E-01 -.111E+01 0.211E-02   -.490E-04 -.215E-03 -.184E-05
   0.881E-02 0.717E+02 0.581E-03   -.969E-02 -.783E+02 -.599E-03   0.661E-03 0.663E+01 0.606E-04   -.506E-05 -.304E-04 0.141E-05
   0.841E-01 -.691E+01 0.297E-03   -.858E-01 0.771E+01 -.242E-03   0.138E-02 -.802E+00 -.462E-04   -.454E-05 0.318E-03 -.902E-05
   -.847E-01 0.690E+01 -.177E-02   0.866E-01 -.771E+01 0.181E-02   -.163E-02 0.802E+00 -.181E-04   0.484E-05 -.293E-03 -.913E-05
   -.505E-02 0.122E-02 0.484E+02   0.672E-02 -.384E-02 -.550E+02   -.172E-02 0.455E-03 0.660E+01   0.977E-05 0.218E-02 0.120E-03
   0.684E-02 -.157E-01 -.484E+02   -.844E-02 0.138E-01 0.550E+02   0.164E-02 -.256E-03 -.660E+01   -.496E-05 0.218E-02 -.119E-03
 -----------------------------------------------------------------------------------------------
   -.169E-03 0.409E-02 -.544E-03   -.310E-12 -.925E-13 0.995E-13   0.223E-03 -.587E-02 0.556E-03   0.261E-05 0.182E-02 -.102E-04
 
 
 POSITION                                       TOTAL-FORCE (eV/Angst)
 -----------------------------------------------------------------------------------
      7.92597      7.82118      7.54562         0.000009      0.000032      0.000008
      0.00006      0.00005      3.77270         0.000007      0.000056     -0.000110
     -0.00058      3.91135      7.54544         0.000007      0.000030      0.000004
     -0.00064      3.91131      3.77274        -0.000010     -0.000031     -0.000007
      3.96222      7.82177      0.00016        -0.000011     -0.000457      0.000004
      3.96369     -0.00051      3.77276        -0.000045     -0.000030     -0.000000
      3.96305      3.91064      7.54550         0.000005      0.000324      0.000011
      3.96299      3.91062      3.77281        -0.000022      0.000430     -0.000002
      3.96327      1.93958      3.77279        -0.000059      0.001053     -0.000005
      3.96267      5.88157      3.77283         0.000253     -0.001185      0.000014
     -0.00067      3.91130      1.89354        -0.000016      0.000056      0.000973
      7.92664      3.90988      5.65208         0.000023     -0.000069     -0.000964
      3.96223      7.82165      1.85615         0.000103      0.000415     -0.001926
      3.96231      7.82170      5.68957         0.000079      0.000423      0.001908
      3.96296      3.91076      1.85872        -0.000080     -0.000508      0.000490
      3.96304      3.91082      5.68691        -0.000131     -0.000512     -0.000550
      1.94143      7.82149      0.00014         0.000120      0.000388     -0.000055
      1.87332      7.82219      3.77284         0.000220      0.000133      0.000027
      1.96373      3.91088      7.54547        -0.000343     -0.000513     -0.000013
      1.93053      3.91087      3.77277         0.000293      0.000087      0.000009
      5.98454     -0.00030      7.54547        -0.000147     -0.000313      0.000055
      6.05266     -0.00103      3.77278        -0.000279     -0.000168     -0.000023
      5.96225      3.91028      0.00015         0.000376      0.000335      0.000025
      5.99545      3.91028      3.77285        -0.000301      0.000068     -0.000004
      7.92623      1.96844      0.00023        -0.000074     -0.000422     -0.000067
     -0.00024      1.89736      3.77272         0.000207      0.000566     -0.000039
     -0.00025      5.85273      7.54539         0.000073      0.000405      0.000069
      7.92621      5.92383      3.77290        -0.000221     -0.000731      0.000044
      3.96314      1.94815      0.00009        -0.000356     -0.000566      0.000000
      3.96272      5.87292      0.00014         0.000335      0.000677      0.000018
     -0.00132      7.82253      1.93282        -0.000042      0.000012     -0.000437
      7.92730     -0.00136      5.61280         0.000029      0.000016      0.000543
 -----------------------------------------------------------------------------------
    total drift:                                0.000057      0.000040      0.000002


--------------------------------------------------------------------------------------------------------



  FREE ENERGIE OF THE ION-ELECTRON SYSTEM (eV)
  ---------------------------------------------------
  free  energy   TOTEN  =      -208.57625376 eV

  energy  without entropy=     -208.57625376  energy(sigma->0) =     -208.57625376
 


--------------------------------------------------------------------------------------------------------


    POTLOK:  cpu time    0.9789: real time    0.9782


--------------------------------------------------------------------------------------------------------


 stress matrix after NEB project (eV)
      0.17955      0.01879     -0.00302
      0.01879      0.14963     -0.00207
     -0.00302     -0.00207     -0.00656
  FORCES: max atom, RMS     0.001973    0.000748
  FORCE total and by dimension    0.004230    0.001926
  Stress total and by dimension    0.235380    0.179548
 Quasi-Newton relaxation of ions (Broydens 2nd method)
  g(Force)  = 0.863E-06   g(Stress)= 0.835E-04

 Reset! Starting new Quasi-Newton update for ions 


--------------------------------------------------------------------------------------------------------


  
 reached required accuracy - stopping structural energy minimisation
 writing wavefunctions
     LOOP+:  cpu time   50.3633: real time   51.7559
    4ORBIT:  cpu time    0.0000: real time    0.0000
 


 total charge     
 
# of ion       s       p       d       tot
------------------------------------------
    1        0.250   6.357   1.850   8.456
    2        0.330   6.525   1.757   8.612
    3        0.306   6.463   1.706   8.475
    4        0.299   6.458   1.720   8.477
    5        0.300   6.467   1.743   8.511
    6        0.299   6.447   1.718   8.465
    7        0.300   6.465   1.738   8.504
    8        0.304   6.448   1.691   8.442
    9        1.569   3.366   0.000   4.935
   10        1.569   3.367   0.000   4.936
   11        1.568   3.439   0.000   5.007
   12        1.568   3.439   0.000   5.007
   13        1.571   3.426   0.000   4.997
   14        1.571   3.426   0.000   4.997
   15        1.572   3.421   0.000   4.993
   16        1.572   3.421   0.000   4.993
   17        1.729   4.388   0.000   6.116
   18        1.732   4.371   0.000   6.103
   19        1.729   4.380   0.000   6.109
   20        1.730   4.377   0.000   6.107
   21        1.729   4.388   0.000   6.116
   22        1.732   4.371   0.000   6.103
   23        1.729   4.380   0.000   6.109
   24        1.730   4.377   0.000   6.107
   25        1.729   4.395   0.000   6.124
   26        1.731   4.384   0.000   6.115
   27        1.729   4.395   0.000   6.124
   28        1.731   4.384   0.000   6.115
   29        1.730   4.387   0.000   6.117
   30        1.730   4.387   0.000   6.117
   31        1.734   4.411   0.000   6.145
   32        1.734   4.411   0.000   6.145
--------------------------------------------------
tot         42.636 149.122  13.924 205.682
 


 magnetization (x)
 
# of ion       s       p       d       tot
------------------------------------------
    1       -0.004  -0.007  -0.889  -0.899
    2       -0.000  -0.000  -0.055  -0.056
    3        0.000   0.000  -0.005  -0.004
    4       -0.000  -0.000  -0.005  -0.005
    5       -0.000   0.001  -0.003  -0.003
    6       -0.002  -0.004  -0.048  -0.053
    7       -0.000   0.001  -0.008  -0.007
    8       -0.002  -0.004  -0.050  -0.056
    9        0.003   0.242   0.000   0.246
   10        0.003   0.243   0.000   0.246
   11       -0.000   0.000   0.000   0.000
   12       -0.000   0.000   0.000   0.000
   13        0.001   0.094   0.000   0.095
   14        0.001   0.094   0.000   0.095
   15        0.002   0.113   0.000   0.115
   16        0.002   0.113   0.000   0.115
   17        0.000   0.009   0.000   0.009
   18       -0.000   0.002   0.000   0.002
   19       -0.000   0.000   0.000   0.000
   20       -0.000   0.000   0.000   0.000
   21        0.000   0.009   0.000   0.009
   22       -0.000   0.002   0.000   0.002
   23       -0.000   0.000   0.000   0.000
   24       -0.000   0.000   0.000   0.000
   25        0.000  -0.006   0.000  -0.005
   26        0.000  -0.000   0.000  -0.000
   27        0.000  -0.006   0.000  -0.005
   28        0.000  -0.000   0.000  -0.000
   29        0.000   0.011   0.000   0.011
   30        0.000   0.011   0.000   0.011
   31        0.000   0.003   0.000   0.003
   32        0.000   0.003   0.000   0.003
--------------------------------------------------
tot          0.007   0.925  -1.063  -0.131
 

 total amount of memory used by VASP MPI-rank0    62292. kBytes
=======================================================================

   base      :      30000. kBytes
   nonlr-proj:       8429. kBytes
   fftplans  :       8423. kBytes
   grid      :       8783. kBytes
   one-center:        124. kBytes
   wavefun   :       6533. kBytes
 
  
  
 General timing and accounting informations for this job:
 ========================================================
  
                  Total CPU time used (sec):       69.119
                            User time (sec):       60.775
                          System time (sec):        8.345
                         Elapsed time (sec):       75.346
  
                   Maximum memory used (kb):      174776.
                   Average memory used (kb):           0.
  
                          Minor page faults:       103399
                          Major page faults:           52
                 Voluntary context switches:        18536
