LTO                                     
           1
     7.927263   -0.001433    0.000129
    -0.001411    7.822528    0.000093
     0.000122    0.000090    7.545397
   Ti   O    F 
   8   8  16
Direct configuration=     1
   0.99999998  0.99999897  0.99999986
   0.00000009  0.00000020  0.50000013
   0.00000009  0.49999906  0.99999991
   0.00000024  0.50000031  0.49999997
   0.49999993  0.99999509  0.00000030
   0.49999973  0.00002039  0.50000019
   0.50000043  0.50000030  0.99999926
   0.50000014  0.50000381  0.49999955
   0.49999035  0.24803411  0.50000018
   0.50000448  0.75196125  0.49999985
   0.00000072  0.50000229  0.25094658
   0.99999946  0.49999812  0.74905334
   0.49999791  0.99997661  0.24597626
   0.50000002  0.99997718  0.75402384
   0.50000035  0.50002387  0.24632326
   0.50000342  0.50002556  0.75367819
   0.24508346  0.99991257  0.00000244
   0.23648338  0.99999400  0.50000191
   0.24779234  0.49998477  0.99999945
   0.24361174  0.49998873  0.49999926
   0.75491655  0.00008793  0.99999732
   0.76351647  0.00000212  0.49999789
   0.75220824  0.50001211  0.00000066
   0.75638848  0.50000682  0.50000132
   0.99991416  0.25182066  0.00000977
   0.00000550  0.24254492  0.49999946
   0.00008601  0.74817780  0.99998977
   0.99999471  0.75745569  0.50000028
   0.49998252  0.24913480  0.00000000
   0.50001889  0.75086111  0.00000028
   0.00000694  0.99999787  0.25614652
   0.99999325  0.00000099  0.74385300
