       N       E                     dE             d eps       ncg     rms          rms(c)
DAV:   1    -0.211437728743E+03   -0.21144E+03   -0.39349E-04 17280   0.671E-02    0.165E-03
DAV:   2    -0.211437728697E+03    0.45588E-07   -0.57445E-07 11904   0.366E-03
   1 F= -.21143773E+03 E0= -.21143773E+03  d E =-.211438E+03  mag=     0.0000
