 vasp.5.4.4.18Apr17-6-g9f103f2a35 (build Apr 30 2017 20:10:35) complex          
  
 executed on             LinuxIFC date 2017.08.06  08:27:32
 running on   64 total cores
 distrk:  each k-point on   64 cores,    1 groups
 distr:  one band on NCORES_PER_BAND=   8 cores,    8 groups


--------------------------------------------------------------------------------------------------------


 INCAR:
 POTCAR:   PAW_PBE Ti_pv 07Sep2000                
 POTCAR:   PAW_PBE O 08Apr2002                    
 POTCAR:    PAW_PBE F 08Apr2002                   
 POTCAR:   PAW_PBE Ti_pv 07Sep2000                
   VRHFIN =Ti: d3 s1                                                            
   LEXCH  = PE                                                                  
   EATOM  =  1042.3781 eV,   76.6126 Ry                                         
                                                                                
   TITEL  = PAW_PBE Ti_pv 07Sep2000                                             
   LULTRA =        F    use ultrasoft PP ?                                      
   IUNSCR =        1    unscreen: 0-lin 1-nonlin 2-no                           
   RPACOR =    2.200    partial core radius                                     
   POMASS =   47.880; ZVAL   =   10.000    mass and valenz                      
   RCORE  =    2.500    outmost cutoff radius                                   
   RWIGS  =    2.500; RWIGS  =    1.323    wigner-seitz radius (au A)           
   ENMAX  =  222.338; ENMIN  =  166.753 eV                                      
   RCLOC  =    1.701    cutoff for local pot                                    
   LCOR   =        T    correct aug charges                                     
   LPAW   =        T    paw PP                                                  
   EAUG   =  482.848                                                            
   DEXC   =    -.008                                                            
   RMAX   =    3.092    core radius for proj-oper                               
   RAUG   =    1.300    factor for augmentation sphere                          
   RDEP   =    2.538    radius for radial grids                                 
   QCUT   =   -4.042; QGAM   =    8.085    optimization parameters              
                                                                                
   Description                                                                  
     l     E      TYP  RCUT    TYP  RCUT                                        
     1   .000     23  2.300                                                     
     1  -.100     23  2.300                                                     
     2   .000     23  2.500                                                     
     2   .000     23  2.500                                                     
     0   .000     23  2.500                                                     
     0  1.500     23  2.500                                                     
     3   .000      7   .000                                                     
  local pseudopotential read in
  partial core-charges read in
  atomic valenz-charges read in
  non local Contribution for L=           1  read in
    real space projection operators read in
  non local Contribution for L=           1  read in
    real space projection operators read in
  non local Contribution for L=           2  read in
    real space projection operators read in
  non local Contribution for L=           2  read in
    real space projection operators read in
  non local Contribution for L=           0  read in
    real space projection operators read in
  non local Contribution for L=           0  read in
    real space projection operators read in
    PAW grid and wavefunctions read in
 
   number of l-projection  operators is LMAX  =           6
   number of lm-projection operators is LMMAX =          18
 
 POTCAR:   PAW_PBE O 08Apr2002                    
   VRHFIN =O: s2p4                                                              
   LEXCH  = PE                                                                  
   EATOM  =   432.3788 eV,   31.7789 Ry                                         
                                                                                
   TITEL  = PAW_PBE O 08Apr2002                                                 
   LULTRA =        F    use ultrasoft PP ?                                      
   IUNSCR =        0    unscreen: 0-lin 1-nonlin 2-no                           
   RPACOR =     .000    partial core radius                                     
   POMASS =   16.000; ZVAL   =    6.000    mass and valenz                      
   RCORE  =    1.520    outmost cutoff radius                                   
   RWIGS  =    1.550; RWIGS  =     .820    wigner-seitz radius (au A)           
   ENMAX  =  400.000; ENMIN  =  300.000 eV                                      
   ICORE  =        2    local potential                                         
   LCOR   =        T    correct aug charges                                     
   LPAW   =        T    paw PP                                                  
   EAUG   =  605.392                                                            
   DEXC   =     .000                                                            
   RMAX   =    2.264    core radius for proj-oper                               
   RAUG   =    1.300    factor for augmentation sphere                          
   RDEP   =    1.550    radius for radial grids                                 
   QCUT   =   -5.520; QGAM   =   11.041    optimization parameters              
                                                                                
   Description                                                                  
     l     E      TYP  RCUT    TYP  RCUT                                        
     0   .000     23  1.200                                                     
     0  -.700     23  1.200                                                     
     1   .000     23  1.520                                                     
     1   .600     23  1.520                                                     
     2   .000      7  1.500                                                     
  local pseudopotential read in
  atomic valenz-charges read in
  non local Contribution for L=           0  read in
    real space projection operators read in
  non local Contribution for L=           0  read in
    real space projection operators read in
  non local Contribution for L=           1  read in
    real space projection operators read in
  non local Contribution for L=           1  read in
    real space projection operators read in
    PAW grid and wavefunctions read in
 
   number of l-projection  operators is LMAX  =           4
   number of lm-projection operators is LMMAX =           8
 
 POTCAR:    PAW_PBE F 08Apr2002                   
   VRHFIN =F: s2p5                                                              
   LEXCH  = PE                                                                  
   EATOM  =   659.6475 eV,   48.4827 Ry                                         
                                                                                
   TITEL  = PAW_PBE F 08Apr2002                                                 
   LULTRA =        F    use ultrasoft PP ?                                      
   IUNSCR =        1    unscreen: 0-lin 1-nonlin 2-no                           
   RPACOR =    1.200    partial core radius                                     
   POMASS =   18.998; ZVAL   =    7.000    mass and valenz                      
   RCORE  =    1.520    outmost cutoff radius                                   
   RWIGS  =    1.500; RWIGS  =    0.794    wigner-seitz radius (au A)           
   ENMAX  =  400.000; ENMIN  =  300.000 eV                                      
   ICORE  =        2    local potential                                         
   LCOR   =        T    correct aug charges                                     
   LPAW   =        T    paw PP                                                  
   EAUG   =  613.614                                                            
   RMAX   =    1.555    core radius for proj-oper                               
   RAUG   =    1.300    factor for augmentation sphere                          
   RDEP   =    1.539    radius for radial grids                                 
   RDEPT  =    1.299    core radius for aug-charge                              
                                                                                
   Atomic configuration                                                         
    4 entries                                                                   
     n  l   j            E        occ.                                          
     1  0  0.50      -663.3661   2.0000                                         
     2  0  0.50       -29.8995   2.0000                                         
     2  1  0.50       -11.1114   5.0000                                         
     3  2  1.50       -10.8847   0.0000                                         
   Description                                                                  
     l       E           TYP  RCUT    TYP  RCUT                                 
     0    -29.8995018     23  1.200                                             
     0     -9.5240782     23  1.200                                             
     1    -11.1113914     23  1.520                                             
     1      1.3605826     23  1.520                                             
     2    -10.8846608      7  1.500                                             
  local pseudopotential read in
  partial core-charges read in
  partial kinetic energy density read in
  atomic valenz-charges read in
  non local Contribution for L=           0  read in
    real space projection operators read in
  non local Contribution for L=           0  read in
    real space projection operators read in
  non local Contribution for L=           1  read in
    real space projection operators read in
  non local Contribution for L=           1  read in
    real space projection operators read in
    PAW grid and wavefunctions read in
 
   number of l-projection  operators is LMAX  =           4
   number of lm-projection operators is LMMAX =           8
 
 Optimization of the real space projectors (new method)

 maximal supplied QI-value         = 15.12
 optimisation between [QCUT,QGAM] = [ 13.45, 27.06] = [ 50.69,205.06] Ry 
 Optimized for a Real-space Cutoff    1.49 Angstroem

   l    n(q)    QCUT    max X(q) W(low)/X(q) W(high)/X(q)  e(spline) 
   1     12    13.455     4.841    0.13E-05    0.83E-06    0.56E-07
   1     12    13.455     5.701    0.32E-04    0.25E-04    0.17E-06
   2     11    13.455     4.569    0.64E-05    0.34E-05    0.50E-07
   2     11    13.455    32.276    0.49E-04    0.38E-04    0.46E-06
   0     12    13.455    30.046    0.17E-04    0.41E-05    0.51E-07
   0     12    13.455    45.433    0.12E-04    0.27E-04    0.38E-06
 Optimization of the real space projectors (new method)

 maximal supplied QI-value         = 24.76
 optimisation between [QCUT,QGAM] = [ 13.37, 26.98] = [ 50.04,203.89] Ry 
 Optimized for a Real-space Cutoff    1.17 Angstroem

   l    n(q)    QCUT    max X(q) W(low)/X(q) W(high)/X(q)  e(spline) 
   0      9    13.368     4.192    0.20E-04    0.58E-05    0.56E-07
   0      9    13.368     8.473    0.60E-04    0.52E-04    0.21E-06
   1      9    13.368     2.474    0.22E-04    0.17E-04    0.28E-07
   1      9    13.368     3.912    0.94E-04    0.97E-04    0.20E-06
 Optimization of the real space projectors (new method)

 maximal supplied QI-value         = 24.76
 optimisation between [QCUT,QGAM] = [ 13.37, 26.98] = [ 50.04,203.89] Ry 
 Optimized for a Real-space Cutoff    1.17 Angstroem

   l    n(q)    QCUT    max X(q) W(low)/X(q) W(high)/X(q)  e(spline) 
   0      9    13.368    14.049    0.39E-04    0.34E-04    0.16E-06
   0      9    13.368     8.945    0.54E-04    0.47E-04    0.20E-06
   1      9    13.368     7.086    0.99E-04    0.10E-03    0.23E-06
   1      9    13.368     6.747    0.86E-04    0.89E-04    0.21E-06

 ----------------------------------------------------------------------------- 
|                                                                             |
|  ADVICE TO THIS USER RUNNING 'VASP/VAMP'   (HEAR YOUR MASTER'S VOICE ...):  |
|                                                                             |
|      You enforced a specific xc-type in the INCAR file,                     |
|      a different type was found on the POTCAR file                          |
|          I HOPE YOU KNOW, WHAT YOU ARE  DOING                               |
|                                                                             |
 ----------------------------------------------------------------------------- 

 PAW_PBE Ti_pv 07Sep2000                :
 energy of atom  1       EATOM=-1042.3781
 kinetic energy error for atom=    0.0006 (will be added to EATOM!!)
 PAW_PBE O 08Apr2002                    :
 energy of atom  2       EATOM= -432.3788
 kinetic energy error for atom=    0.0091 (will be added to EATOM!!)
  PAW_PBE F 08Apr2002                   :
 energy of atom  3       EATOM= -659.6475
 kinetic energy error for atom=    0.0140 (will be added to EATOM!!)
 
 
 POSCAR: TiOF2 2x2x2 config 0007                 
  positions in direct lattice
  velocities in cartesian coordinates
 exchange correlation table for  LEXCH =       14
   RHO(1)=    0.500       N(1)  =     2000
   RHO(2)=  100.500       N(2)  =     4000

 VTST: version 3.1, (03/28/14)

 CHAIN: initializing optimizer
 
 OPT: Using VASP QUASI-newton optimizer
 CHAIN: Read ICHAIN            0
 
 POSCAR: TiOF2 2x2x2 config 0007                 
  positions in direct lattice
  velocities in cartesian coordinates
 


--------------------------------------------------------------------------------------------------------


 ion  position               nearest neighbor table
   1  1.000  0.000  0.989-  11 1.80  25 1.91  27 1.91  21 1.91  17 1.91  31 1.96
   2  0.000  0.000  0.511-  11 1.80  26 1.91  28 1.91  18 1.91  22 1.91  31 1.96
   3  1.000  0.500  0.000-  12 1.88  13 1.88  23 1.93  19 1.93  25 1.99  27 2.00
   4  1.000  0.500  0.500-  12 1.88  13 1.88  20 1.93  24 1.93  26 1.99  28 2.00
   5  0.500  0.983  0.011-   9 1.78  14 1.81  32 1.98  29 2.05  21 2.05  17 2.05
   6  0.500  0.983  0.489-  10 1.78  14 1.81  32 1.98  30 2.05  22 2.05  18 2.05
   7  0.500  0.507  1.000-  16 1.88  15 1.88   9 1.94  19 2.02  23 2.02  29 2.04
   8  0.500  0.507  0.500-  16 1.88  15 1.88  10 1.94  20 2.02  24 2.02  30 2.04
   9  0.500  0.755  0.996-   5 1.78   7 1.94
  10  0.500  0.755  0.504-   6 1.78   8 1.94
  11  0.000  1.000  0.750-   1 1.80   2 1.80
  12  1.000  0.501  0.250-   4 1.88   3 1.88
  13  1.000  0.501  0.750-   3 1.88   4 1.88
  14  0.500  0.011  0.250-   5 1.81   6 1.81
  15  0.500  0.495  0.250-   7 1.88   8 1.88
  16  0.500  0.496  0.750-   7 1.88   8 1.88
  17  0.242  0.001  0.002-   1 1.91   5 2.05
  18  0.242  0.001  0.498-   2 1.91   6 2.05
  19  0.244  0.498  1.000-   3 1.93   7 2.02
  20  0.244  0.498  0.500-   4 1.93   8 2.02
  21  0.758  0.001  0.002-   1 1.91   5 2.05
  22  0.758  0.001  0.498-   2 1.91   6 2.05
  23  0.756  0.498  1.000-   3 1.93   7 2.02
  24  0.756  0.498  0.500-   4 1.93   8 2.02
  25  0.000  0.244  0.005-   1 1.91   3 1.99
  26  0.000  0.244  0.495-   2 1.91   4 1.99
  27  1.000  0.756  0.005-   1 1.91   3 2.00
  28  1.000  0.756  0.495-   2 1.91   4 2.00
  29  0.500  0.245  0.995-   7 2.04   5 2.05
  30  0.500  0.245  0.505-   8 2.04   6 2.05
  31  0.000  1.000  0.250-   1 1.96   2 1.96
  32  0.500  0.015  0.750-   6 1.98   5 1.98
 

IMPORTANT INFORMATION: All symmetrisations will be switched off!
NOSYMM: (Re-)initialisation of all symmetry stuff for point group C_1.

 
 
 KPOINTS: Title                                   

Automatic generation of k-mesh.
Space group operators:
 irot       det(A)        alpha          n_x          n_y          n_z        tau_x        tau_y        tau_z
    1     1.000000     0.000000     1.000000     0.000000     0.000000     0.000000     0.000000     0.000000
 
 Subroutine IBZKPT returns following result:
 ===========================================
 
 Found     32 irreducible k-points:
 
 Following reciprocal coordinates:
            Coordinates               Weight
  0.125000  0.125000  0.125000      2.000000
  0.375000  0.125000  0.125000      2.000000
 -0.375000  0.125000  0.125000      2.000000
 -0.125000  0.125000  0.125000      2.000000
  0.125000  0.375000  0.125000      2.000000
  0.375000  0.375000  0.125000      2.000000
 -0.375000  0.375000  0.125000      2.000000
 -0.125000  0.375000  0.125000      2.000000
  0.125000 -0.375000  0.125000      2.000000
  0.375000 -0.375000  0.125000      2.000000
 -0.375000 -0.375000  0.125000      2.000000
 -0.125000 -0.375000  0.125000      2.000000
  0.125000 -0.125000  0.125000      2.000000
  0.375000 -0.125000  0.125000      2.000000
 -0.375000 -0.125000  0.125000      2.000000
 -0.125000 -0.125000  0.125000      2.000000
  0.125000  0.125000  0.375000      2.000000
  0.375000  0.125000  0.375000      2.000000
 -0.375000  0.125000  0.375000      2.000000
 -0.125000  0.125000  0.375000      2.000000
  0.125000  0.375000  0.375000      2.000000
  0.375000  0.375000  0.375000      2.000000
 -0.375000  0.375000  0.375000      2.000000
 -0.125000  0.375000  0.375000      2.000000
  0.125000 -0.375000  0.375000      2.000000
  0.375000 -0.375000  0.375000      2.000000
 -0.375000 -0.375000  0.375000      2.000000
 -0.125000 -0.375000  0.375000      2.000000
  0.125000 -0.125000  0.375000      2.000000
  0.375000 -0.125000  0.375000      2.000000
 -0.375000 -0.125000  0.375000      2.000000
 -0.125000 -0.125000  0.375000      2.000000
 
 Following cartesian coordinates:
            Coordinates               Weight
  0.015807  0.016031  0.016630      2.000000
  0.047421  0.016031  0.016630      2.000000
 -0.047421  0.016031  0.016630      2.000000
 -0.015807  0.016031  0.016630      2.000000
  0.015807  0.048094  0.016630      2.000000
  0.047421  0.048094  0.016630      2.000000
 -0.047421  0.048094  0.016630      2.000000
 -0.015807  0.048094  0.016630      2.000000
  0.015807 -0.048094  0.016630      2.000000
  0.047421 -0.048094  0.016630      2.000000
 -0.047421 -0.048094  0.016630      2.000000
 -0.015807 -0.048094  0.016630      2.000000
  0.015807 -0.016031  0.016630      2.000000
  0.047421 -0.016031  0.016630      2.000000
 -0.047421 -0.016031  0.016630      2.000000
 -0.015807 -0.016031  0.016630      2.000000
  0.015807  0.016031  0.049890      2.000000
  0.047421  0.016031  0.049890      2.000000
 -0.047421  0.016031  0.049890      2.000000
 -0.015807  0.016031  0.049890      2.000000
  0.015807  0.048094  0.049890      2.000000
  0.047421  0.048094  0.049890      2.000000
 -0.047421  0.048094  0.049890      2.000000
 -0.015807  0.048094  0.049890      2.000000
  0.015807 -0.048094  0.049890      2.000000
  0.047421 -0.048094  0.049890      2.000000
 -0.047421 -0.048094  0.049890      2.000000
 -0.015807 -0.048094  0.049890      2.000000
  0.015807 -0.016031  0.049890      2.000000
  0.047421 -0.016031  0.049890      2.000000
 -0.047421 -0.016031  0.049890      2.000000
 -0.015807 -0.016031  0.049890      2.000000
 


--------------------------------------------------------------------------------------------------------




 Dimension of arrays:
   k-points           NKPTS =     32   k-points in BZ     NKDIM =     32   number of bands    NBANDS=    160
   number of dos      NEDOS =   3001   number of ions     NIONS =     32
   non local maximal  LDIM  =      6   non local SUM 2l+1 LMDIM =     18
   total plane-waves  NPLWV = 343000
   max r-space proj   IRMAX =  10261   max aug-charges    IRDMAX= 230035
   dimension x,y,z NGX =    70 NGY =   70 NGZ =   70
   dimension x,y,z NGXF=   140 NGYF=  140 NGZF=  140
   support grid    NGXF=   280 NGYF=  280 NGZF=  280
   ions per type =               8   8  16
   NGX,Y,Z   is equivalent  to a cutoff of  14.72, 14.92, 15.48 a.u.
   NGXF,Y,Z  is equivalent  to a cutoff of  29.43, 29.85, 30.96 a.u.

 SYSTEM =  LTO                                     
 POSCAR =  TiOF2 2x2x2 config 0007                 

 Startparameter for this run:
   NWRITE =      2    write-flag & timer
   PREC   = accura    normal or accurate (medium, high low for compatibility)
   ISTART =      1    job   : 0-new  1-cont  2-samecut
   ICHARG =      0    charge: 1-file 2-atom 10-const
   ISPIN  =      2    spin polarized calculation?
   LNONCOLLINEAR =      F non collinear calculations
   LSORBIT =      F    spin-orbit coupling
   INIWAV =      1    electr: 0-lowe 1-rand  2-diag
   LASPH  =      T    aspherical Exc in radial PAW
   METAGGA=      F    non-selfconsistent MetaGGA calc.

 Electronic Relaxation 1
   ENCUT  =  700.0 eV  51.45 Ry    7.17 a.u.  17.06 16.82 16.22*2*pi/ulx,y,z
   ENINI  =  700.0     initial cutoff
   ENAUG  =  613.6 eV  augmentation charge cutoff
   NELM   =     60;   NELMIN=  2; NELMDL=  0     # of ELM steps 
   EDIFF  = 0.1E-05   stopping-criterion for ELM
   LREAL  =      T    real-space projection
   NLSPLINE    = F    spline interpolate recip. space projectors
   LCOMPAT=      F    compatible to vasp.4.4
   GGA_COMPAT  = T    GGA compatible to vasp.4.4-vasp.4.6
   LMAXPAW     = -100 max onsite density
   LMAXMIX     =    4 max onsite mixed and CHGCAR
   VOSKOWN=      0    Vosko Wilk Nusair interpolation
   ROPT   =   -0.00010  -0.00010  -0.00010
 Ionic relaxation
   EDIFFG = -.1E-01   stopping-criterion for IOM
   NSW    =    100    number of steps for IOM
   NBLOCK =      1;   KBLOCK =    100    inner block; outer block 
   IBRION =      1    ionic relax: 0-MD 1-quasi-New 2-CG
   NFREE  =      0    steps in history (QN), initial steepest desc. (CG)
   ISIF   =      3    stress and relaxation
   IWAVPR =     11    prediction:  0-non 1-charg 2-wave 3-comb
   ISYM   =      0    0-nonsym 1-usesym 2-fastsym
   LCORR  =      T    Harris-Foulkes like correction to forces

   POTIM  = 0.5000    time-step for ionic-motion
   TEIN   =    0.0    initial temperature
   TEBEG  =    0.0;   TEEND  =   0.0 temperature during run
   SMASS  =  -3.00    Nose mass-parameter (am)
   estimated Nose-frequenzy (Omega)   =  0.10E-29 period in steps =****** mass=  -0.143E-26a.u.
   SCALEE = 1.0000    scale energy and forces
   NPACO  =    256;   APACO  = 16.0  distance and # of slots for P.C.
   PSTRESS=    0.0 pullay stress

  Mass of Ions in am
   POMASS =  47.88 16.00 19.00
  Ionic Valenz
   ZVAL   =  10.00  6.00  7.00
  Atomic Wigner-Seitz radii
   RWIGS  =  -1.00 -1.00 -1.00
  virtual crystal weights 
   VCA    =   1.00  1.00  1.00
   NELECT =     240.0000    total number of electrons
   NUPDOWN=      -1.0000    fix difference up-down

 DOS related values:
   EMIN   =  10.00;   EMAX   =-10.00  energy-range for DOS
   EFERMI =   0.00
   ISMEAR =     0;   SIGMA  =   0.01  broadening in eV -4-tet -1-fermi 0-gaus

 Electronic relaxation 2 (details)
   IALGO  =     38    algorithm
   LDIAG  =      T    sub-space diagonalisation (order eigenvalues)
   LSUBROT=      F    optimize rotation matrix (better conditioning)
   TURBO    =      0    0=normal 1=particle mesh
   IRESTART =      0    0=no restart 2=restart with 2 vectors
   NREBOOT  =      0    no. of reboots
   NMIN     =      0    reboot dimension
   EREF     =   0.00    reference energy to select bands
   IMIX   =      4    mixing-type and parameters
     AMIX     =   0.40;   BMIX     =  1.00
     AMIX_MAG =   1.60;   BMIX_MAG =  1.00
     AMIN     =   0.10
     WC   =   100.;   INIMIX=   1;  MIXPRE=   1;  MAXMIX= -45

 Intra band minimization:
   WEIMIN = 0.0010     energy-eigenvalue tresh-hold
   EBREAK =  0.16E-08  absolut break condition
   DEPER  =   0.30     relativ break condition  

   TIME   =   0.40     timestep for ELM

  volume/ion in A,a.u.               =      14.48        97.74
  Fermi-wavevector in a.u.,A,eV,Ry     =   1.314635  2.484300 23.514485  1.728266
  Thomas-Fermi vector in A             =   2.444874
 
 Write flags
   LWAVE        =      T    write WAVECAR
   LDOWNSAMPLE  =      F    k-point downsampling of WAVECAR
   LCHARG       =      T    write CHGCAR
   LVTOT        =      F    write LOCPOT, total local potential
   LVHAR        =      F    write LOCPOT, Hartree potential only
   LELF         =      F    write electronic localiz. function (ELF)
   LORBIT       =     11    0 simple, 1 ext, 2 COOP (PROOUT), +10 PAW based schemes


 Dipole corrections
   LMONO  =      F    monopole corrections only (constant potential shift)
   LDIPOL =      F    correct potential (dipole corrections)
   IDIPOL =      0    1-x, 2-y, 3-z, 4-all directions 
   EPSILON=  1.0000000 bulk dielectric constant

 LDA+U is selected, type is set to LDAUTYPE =  2
   angular momentum for each species LDAUL =     2   -1   -1
   U (eV)           for each species LDAUU =   4.2  0.0  0.0
   J (eV)           for each species LDAUJ =   0.0  0.0  0.0
 Exchange correlation treatment:
   GGA     =    PS    GGA type
   LEXCH   =    14    internal setting for exchange type
   VOSKOWN=      0    Vosko Wilk Nusair interpolation
   LHFCALC =     F    Hartree Fock is set to
   LHFONE  =     F    Hartree Fock one center treatment
   AEXX    =    0.0000 exact exchange contribution

 Linear response parameters
   LEPSILON=     F    determine dielectric tensor
   LRPA    =     F    only Hartree local field effects (RPA)
   LNABLA  =     F    use nabla operator in PAW spheres
   LVEL    =     F    velocity operator in full k-point grid
   LINTERFAST=   F  fast interpolation
   KINTER  =     0    interpolate to denser k-point grid
   CSHIFT  =0.1000    complex shift for real part using Kramers Kronig
   OMEGAMAX=  -1.0    maximum frequency
   DEG_THRESHOLD= 0.2000000E-02 threshold for treating states as degnerate
   RTIME   =   -0.100 relaxation time in fs
  (WPLASMAI=    0.000 imaginary part of plasma frequency in eV, 0.658/RTIME)
   DFIELD  = 0.0000000 0.0000000 0.0000000 field for delta impulse in time
 
 Orbital magnetization related:
   ORBITALMAG=     F  switch on orbital magnetization
   LCHIMAG   =     F  perturbation theory with respect to B field
   DQ        =  0.001000  dq finite difference perturbation B field
   LLRAUG    =     F  two centre corrections for induced B field



--------------------------------------------------------------------------------------------------------


 quasi-Newton-method for relaxation of ions
 charge density and potential will be updated during run
 spin polarized calculation
 Variant of blocked Davidson
 Davidson routine will perform the subspace rotation
 perform sub-space diagonalisation
    after iterative eigenvector-optimisation
 modified Broyden-mixing scheme, WC =      100.0
 initial mixing is a Kerker type mixing with AMIX =  0.4000 and BMIX =      1.0000
 Hartree-type preconditioning will be used
 using additional bands           40
 real space projection scheme for non local part
 use partial core corrections
 calculate Harris-corrections to forces 
   (improved forces if not selfconsistent)
 use gradient corrections 
 use of overlap-Matrix (Vanderbilt PP)
 Gauss-broadening in eV      SIGMA  =   0.01


--------------------------------------------------------------------------------------------------------


  energy-cutoff  :      700.00
  volume of cell :      463.47
      direct lattice vectors                 reciprocal lattice vectors
     7.907962078  0.000000274 -0.000000035     0.126454830 -0.000000003  0.000000001
     0.000000204  7.797244556 -0.000000340    -0.000000004  0.128250434  0.000000006
    -0.000000034 -0.000000327  7.516473863     0.000000001  0.000000006  0.133041107

  length of vectors
     7.907962078  7.797244556  7.516473863     0.126454830  0.128250434  0.133041107


 
 old parameters found on file WAVECAR:
  energy-cutoff  :      700.00
  volume of cell :      463.46
      direct lattice vectors                 reciprocal lattice vectors
     7.907932478  0.000000145 -0.000000006     0.126455303 -0.000000001  0.000000000
     0.000000075  7.797485494  0.000000003    -0.000000002  0.128246471 -0.000000000
    -0.000000008  0.000000004  7.516084890     0.000000000 -0.000000000  0.133047992

  length of vectors

 
 k-points in units of 2pi/SCALE and weight: Title                                   
   0.01580685  0.01603130  0.01663014       0.031
   0.04742056  0.01603130  0.01663014       0.031
  -0.04742056  0.01603131  0.01663014       0.031
  -0.01580685  0.01603131  0.01663014       0.031
   0.01580685  0.04809391  0.01663014       0.031
   0.04742056  0.04809391  0.01663014       0.031
  -0.04742056  0.04809391  0.01663014       0.031
  -0.01580686  0.04809391  0.01663014       0.031
   0.01580686 -0.04809391  0.01663014       0.031
   0.04742056 -0.04809391  0.01663014       0.031
  -0.04742056 -0.04809391  0.01663014       0.031
  -0.01580685 -0.04809391  0.01663014       0.031
   0.01580685 -0.01603130  0.01663014       0.031
   0.04742056 -0.01603130  0.01663014       0.031
  -0.04742056 -0.01603130  0.01663014       0.031
  -0.01580685 -0.01603130  0.01663014       0.031
   0.01580685  0.01603131  0.04989042       0.031
   0.04742056  0.01603131  0.04989042       0.031
  -0.04742056  0.01603131  0.04989042       0.031
  -0.01580685  0.01603131  0.04989042       0.031
   0.01580685  0.04809391  0.04989042       0.031
   0.04742056  0.04809391  0.04989042       0.031
  -0.04742056  0.04809392  0.04989042       0.031
  -0.01580686  0.04809392  0.04989042       0.031
   0.01580686 -0.04809391  0.04989041       0.031
   0.04742056 -0.04809391  0.04989041       0.031
  -0.04742056 -0.04809391  0.04989041       0.031
  -0.01580685 -0.04809391  0.04989041       0.031
   0.01580685 -0.01603130  0.04989041       0.031
   0.04742056 -0.01603130  0.04989041       0.031
  -0.04742056 -0.01603130  0.04989041       0.031
  -0.01580685 -0.01603130  0.04989041       0.031
 
 k-points in reciprocal lattice and weights: Title                                   
   0.12500000  0.12500000  0.12500000       0.031
   0.37500000  0.12500000  0.12500000       0.031
  -0.37500000  0.12500000  0.12500000       0.031
  -0.12500000  0.12500000  0.12500000       0.031
   0.12500000  0.37500000  0.12500000       0.031
   0.37500000  0.37500000  0.12500000       0.031
  -0.37500000  0.37500000  0.12500000       0.031
  -0.12500000  0.37500000  0.12500000       0.031
   0.12500000 -0.37500000  0.12500000       0.031
   0.37500000 -0.37500000  0.12500000       0.031
  -0.37500000 -0.37500000  0.12500000       0.031
  -0.12500000 -0.37500000  0.12500000       0.031
   0.12500000 -0.12500000  0.12500000       0.031
   0.37500000 -0.12500000  0.12500000       0.031
  -0.37500000 -0.12500000  0.12500000       0.031
  -0.12500000 -0.12500000  0.12500000       0.031
   0.12500000  0.12500000  0.37500000       0.031
   0.37500000  0.12500000  0.37500000       0.031
  -0.37500000  0.12500000  0.37500000       0.031
  -0.12500000  0.12500000  0.37500000       0.031
   0.12500000  0.37500000  0.37500000       0.031
   0.37500000  0.37500000  0.37500000       0.031
  -0.37500000  0.37500000  0.37500000       0.031
  -0.12500000  0.37500000  0.37500000       0.031
   0.12500000 -0.37500000  0.37500000       0.031
   0.37500000 -0.37500000  0.37500000       0.031
  -0.37500000 -0.37500000  0.37500000       0.031
  -0.12500000 -0.37500000  0.37500000       0.031
   0.12500000 -0.12500000  0.37500000       0.031
   0.37500000 -0.12500000  0.37500000       0.031
  -0.37500000 -0.12500000  0.37500000       0.031
  -0.12500000 -0.12500000  0.37500000       0.031
 
 position of ions in fractional coordinates (direct lattice) 
   0.99999997  0.00038092  0.98910377
   0.00000003  0.00038091  0.51089617
   0.99999998  0.50003943  0.00038654
   0.99999999  0.50003938  0.49961272
   0.50000001  0.98309058  0.01089076
   0.50000002  0.98309046  0.48910969
   0.49999998  0.50716846  0.99963046
   0.49999998  0.50716850  0.50036963
   0.49999994  0.75544700  0.99578633
   0.49999997  0.75544669  0.50421332
   0.00000001  0.99995371  0.75000003
   0.99999997  0.50090460  0.25000010
   0.99999998  0.50085691  0.75000017
   0.50000004  0.01071155  0.24999959
   0.50000000  0.49496399  0.24999990
   0.49999999  0.49589169  0.75000014
   0.24155227  0.00114900  0.00160673
   0.24155227  0.00114888  0.49839319
   0.24446873  0.49845791  0.99994759
   0.24446870  0.49845789  0.50005259
   0.75844773  0.00114890  0.00160672
   0.75844778  0.00114882  0.49839318
   0.75553124  0.49845783  0.99994760
   0.75553127  0.49845778  0.50005262
   0.00000002  0.24441544  0.00549623
   0.00000006  0.24441540  0.49450387
   0.99999999  0.75608718  0.00537362
   1.00000000  0.75608714  0.49462661
   0.50000003  0.24508944  0.99475272
   0.49999997  0.24508959  0.50524733
   0.00000001  0.99973333  0.24999997
   0.50000005  0.01512067  0.75000008
 
 position of ions in cartesian coordinates  (Angst):
   7.90796184  0.00297007  7.43457264
   0.00000024  0.00296989  3.84013772
   7.90796202  3.89893000  0.00290521
   7.90796206  3.89892946  3.75532574
   3.95398129  7.66539784  0.08185978
   3.95398140  7.66539670  3.67637987
   3.95398099  3.95451629  7.51369603
   3.95398098  3.95451684  3.76101506
   3.95398070  5.89040478  7.48480169
   3.95398093  5.89040257  3.78990598
   0.00000028  7.79688341  5.63735531
   7.90796197  3.90567589  1.87911898
   7.90796202  3.90530384  5.63735648
   3.95398133  0.08352066  1.87911534
   3.95398110  3.85935535  1.87911752
   3.95398102  3.86658866  5.63735629
   1.91018620  0.00895910  0.01207695
   1.91018616  0.00895798  3.74615940
   1.93324952  3.88659797  7.51607972
   1.93324933  3.88659800  3.75863201
   5.99777591  0.00895850  0.01207684
   5.99777625  0.00895765  3.74615932
   5.97471249  3.88659752  7.51607983
   5.97471269  3.88659724  3.75863228
   0.00000021  1.90576693  0.04131221
   0.00000049  1.90576645  3.71692535
   7.90796218  5.89539690  0.04039041
   7.90796220  5.89539646  3.71784769
   3.95398130  1.91102212  7.47703271
   3.95398087  1.91102347  3.79767823
   0.00000027  7.79516521  1.87911790
   3.95398142  0.11789945  5.63735596
 


--------------------------------------------------------------------------------------------------------


 k-point  1 :   0.1250 0.1250 0.1250  plane waves:   19478
 k-point  2 :   0.3750 0.1250 0.1250  plane waves:   19511
 k-point  3 :  -0.3750 0.1250 0.1250  plane waves:   19511
 k-point  4 :  -0.1250 0.1250 0.1250  plane waves:   19478
 k-point  5 :   0.1250 0.3750 0.1250  plane waves:   19504
 k-point  6 :   0.3750 0.3750 0.1250  plane waves:   19484
 k-point  7 :  -0.3750 0.3750 0.1250  plane waves:   19484
 k-point  8 :  -0.1250 0.3750 0.1250  plane waves:   19504
 k-point  9 :   0.1250-0.3750 0.1250  plane waves:   19504
 k-point 10 :   0.3750-0.3750 0.1250  plane waves:   19484
 k-point 11 :  -0.3750-0.3750 0.1250  plane waves:   19484
 k-point 12 :  -0.1250-0.3750 0.1250  plane waves:   19504
 k-point 13 :   0.1250-0.1250 0.1250  plane waves:   19478
 k-point 14 :   0.3750-0.1250 0.1250  plane waves:   19511
 k-point 15 :  -0.3750-0.1250 0.1250  plane waves:   19511
 k-point 16 :  -0.1250-0.1250 0.1250  plane waves:   19478
 k-point 17 :   0.1250 0.1250 0.3750  plane waves:   19471
 k-point 18 :   0.3750 0.1250 0.3750  plane waves:   19491
 k-point 19 :  -0.3750 0.1250 0.3750  plane waves:   19491
 k-point 20 :  -0.1250 0.1250 0.3750  plane waves:   19471
 k-point 21 :   0.1250 0.3750 0.3750  plane waves:   19492
 k-point 22 :   0.3750 0.3750 0.3750  plane waves:   19518
 k-point 23 :  -0.3750 0.3750 0.3750  plane waves:   19518
 k-point 24 :  -0.1250 0.3750 0.3750  plane waves:   19492
 k-point 25 :   0.1250-0.3750 0.3750  plane waves:   19492
 k-point 26 :   0.3750-0.3750 0.3750  plane waves:   19518
 k-point 27 :  -0.3750-0.3750 0.3750  plane waves:   19518
 k-point 28 :  -0.1250-0.3750 0.3750  plane waves:   19492
 k-point 29 :   0.1250-0.1250 0.3750  plane waves:   19471
 k-point 30 :   0.3750-0.1250 0.3750  plane waves:   19491
 k-point 31 :  -0.3750-0.1250 0.3750  plane waves:   19491
 k-point 32 :  -0.1250-0.1250 0.3750  plane waves:   19471

 maximum and minimum number of plane-waves per node :      2467     2407

 maximum number of plane-waves:     19518
 maximum index in each direction: 
   IXMAX=   17   IYMAX=   17   IZMAX=   16
   IXMIN=  -17   IYMIN=  -17   IZMIN=  -16


 real space projection operators:
  total allocation   :      18459.34 KBytes
  max/ min on nodes  :       2457.38       1913.56


 parallel 3D FFT for wavefunctions:
    minimum data exchange during FFTs selected (reduces bandwidth)
 parallel 3D FFT for charge:
    minimum data exchange during FFTs selected (reduces bandwidth)


 total amount of memory used by VASP MPI-rank0   107160. kBytes
=======================================================================

   base      :      30000. kBytes
   nonlr-proj:       8549. kBytes
   fftplans  :       8423. kBytes
   grid      :       8783. kBytes
   one-center:        124. kBytes
   wavefun   :      51281. kBytes
 
     INWAV:  cpu time   29.8285: real time   42.3350
 Broyden mixing: mesh for mixing (old mesh)
   NGX = 35   NGY = 33   NGZ = 33
  (NGX  =140   NGY  =140   NGZ  =140)
  gives a total of  38115 points

 charge density for first step will be calculated from the start-wavefunctions


--------------------------------------------------------------------------------------------------------


 Maximum index for non-local projection operator         1377
 Maximum index for augmentation-charges         7157 (set IRDMAX)


--------------------------------------------------------------------------------------------------------


 initial charge from wavefunction
 First call to EWALD:  gamma=   0.229
 Maximum number of real-space cells 3x 3x 3
 Maximum number of reciprocal cells 3x 3x 3

    FEWALD:  cpu time    0.0030: real time    0.0034


--------------------------------------- Iteration      1(   1)  ---------------------------------------


    POTLOK:  cpu time    0.2260: real time    0.2491
    SETDIJ:  cpu time    0.8429: real time    0.8489
     EDDAV:  cpu time   24.9402: real time   25.0636
       DOS:  cpu time    0.0040: real time    0.0035
    CHARGE:  cpu time    1.1508: real time    1.1608
    MIXING:  cpu time    0.0120: real time    0.0121
    --------------------------------------------
      LOOP:  cpu time   27.1759: real time   27.3378

 eigenvalue-minimisations  : 17280
 total energy-change (2. order) :-0.2114377E+03  (-0.3934908E-04)
 number of electron     240.0000004 magnetization       0.0000000
 augmentation part       61.9486781 magnetization       0.0000000

 Broyden mixing:
  rms(total) = 0.16536E-03    rms(broyden)= 0.16533E-03
  rms(prec ) = 0.27705E-03
  weight for this iteration     100.00

 Free energy of the ion-electron system (eV)
  ---------------------------------------------------
  alpha Z        PSCENC =       755.53435728
  Ewald energy   TEWEN  =    -12756.06873556
  -Hartree energ DENC   =     -8268.65821984
  -exchange      EXHF   =         0.00000000
  -V(xc)+E(xc)   XCENC  =      1119.52494590
  PAW double counting   =     18001.13881027   -18124.43413711
  entropy T*S    EENTRO =        -0.00000000
  eigenvalues    EBANDS =     -3240.82796596
  atomic energy  EATOM  =     22302.35321627
  Solvation  Ediel_sol  =         0.00000000
  ---------------------------------------------------
  free energy    TOTEN  =      -211.43772874 eV

  energy without entropy =     -211.43772874  energy(sigma->0) =     -211.43772874


--------------------------------------------------------------------------------------------------------




--------------------------------------- Iteration      1(   2)  ---------------------------------------


    POTLOK:  cpu time    0.1410: real time    0.3755
    SETDIJ:  cpu time    0.8569: real time    0.8555
     EDDAV:  cpu time   19.7910: real time   19.7794
       DOS:  cpu time    0.0030: real time    0.0034
    --------------------------------------------
      LOOP:  cpu time   20.7918: real time   21.0138

 eigenvalue-minimisations  : 11904
 total energy-change (2. order) : 0.4558751E-07  (-0.5744546E-07)
 number of electron     240.0000004 magnetization       0.0000000
 augmentation part       61.9486781 magnetization       0.0000000

 Free energy of the ion-electron system (eV)
  ---------------------------------------------------
  alpha Z        PSCENC =       755.53435728
  Ewald energy   TEWEN  =    -12756.06873556
  -Hartree energ DENC   =     -8268.66157991
  -exchange      EXHF   =         0.00000000
  -V(xc)+E(xc)   XCENC  =      1119.52516663
  PAW double counting   =     18001.14000633   -18124.43530775
  entropy T*S    EENTRO =        -0.00000000
  eigenvalues    EBANDS =     -3240.82485198
  atomic energy  EATOM  =     22302.35321627
  Solvation  Ediel_sol  =         0.00000000
  ---------------------------------------------------
  free energy    TOTEN  =      -211.43772870 eV

  energy without entropy =     -211.43772870  energy(sigma->0) =     -211.43772870


--------------------------------------------------------------------------------------------------------




 average (electrostatic) potential at core
  the test charge radii are     1.0397  0.7215  0.7167
  (the norm of the test charge is              1.0000)
       1 -60.2130       2 -60.2130       3 -59.0845       4 -59.0845       5 -58.3353
       6 -58.3354       7 -58.0078       8 -58.0078       9 -73.5334      10 -73.5334
      11 -75.3775      12 -73.6495      13 -73.6428      14 -73.7907      15 -72.6987
      16 -72.7076      17 -79.7578      18 -79.7578      19 -78.9591      20 -78.9591
      21 -79.7578      22 -79.7578      23 -78.9591      24 -78.9591      25 -80.0567
      26 -80.0567      27 -80.0520      28 -80.0520      29 -77.8599      30 -77.8599
      31 -80.0029      32 -78.7261
 
 
 
 E-fermi :   0.1853     XC(G=0):  -8.9636     alpha+bet : -7.6242


 spin component 1

 k-point     1 :       0.1250    0.1250    0.1250
  band No.  band energies     occupation 
      1     -36.1786      1.00000
      2     -36.1745      1.00000
      3     -36.1397      1.00000
      4     -36.1356      1.00000
      5     -36.1174      1.00000
      6     -36.0087      1.00000
      7     -35.1450      1.00000
      8     -35.1418      1.00000
      9     -35.0602      1.00000
     10     -35.0570      1.00000
     11     -34.7121      1.00000
     12     -34.6378      1.00000
     13     -34.4400      1.00000
     14     -34.4361      1.00000
     15     -34.3151      1.00000
     16     -34.2079      1.00000
     17     -34.1632      1.00000
     18     -34.1554      1.00000
     19     -34.0646      1.00000
     20     -34.0614      1.00000
     21     -33.8854      1.00000
     22     -33.8821      1.00000
     23     -33.6625      1.00000
     24     -33.5876      1.00000
     25     -24.0141      1.00000
     26     -23.9355      1.00000
     27     -23.6844      1.00000
     28     -23.5527      1.00000
     29     -23.5251      1.00000
     30     -23.4510      1.00000
     31     -23.4390      1.00000
     32     -23.1683      1.00000
     33     -23.1558      1.00000
     34     -22.7915      1.00000
     35     -22.7754      1.00000
     36     -22.4293      1.00000
     37     -22.3852      1.00000
     38     -22.3731      1.00000
     39     -21.5209      1.00000
     40     -21.5155      1.00000
     41     -17.8460      1.00000
     42     -16.6040      1.00000
     43     -16.3352      1.00000
     44     -16.0144      1.00000
     45     -15.9569      1.00000
     46     -15.7629      1.00000
     47     -15.5963      1.00000
     48     -14.8209      1.00000
     49      -7.5809      1.00000
     50      -7.5706      1.00000
     51      -7.4212      1.00000
     52      -7.1662      1.00000
     53      -7.1618      1.00000
     54      -6.3773      1.00000
     55      -6.3686      1.00000
     56      -6.3393      1.00000
     57      -6.1714      1.00000
     58      -6.0248      1.00000
     59      -6.0032      1.00000
     60      -5.9818      1.00000
     61      -5.9261      1.00000
     62      -5.8960      1.00000
     63      -5.7898      1.00000
     64      -5.7446      1.00000
     65      -5.2033      1.00000
     66      -5.1662      1.00000
     67      -5.1550      1.00000
     68      -5.1137      1.00000
     69      -5.0934      1.00000
     70      -5.0573      1.00000
     71      -5.0109      1.00000
     72      -4.9359      1.00000
     73      -4.8376      1.00000
     74      -4.7713      1.00000
     75      -4.7566      1.00000
     76      -4.7051      1.00000
     77      -4.6765      1.00000
     78      -4.6353      1.00000
     79      -4.5432      1.00000
     80      -4.5215      1.00000
     81      -4.4158      1.00000
     82      -4.3582      1.00000
     83      -4.3523      1.00000
     84      -4.3261      1.00000
     85      -4.2972      1.00000
     86      -4.0644      1.00000
     87      -4.0173      1.00000
     88      -4.0051      1.00000
     89      -3.9818      1.00000
     90      -3.9033      1.00000
     91      -3.8541      1.00000
     92      -3.8042      1.00000
     93      -3.7371      1.00000
     94      -3.7335      1.00000
     95      -3.6007      1.00000
     96      -3.3997      1.00000
     97      -3.1988      1.00000
     98      -3.0490      1.00000
     99      -3.0147      1.00000
    100      -2.7042      1.00000
    101      -2.6906      1.00000
    102      -2.6023      1.00000
    103      -2.5377      1.00000
    104      -2.4321      1.00000
    105      -2.2044      1.00000
    106      -1.8285      1.00000
    107      -1.8101      1.00000
    108      -1.7627      1.00000
    109      -1.6502      1.00000
    110      -1.5949      1.00000
    111      -1.5665      1.00000
    112      -1.5265      1.00000
    113      -1.3798      1.00000
    114      -1.2695      1.00000
    115      -1.1521      1.00000
    116      -0.7043      1.00000
    117      -0.6763      1.00000
    118      -0.2851      1.00000
    119      -0.1546      1.00000
    120       0.1314      1.00000
    121       1.0936      0.00000
    122       1.1830      0.00000
    123       1.5242      0.00000
    124       1.5520      0.00000
    125       2.1955      0.00000
    126       2.2258      0.00000
    127       2.3895      0.00000
    128       2.5410      0.00000
    129       2.5582      0.00000
    130       2.5689      0.00000
    131       2.5887      0.00000
    132       2.6300      0.00000
    133       2.6542      0.00000
    134       2.7247      0.00000
    135       2.8539      0.00000
    136       3.0207      0.00000
    137       3.0395      0.00000
    138       3.2490      0.00000
    139       3.5200      0.00000
    140       3.6682      0.00000
    141       3.8131      0.00000
    142       3.9172      0.00000
    143       3.9759      0.00000
    144       3.9932      0.00000
    145       4.0379      0.00000
    146       4.0777      0.00000
    147       4.1501      0.00000
    148       4.1587      0.00000
    149       4.2111      0.00000
    150       4.4965      0.00000
    151       4.7310      0.00000
    152       4.8253      0.00000
    153       5.0069      0.00000
    154       5.2154      0.00000
    155       5.2737      0.00000
    156       5.6156      0.00000
    157       5.9600      0.00000
    158       6.1193      0.00000
    159       6.4111      0.00000
    160       6.9129      0.00000

 k-point     2 :       0.3750    0.1250    0.1250
  band No.  band energies     occupation 
      1     -36.1786      1.00000
      2     -36.1745      1.00000
      3     -36.1390      1.00000
      4     -36.1350      1.00000
      5     -36.1174      1.00000
      6     -36.0087      1.00000
      7     -35.1450      1.00000
      8     -35.1418      1.00000
      9     -35.0590      1.00000
     10     -35.0557      1.00000
     11     -34.7121      1.00000
     12     -34.6378      1.00000
     13     -34.4412      1.00000
     14     -34.4373      1.00000
     15     -34.3151      1.00000
     16     -34.2079      1.00000
     17     -34.1632      1.00000
     18     -34.1554      1.00000
     19     -34.0664      1.00000
     20     -34.0632      1.00000
     21     -33.8854      1.00000
     22     -33.8821      1.00000
     23     -33.6625      1.00000
     24     -33.5876      1.00000
     25     -24.0065      1.00000
     26     -23.9302      1.00000
     27     -23.6751      1.00000
     28     -23.4716      1.00000
     29     -23.4573      1.00000
     30     -23.4424      1.00000
     31     -23.4339      1.00000
     32     -23.2682      1.00000
     33     -23.2510      1.00000
     34     -22.6880      1.00000
     35     -22.6730      1.00000
     36     -22.4951      1.00000
     37     -22.4812      1.00000
     38     -22.4267      1.00000
     39     -21.5199      1.00000
     40     -21.5147      1.00000
     41     -17.8459      1.00000
     42     -16.6037      1.00000
     43     -16.3348      1.00000
     44     -16.0141      1.00000
     45     -15.9567      1.00000
     46     -15.7627      1.00000
     47     -15.5960      1.00000
     48     -14.8212      1.00000
     49      -7.5775      1.00000
     50      -7.5677      1.00000
     51      -7.4204      1.00000
     52      -6.8650      1.00000
     53      -6.8340      1.00000
     54      -6.3428      1.00000
     55      -6.3014      1.00000
     56      -6.1678      1.00000
     57      -6.0454      1.00000
     58      -6.0319      1.00000
     59      -6.0081      1.00000
     60      -5.9952      1.00000
     61      -5.9267      1.00000
     62      -5.8920      1.00000
     63      -5.8578      1.00000
     64      -5.8217      1.00000
     65      -5.4628      1.00000
     66      -5.3947      1.00000
     67      -5.2117      1.00000
     68      -5.2071      1.00000
     69      -5.1703      1.00000
     70      -5.1155      1.00000
     71      -5.0145      1.00000
     72      -4.9538      1.00000
     73      -4.8841      1.00000
     74      -4.8446      1.00000
     75      -4.8062      1.00000
     76      -4.7972      1.00000
     77      -4.7820      1.00000
     78      -4.7524      1.00000
     79      -4.5938      1.00000
     80      -4.5493      1.00000
     81      -4.3902      1.00000
     82      -4.3628      1.00000
     83      -4.3270      1.00000
     84      -4.2873      1.00000
     85      -4.2072      1.00000
     86      -4.0959      1.00000
     87      -4.0771      1.00000
     88      -4.0279      1.00000
     89      -3.9903      1.00000
     90      -3.9545      1.00000
     91      -3.8258      1.00000
     92      -3.7833      1.00000
     93      -3.7316      1.00000
     94      -3.6901      1.00000
     95      -3.5552      1.00000
     96      -3.4226      1.00000
     97      -3.2053      1.00000
     98      -3.0669      1.00000
     99      -2.9381      1.00000
    100      -2.7463      1.00000
    101      -2.7163      1.00000
    102      -2.6157      1.00000
    103      -2.5452      1.00000
    104      -2.4367      1.00000
    105      -2.2065      1.00000
    106      -1.8931      1.00000
    107      -1.8106      1.00000
    108      -1.6367      1.00000
    109      -1.5933      1.00000
    110      -1.5870      1.00000
    111      -1.5256      1.00000
    112      -1.4722      1.00000
    113      -1.3852      1.00000
    114      -1.2666      1.00000
    115      -1.1521      1.00000
    116      -0.8554      1.00000
    117      -0.6850      1.00000
    118      -0.3338      1.00000
    119      -0.1565      1.00000
    120       0.1311      1.00000
    121       1.0936      0.00000
    122       1.2585      0.00000
    123       1.5837      0.00000
    124       1.6088      0.00000
    125       2.2258      0.00000
    126       2.3110      0.00000
    127       2.4018      0.00000
    128       2.5795      0.00000
    129       2.6091      0.00000
    130       2.6150      0.00000
    131       2.6273      0.00000
    132       2.6437      0.00000
    133       2.8152      0.00000
    134       2.8353      0.00000
    135       2.8633      0.00000
    136       2.9469      0.00000
    137       3.0167      0.00000
    138       3.1359      0.00000
    139       3.8136      0.00000
    140       3.9071      0.00000
    141       3.9165      0.00000
    142       3.9906      0.00000
    143       4.0045      0.00000
    144       4.0506      0.00000
    145       4.0892      0.00000
    146       4.1351      0.00000
    147       4.1489      0.00000
    148       4.2224      0.00000
    149       4.2960      0.00000
    150       4.4464      0.00000
    151       4.5777      0.00000
    152       4.8036      0.00000
    153       4.9630      0.00000
    154       5.0183      0.00000
    155       5.2351      0.00000
    156       5.2835      0.00000
    157       6.1032      0.00000
    158       6.1572      0.00000
    159       6.4568      0.00000
    160       6.5494      0.00000

 k-point     3 :      -0.3750    0.1250    0.1250
  band No.  band energies     occupation 
      1     -36.1786      1.00000
      2     -36.1745      1.00000
      3     -36.1390      1.00000
      4     -36.1350      1.00000
      5     -36.1174      1.00000
      6     -36.0087      1.00000
      7     -35.1450      1.00000
      8     -35.1418      1.00000
      9     -35.0590      1.00000
     10     -35.0557      1.00000
     11     -34.7121      1.00000
     12     -34.6378      1.00000
     13     -34.4412      1.00000
     14     -34.4373      1.00000
     15     -34.3151      1.00000
     16     -34.2079      1.00000
     17     -34.1632      1.00000
     18     -34.1554      1.00000
     19     -34.0664      1.00000
     20     -34.0632      1.00000
     21     -33.8854      1.00000
     22     -33.8821      1.00000
     23     -33.6625      1.00000
     24     -33.5876      1.00000
     25     -24.0065      1.00000
     26     -23.9302      1.00000
     27     -23.6751      1.00000
     28     -23.4716      1.00000
     29     -23.4573      1.00000
     30     -23.4424      1.00000
     31     -23.4339      1.00000
     32     -23.2682      1.00000
     33     -23.2510      1.00000
     34     -22.6880      1.00000
     35     -22.6730      1.00000
     36     -22.4951      1.00000
     37     -22.4812      1.00000
     38     -22.4267      1.00000
     39     -21.5199      1.00000
     40     -21.5147      1.00000
     41     -17.8459      1.00000
     42     -16.6037      1.00000
     43     -16.3348      1.00000
     44     -16.0141      1.00000
     45     -15.9567      1.00000
     46     -15.7627      1.00000
     47     -15.5960      1.00000
     48     -14.8212      1.00000
     49      -7.5775      1.00000
     50      -7.5677      1.00000
     51      -7.4204      1.00000
     52      -6.8650      1.00000
     53      -6.8340      1.00000
     54      -6.3428      1.00000
     55      -6.3014      1.00000
     56      -6.1678      1.00000
     57      -6.0454      1.00000
     58      -6.0319      1.00000
     59      -6.0081      1.00000
     60      -5.9952      1.00000
     61      -5.9267      1.00000
     62      -5.8920      1.00000
     63      -5.8578      1.00000
     64      -5.8217      1.00000
     65      -5.4628      1.00000
     66      -5.3947      1.00000
     67      -5.2117      1.00000
     68      -5.2071      1.00000
     69      -5.1703      1.00000
     70      -5.1155      1.00000
     71      -5.0145      1.00000
     72      -4.9538      1.00000
     73      -4.8841      1.00000
     74      -4.8446      1.00000
     75      -4.8062      1.00000
     76      -4.7972      1.00000
     77      -4.7820      1.00000
     78      -4.7524      1.00000
     79      -4.5938      1.00000
     80      -4.5493      1.00000
     81      -4.3902      1.00000
     82      -4.3628      1.00000
     83      -4.3270      1.00000
     84      -4.2873      1.00000
     85      -4.2072      1.00000
     86      -4.0959      1.00000
     87      -4.0771      1.00000
     88      -4.0279      1.00000
     89      -3.9903      1.00000
     90      -3.9545      1.00000
     91      -3.8258      1.00000
     92      -3.7833      1.00000
     93      -3.7316      1.00000
     94      -3.6901      1.00000
     95      -3.5552      1.00000
     96      -3.4226      1.00000
     97      -3.2053      1.00000
     98      -3.0669      1.00000
     99      -2.9381      1.00000
    100      -2.7463      1.00000
    101      -2.7163      1.00000
    102      -2.6157      1.00000
    103      -2.5452      1.00000
    104      -2.4367      1.00000
    105      -2.2065      1.00000
    106      -1.8931      1.00000
    107      -1.8106      1.00000
    108      -1.6367      1.00000
    109      -1.5933      1.00000
    110      -1.5870      1.00000
    111      -1.5256      1.00000
    112      -1.4722      1.00000
    113      -1.3852      1.00000
    114      -1.2666      1.00000
    115      -1.1521      1.00000
    116      -0.8554      1.00000
    117      -0.6850      1.00000
    118      -0.3338      1.00000
    119      -0.1565      1.00000
    120       0.1311      1.00000
    121       1.0936      0.00000
    122       1.2585      0.00000
    123       1.5837      0.00000
    124       1.6088      0.00000
    125       2.2258      0.00000
    126       2.3110      0.00000
    127       2.4018      0.00000
    128       2.5795      0.00000
    129       2.6091      0.00000
    130       2.6150      0.00000
    131       2.6273      0.00000
    132       2.6437      0.00000
    133       2.8152      0.00000
    134       2.8353      0.00000
    135       2.8633      0.00000
    136       2.9469      0.00000
    137       3.0167      0.00000
    138       3.1359      0.00000
    139       3.8136      0.00000
    140       3.9071      0.00000
    141       3.9165      0.00000
    142       3.9906      0.00000
    143       4.0045      0.00000
    144       4.0506      0.00000
    145       4.0892      0.00000
    146       4.1351      0.00000
    147       4.1489      0.00000
    148       4.2224      0.00000
    149       4.2960      0.00000
    150       4.4464      0.00000
    151       4.5777      0.00000
    152       4.8036      0.00000
    153       4.9630      0.00000
    154       5.0183      0.00000
    155       5.2351      0.00000
    156       5.2835      0.00000
    157       6.1032      0.00000
    158       6.1572      0.00000
    159       6.4568      0.00000
    160       6.5494      0.00000

 k-point     4 :      -0.1250    0.1250    0.1250
  band No.  band energies     occupation 
      1     -36.1786      1.00000
      2     -36.1745      1.00000
      3     -36.1397      1.00000
      4     -36.1356      1.00000
      5     -36.1174      1.00000
      6     -36.0087      1.00000
      7     -35.1450      1.00000
      8     -35.1418      1.00000
      9     -35.0602      1.00000
     10     -35.0570      1.00000
     11     -34.7121      1.00000
     12     -34.6378      1.00000
     13     -34.4400      1.00000
     14     -34.4361      1.00000
     15     -34.3151      1.00000
     16     -34.2079      1.00000
     17     -34.1632      1.00000
     18     -34.1554      1.00000
     19     -34.0646      1.00000
     20     -34.0614      1.00000
     21     -33.8854      1.00000
     22     -33.8821      1.00000
     23     -33.6625      1.00000
     24     -33.5876      1.00000
     25     -24.0141      1.00000
     26     -23.9355      1.00000
     27     -23.6844      1.00000
     28     -23.5527      1.00000
     29     -23.5251      1.00000
     30     -23.4510      1.00000
     31     -23.4390      1.00000
     32     -23.1683      1.00000
     33     -23.1558      1.00000
     34     -22.7915      1.00000
     35     -22.7754      1.00000
     36     -22.4293      1.00000
     37     -22.3852      1.00000
     38     -22.3731      1.00000
     39     -21.5209      1.00000
     40     -21.5155      1.00000
     41     -17.8460      1.00000
     42     -16.6040      1.00000
     43     -16.3352      1.00000
     44     -16.0144      1.00000
     45     -15.9569      1.00000
     46     -15.7629      1.00000
     47     -15.5963      1.00000
     48     -14.8209      1.00000
     49      -7.5809      1.00000
     50      -7.5706      1.00000
     51      -7.4212      1.00000
     52      -7.1662      1.00000
     53      -7.1618      1.00000
     54      -6.3773      1.00000
     55      -6.3686      1.00000
     56      -6.3393      1.00000
     57      -6.1714      1.00000
     58      -6.0248      1.00000
     59      -6.0032      1.00000
     60      -5.9818      1.00000
     61      -5.9261      1.00000
     62      -5.8960      1.00000
     63      -5.7898      1.00000
     64      -5.7446      1.00000
     65      -5.2033      1.00000
     66      -5.1662      1.00000
     67      -5.1550      1.00000
     68      -5.1137      1.00000
     69      -5.0934      1.00000
     70      -5.0573      1.00000
     71      -5.0109      1.00000
     72      -4.9359      1.00000
     73      -4.8376      1.00000
     74      -4.7713      1.00000
     75      -4.7566      1.00000
     76      -4.7051      1.00000
     77      -4.6765      1.00000
     78      -4.6353      1.00000
     79      -4.5432      1.00000
     80      -4.5215      1.00000
     81      -4.4158      1.00000
     82      -4.3582      1.00000
     83      -4.3523      1.00000
     84      -4.3261      1.00000
     85      -4.2972      1.00000
     86      -4.0644      1.00000
     87      -4.0173      1.00000
     88      -4.0051      1.00000
     89      -3.9818      1.00000
     90      -3.9033      1.00000
     91      -3.8541      1.00000
     92      -3.8042      1.00000
     93      -3.7371      1.00000
     94      -3.7335      1.00000
     95      -3.6007      1.00000
     96      -3.3997      1.00000
     97      -3.1988      1.00000
     98      -3.0490      1.00000
     99      -3.0147      1.00000
    100      -2.7042      1.00000
    101      -2.6906      1.00000
    102      -2.6023      1.00000
    103      -2.5377      1.00000
    104      -2.4321      1.00000
    105      -2.2044      1.00000
    106      -1.8285      1.00000
    107      -1.8101      1.00000
    108      -1.7627      1.00000
    109      -1.6502      1.00000
    110      -1.5949      1.00000
    111      -1.5665      1.00000
    112      -1.5265      1.00000
    113      -1.3798      1.00000
    114      -1.2695      1.00000
    115      -1.1521      1.00000
    116      -0.7043      1.00000
    117      -0.6763      1.00000
    118      -0.2851      1.00000
    119      -0.1546      1.00000
    120       0.1314      1.00000
    121       1.0936      0.00000
    122       1.1830      0.00000
    123       1.5242      0.00000
    124       1.5520      0.00000
    125       2.1955      0.00000
    126       2.2258      0.00000
    127       2.3895      0.00000
    128       2.5410      0.00000
    129       2.5582      0.00000
    130       2.5689      0.00000
    131       2.5887      0.00000
    132       2.6300      0.00000
    133       2.6542      0.00000
    134       2.7247      0.00000
    135       2.8539      0.00000
    136       3.0207      0.00000
    137       3.0395      0.00000
    138       3.2490      0.00000
    139       3.5200      0.00000
    140       3.6682      0.00000
    141       3.8131      0.00000
    142       3.9172      0.00000
    143       3.9759      0.00000
    144       3.9932      0.00000
    145       4.0379      0.00000
    146       4.0777      0.00000
    147       4.1501      0.00000
    148       4.1587      0.00000
    149       4.2111      0.00000
    150       4.4965      0.00000
    151       4.7310      0.00000
    152       4.8253      0.00000
    153       5.0069      0.00000
    154       5.2154      0.00000
    155       5.2737      0.00000
    156       5.6156      0.00000
    157       5.9600      0.00000
    158       6.1193      0.00000
    159       6.4111      0.00000
    160       6.9129      0.00000

 k-point     5 :       0.1250    0.3750    0.1250
  band No.  band energies     occupation 
      1     -36.1769      1.00000
      2     -36.1728      1.00000
      3     -36.1397      1.00000
      4     -36.1356      1.00000
      5     -36.1174      1.00000
      6     -36.0087      1.00000
      7     -35.1475      1.00000
      8     -35.1442      1.00000
      9     -35.0602      1.00000
     10     -35.0570      1.00000
     11     -34.7121      1.00000
     12     -34.6378      1.00000
     13     -34.4400      1.00000
     14     -34.4361      1.00000
     15     -34.3151      1.00000
     16     -34.2077      1.00000
     17     -34.1598      1.00000
     18     -34.1523      1.00000
     19     -34.0646      1.00000
     20     -34.0614      1.00000
     21     -33.8891      1.00000
     22     -33.8858      1.00000
     23     -33.6625      1.00000
     24     -33.5876      1.00000
     25     -23.9336      1.00000
     26     -23.8249      1.00000
     27     -23.6624      1.00000
     28     -23.5880      1.00000
     29     -23.5648      1.00000
     30     -23.5247      1.00000
     31     -23.5186      1.00000
     32     -23.1682      1.00000
     33     -23.1557      1.00000
     34     -22.7894      1.00000
     35     -22.7735      1.00000
     36     -22.4290      1.00000
     37     -22.3852      1.00000
     38     -22.3731      1.00000
     39     -21.5156      1.00000
     40     -21.5104      1.00000
     41     -17.8459      1.00000
     42     -16.6035      1.00000
     43     -16.3400      1.00000
     44     -16.0319      1.00000
     45     -15.9746      1.00000
     46     -15.7630      1.00000
     47     -15.5911      1.00000
     48     -14.8209      1.00000
     49      -7.4420      1.00000
     50      -7.2138      1.00000
     51      -7.1841      1.00000
     52      -7.1560      1.00000
     53      -7.1442      1.00000
     54      -6.6226      1.00000
     55      -6.4974      1.00000
     56      -6.3659      1.00000
     57      -6.3447      1.00000
     58      -6.1752      1.00000
     59      -6.0077      1.00000
     60      -5.9006      1.00000
     61      -5.8712      1.00000
     62      -5.8186      1.00000
     63      -5.7922      1.00000
     64      -5.7500      1.00000
     65      -5.3204      1.00000
     66      -5.2432      1.00000
     67      -5.2175      1.00000
     68      -5.1685      1.00000
     69      -5.1236      1.00000
     70      -5.0017      1.00000
     71      -4.9549      1.00000
     72      -4.9161      1.00000
     73      -4.9047      1.00000
     74      -4.8501      1.00000
     75      -4.7793      1.00000
     76      -4.7614      1.00000
     77      -4.7247      1.00000
     78      -4.5528      1.00000
     79      -4.5432      1.00000
     80      -4.4497      1.00000
     81      -4.3712      1.00000
     82      -4.2673      1.00000
     83      -4.2230      1.00000
     84      -4.1731      1.00000
     85      -4.1612      1.00000
     86      -4.0581      1.00000
     87      -4.0059      1.00000
     88      -3.9895      1.00000
     89      -3.9507      1.00000
     90      -3.8923      1.00000
     91      -3.8037      1.00000
     92      -3.7692      1.00000
     93      -3.7566      1.00000
     94      -3.7366      1.00000
     95      -3.5988      1.00000
     96      -3.3819      1.00000
     97      -3.2086      1.00000
     98      -3.1193      1.00000
     99      -3.0503      1.00000
    100      -3.0314      1.00000
    101      -2.9504      1.00000
    102      -2.7302      1.00000
    103      -2.7176      1.00000
    104      -2.4916      1.00000
    105      -2.3901      1.00000
    106      -1.8594      1.00000
    107      -1.8274      1.00000
    108      -1.7628      1.00000
    109      -1.6467      1.00000
    110      -1.6144      1.00000
    111      -1.5538      1.00000
    112      -1.5229      1.00000
    113      -1.3002      1.00000
    114      -1.1570      1.00000
    115      -1.0595      1.00000
    116      -0.7119      1.00000
    117      -0.7050      1.00000
    118      -0.2943      1.00000
    119      -0.1770      1.00000
    120       0.0218      1.00000
    121       1.1829      0.00000
    122       1.2068      0.00000
    123       1.6533      0.00000
    124       1.6764      0.00000
    125       2.1011      0.00000
    126       2.1958      0.00000
    127       2.4396      0.00000
    128       2.4717      0.00000
    129       2.5001      0.00000
    130       2.5610      0.00000
    131       2.5842      0.00000
    132       2.7251      0.00000
    133       2.9564      0.00000
    134       2.9707      0.00000
    135       3.0490      0.00000
    136       3.1756      0.00000
    137       3.2005      0.00000
    138       3.2504      0.00000
    139       3.5246      0.00000
    140       3.6652      0.00000
    141       3.7879      0.00000
    142       3.8892      0.00000
    143       3.8947      0.00000
    144       3.9182      0.00000
    145       3.9333      0.00000
    146       3.9588      0.00000
    147       4.1243      0.00000
    148       4.1466      0.00000
    149       4.4246      0.00000
    150       4.6053      0.00000
    151       4.8256      0.00000
    152       4.8691      0.00000
    153       5.0056      0.00000
    154       5.1647      0.00000
    155       5.2868      0.00000
    156       5.5565      0.00000
    157       5.9122      0.00000
    158       6.2500      0.00000
    159       6.4956      0.00000
    160       6.7464      0.00000

 k-point     6 :       0.3750    0.3750    0.1250
  band No.  band energies     occupation 
      1     -36.1769      1.00000
      2     -36.1728      1.00000
      3     -36.1390      1.00000
      4     -36.1350      1.00000
      5     -36.1174      1.00000
      6     -36.0087      1.00000
      7     -35.1475      1.00000
      8     -35.1442      1.00000
      9     -35.0590      1.00000
     10     -35.0557      1.00000
     11     -34.7121      1.00000
     12     -34.6378      1.00000
     13     -34.4412      1.00000
     14     -34.4373      1.00000
     15     -34.3151      1.00000
     16     -34.2077      1.00000
     17     -34.1598      1.00000
     18     -34.1523      1.00000
     19     -34.0664      1.00000
     20     -34.0632      1.00000
     21     -33.8891      1.00000
     22     -33.8858      1.00000
     23     -33.6625      1.00000
     24     -33.5876      1.00000
     25     -23.9220      1.00000
     26     -23.8159      1.00000
     27     -23.6576      1.00000
     28     -23.5761      1.00000
     29     -23.5641      1.00000
     30     -23.4523      1.00000
     31     -23.4438      1.00000
     32     -23.2679      1.00000
     33     -23.2507      1.00000
     34     -22.6864      1.00000
     35     -22.6715      1.00000
     36     -22.4948      1.00000
     37     -22.4810      1.00000
     38     -22.4265      1.00000
     39     -21.5148      1.00000
     40     -21.5096      1.00000
     41     -17.8458      1.00000
     42     -16.6031      1.00000
     43     -16.3396      1.00000
     44     -16.0317      1.00000
     45     -15.9744      1.00000
     46     -15.7628      1.00000
     47     -15.5909      1.00000
     48     -14.8211      1.00000
     49      -7.4397      1.00000
     50      -7.2030      1.00000
     51      -7.1654      1.00000
     52      -6.8648      1.00000
     53      -6.8334      1.00000
     54      -6.6187      1.00000
     55      -6.4824      1.00000
     56      -6.3062      1.00000
     57      -6.1708      1.00000
     58      -6.0507      1.00000
     59      -6.0131      1.00000
     60      -6.0018      1.00000
     61      -5.8799      1.00000
     62      -5.8545      1.00000
     63      -5.8250      1.00000
     64      -5.7544      1.00000
     65      -5.3968      1.00000
     66      -5.3548      1.00000
     67      -5.3367      1.00000
     68      -5.2276      1.00000
     69      -5.1813      1.00000
     70      -5.1260      1.00000
     71      -5.1239      1.00000
     72      -5.0299      1.00000
     73      -4.9013      1.00000
     74      -4.8519      1.00000
     75      -4.8483      1.00000
     76      -4.7672      1.00000
     77      -4.7451      1.00000
     78      -4.6467      1.00000
     79      -4.5962      1.00000
     80      -4.5717      1.00000
     81      -4.2949      1.00000
     82      -4.2560      1.00000
     83      -4.1945      1.00000
     84      -4.1399      1.00000
     85      -4.1091      1.00000
     86      -4.1045      1.00000
     87      -4.0897      1.00000
     88      -4.0786      1.00000
     89      -4.0438      1.00000
     90      -3.9559      1.00000
     91      -3.8222      1.00000
     92      -3.8020      1.00000
     93      -3.7077      1.00000
     94      -3.6840      1.00000
     95      -3.5509      1.00000
     96      -3.4059      1.00000
     97      -3.2153      1.00000
     98      -3.1235      1.00000
     99      -3.0548      1.00000
    100      -3.0020      1.00000
    101      -2.8999      1.00000
    102      -2.7433      1.00000
    103      -2.7144      1.00000
    104      -2.4949      1.00000
    105      -2.3920      1.00000
    106      -1.8971      1.00000
    107      -1.8527      1.00000
    108      -1.6426      1.00000
    109      -1.5876      1.00000
    110      -1.5396      1.00000
    111      -1.5291      1.00000
    112      -1.4760      1.00000
    113      -1.2969      1.00000
    114      -1.1586      1.00000
    115      -1.0576      1.00000
    116      -0.8560      1.00000
    117      -0.7217      1.00000
    118      -0.3456      1.00000
    119      -0.1794      1.00000
    120       0.0216      1.00000
    121       1.2069      0.00000
    122       1.2583      0.00000
    123       1.6753      0.00000
    124       1.6966      0.00000
    125       2.1012      0.00000
    126       2.3114      0.00000
    127       2.5010      0.00000
    128       2.5357      0.00000
    129       2.5525      0.00000
    130       2.5946      0.00000
    131       2.6433      0.00000
    132       2.6726      0.00000
    133       3.0114      0.00000
    134       3.0571      0.00000
    135       3.0743      0.00000
    136       3.1353      0.00000
    137       3.2802      0.00000
    138       3.3367      0.00000
    139       3.7853      0.00000
    140       3.8322      0.00000
    141       3.8845      0.00000
    142       3.8925      0.00000
    143       3.9090      0.00000
    144       3.9674      0.00000
    145       4.0435      0.00000
    146       4.0961      0.00000
    147       4.1172      0.00000
    148       4.1646      0.00000
    149       4.3430      0.00000
    150       4.5260      0.00000
    151       4.8044      0.00000
    152       4.8254      0.00000
    153       4.9463      0.00000
    154       4.9995      0.00000
    155       5.1172      0.00000
    156       5.2811      0.00000
    157       5.8991      0.00000
    158       6.2385      0.00000
    159       6.5417      0.00000
    160       6.7428      0.00000

 k-point     7 :      -0.3750    0.3750    0.1250
  band No.  band energies     occupation 
      1     -36.1769      1.00000
      2     -36.1728      1.00000
      3     -36.1390      1.00000
      4     -36.1350      1.00000
      5     -36.1174      1.00000
      6     -36.0087      1.00000
      7     -35.1475      1.00000
      8     -35.1442      1.00000
      9     -35.0590      1.00000
     10     -35.0557      1.00000
     11     -34.7121      1.00000
     12     -34.6378      1.00000
     13     -34.4412      1.00000
     14     -34.4373      1.00000
     15     -34.3151      1.00000
     16     -34.2077      1.00000
     17     -34.1598      1.00000
     18     -34.1523      1.00000
     19     -34.0664      1.00000
     20     -34.0632      1.00000
     21     -33.8891      1.00000
     22     -33.8858      1.00000
     23     -33.6625      1.00000
     24     -33.5876      1.00000
     25     -23.9220      1.00000
     26     -23.8159      1.00000
     27     -23.6576      1.00000
     28     -23.5761      1.00000
     29     -23.5641      1.00000
     30     -23.4523      1.00000
     31     -23.4438      1.00000
     32     -23.2679      1.00000
     33     -23.2507      1.00000
     34     -22.6864      1.00000
     35     -22.6715      1.00000
     36     -22.4948      1.00000
     37     -22.4810      1.00000
     38     -22.4265      1.00000
     39     -21.5148      1.00000
     40     -21.5096      1.00000
     41     -17.8458      1.00000
     42     -16.6031      1.00000
     43     -16.3396      1.00000
     44     -16.0317      1.00000
     45     -15.9744      1.00000
     46     -15.7628      1.00000
     47     -15.5909      1.00000
     48     -14.8211      1.00000
     49      -7.4397      1.00000
     50      -7.2030      1.00000
     51      -7.1654      1.00000
     52      -6.8648      1.00000
     53      -6.8334      1.00000
     54      -6.6187      1.00000
     55      -6.4824      1.00000
     56      -6.3062      1.00000
     57      -6.1708      1.00000
     58      -6.0507      1.00000
     59      -6.0131      1.00000
     60      -6.0018      1.00000
     61      -5.8799      1.00000
     62      -5.8545      1.00000
     63      -5.8250      1.00000
     64      -5.7544      1.00000
     65      -5.3968      1.00000
     66      -5.3548      1.00000
     67      -5.3367      1.00000
     68      -5.2276      1.00000
     69      -5.1813      1.00000
     70      -5.1260      1.00000
     71      -5.1239      1.00000
     72      -5.0299      1.00000
     73      -4.9013      1.00000
     74      -4.8519      1.00000
     75      -4.8483      1.00000
     76      -4.7672      1.00000
     77      -4.7451      1.00000
     78      -4.6467      1.00000
     79      -4.5962      1.00000
     80      -4.5717      1.00000
     81      -4.2949      1.00000
     82      -4.2560      1.00000
     83      -4.1945      1.00000
     84      -4.1399      1.00000
     85      -4.1091      1.00000
     86      -4.1045      1.00000
     87      -4.0897      1.00000
     88      -4.0786      1.00000
     89      -4.0438      1.00000
     90      -3.9559      1.00000
     91      -3.8222      1.00000
     92      -3.8020      1.00000
     93      -3.7077      1.00000
     94      -3.6840      1.00000
     95      -3.5509      1.00000
     96      -3.4059      1.00000
     97      -3.2153      1.00000
     98      -3.1235      1.00000
     99      -3.0548      1.00000
    100      -3.0020      1.00000
    101      -2.8999      1.00000
    102      -2.7433      1.00000
    103      -2.7144      1.00000
    104      -2.4949      1.00000
    105      -2.3920      1.00000
    106      -1.8971      1.00000
    107      -1.8527      1.00000
    108      -1.6426      1.00000
    109      -1.5876      1.00000
    110      -1.5396      1.00000
    111      -1.5291      1.00000
    112      -1.4760      1.00000
    113      -1.2969      1.00000
    114      -1.1586      1.00000
    115      -1.0576      1.00000
    116      -0.8560      1.00000
    117      -0.7217      1.00000
    118      -0.3456      1.00000
    119      -0.1794      1.00000
    120       0.0216      1.00000
    121       1.2069      0.00000
    122       1.2583      0.00000
    123       1.6753      0.00000
    124       1.6966      0.00000
    125       2.1012      0.00000
    126       2.3114      0.00000
    127       2.5010      0.00000
[...]
  0.000  -0.000   0.000  -0.000   0.000  -0.000   0.000   0.000  -0.000  -0.000   0.000  -0.000   0.000  -0.000   0.000  -0.000
 -0.000  -0.000   0.000   0.000  -0.000   0.000   0.000  -0.000  -0.000   0.000  -0.000  -0.000  -0.000   0.000  -0.000   0.000
  0.000  -0.000   0.000   0.000  -0.000   0.000  -0.000  -0.000   0.000  -0.000  -0.000   0.000   0.000  -0.000   0.000   0.000
  0.000   0.000  -0.000   0.000  -0.000   0.000  -0.000   0.000   0.000   0.000  -0.000   0.000  -0.000  -0.000   0.000   0.000
  0.000  -0.000   0.000  -0.000   0.000   0.000  -0.000  -0.000  -0.000  -0.000   0.000  -0.000  -0.000   0.000  -0.000  -0.000
 -0.000   0.000  -0.000  -0.000  -0.000   0.000  -0.000  -0.000   0.000   0.000  -0.000   0.000   0.000  -0.000  -0.000   0.000
  0.000   0.000  -0.000  -0.000   0.000  -0.000   0.000   0.000   0.000  -0.000   0.000   0.000   0.000  -0.000   0.000  -0.000
  0.000  -0.000   0.000   0.000   0.000  -0.000   0.000   0.000  -0.000   0.000   0.000  -0.000  -0.000  -0.000  -0.000  -0.000
 -0.000  -0.000   0.000   0.000   0.000  -0.000   0.000   0.000  -0.000  -0.000  -0.000  -0.000  -0.000  -0.000   0.000   0.000


------------------------ aborting loop because EDIFF is reached ----------------------------------------


 


 total charge     
 
# of ion       s       p       d       tot
------------------------------------------
    1        0.325   6.496   1.749   8.570
    2        0.325   6.496   1.749   8.570
    3        0.303   6.466   1.715   8.483
    4        0.303   6.466   1.715   8.483
    5        0.314   6.461   1.825   8.600
    6        0.314   6.461   1.825   8.600
    7        0.301   6.450   1.708   8.458
    8        0.301   6.450   1.708   8.458
    9        1.568   3.456   0.000   5.024
   10        1.568   3.456   0.000   5.024
   11        1.575   3.489   0.000   5.063
   12        1.569   3.446   0.000   5.014
   13        1.568   3.443   0.000   5.011
   14        1.572   3.489   0.000   5.061
   15        1.567   3.442   0.000   5.009
   16        1.568   3.444   0.000   5.013
   17        1.730   4.378   0.000   6.108
   18        1.730   4.378   0.000   6.108
   19        1.730   4.379   0.000   6.109
   20        1.730   4.379   0.000   6.109
   21        1.730   4.378   0.000   6.108
   22        1.730   4.378   0.000   6.108
   23        1.730   4.379   0.000   6.109
   24        1.730   4.379   0.000   6.109
   25        1.731   4.387   0.000   6.118
   26        1.731   4.387   0.000   6.118
   27        1.731   4.386   0.000   6.117
   28        1.731   4.386   0.000   6.117
   29        1.728   4.369   0.000   6.098
   30        1.728   4.369   0.000   6.098
   31        1.732   4.392   0.000   6.124
   32        1.731   4.390   0.000   6.120
--------------------------------------------------
tot         42.718 149.507  13.993 206.217
 


 magnetization (x)
 
# of ion       s       p       d       tot
------------------------------------------
    1       -0.000  -0.000  -0.000  -0.000
    2       -0.000   0.000  -0.000  -0.000
    3       -0.000  -0.000  -0.000  -0.000
    4       -0.000  -0.000  -0.000  -0.000
    5        0.000  -0.000  -0.000   0.000
    6        0.000   0.000  -0.000   0.000
    7       -0.000   0.000  -0.000  -0.000
    8       -0.000   0.000  -0.000  -0.000
    9       -0.000   0.000   0.000   0.000
   10        0.000  -0.000   0.000  -0.000
   11       -0.000   0.000   0.000   0.000
   12        0.000   0.000   0.000   0.000
   13        0.000   0.000   0.000   0.000
   14       -0.000  -0.000   0.000  -0.000
   15       -0.000  -0.000   0.000  -0.000
   16       -0.000   0.000   0.000   0.000
   17       -0.000   0.000   0.000   0.000
   18        0.000  -0.000   0.000  -0.000
   19        0.000   0.000   0.000   0.000
   20        0.000   0.000   0.000   0.000
   21       -0.000   0.000   0.000   0.000
   22        0.000   0.000   0.000   0.000
   23        0.000   0.000   0.000   0.000
   24        0.000   0.000   0.000   0.000
   25        0.000  -0.000   0.000  -0.000
   26        0.000  -0.000   0.000  -0.000
   27        0.000   0.000   0.000   0.000
   28        0.000   0.000   0.000   0.000
   29       -0.000   0.000   0.000  -0.000
   30        0.000   0.000   0.000   0.000
   31       -0.000   0.000   0.000   0.000
   32       -0.000  -0.000   0.000  -0.000
--------------------------------------------------
tot         -0.000   0.000  -0.000   0.000
 
    CHARGE:  cpu time    1.1758: real time    1.1734
    FORLOC:  cpu time    0.0090: real time    0.0096
    FORNL :  cpu time    6.9219: real time    6.9151
    STRESS:  cpu time   20.8908: real time   20.8552
    FORCOR:  cpu time    0.1300: real time    0.1291
    FORHAR:  cpu time    0.0220: real time    0.0213
    MIXING:  cpu time    0.0000: real time    0.0016
    OFIELD:  cpu time    0.0000: real time    0.0000

  FORCE on cell =-STRESS in cart. coord.  units (eV):
  Direction    XX          YY          ZZ          XY          YZ          ZX
  --------------------------------------------------------------------------------------
  Alpha Z   755.53436   755.53436   755.53436
  Ewald   -4379.72407 -4292.42777 -4083.97102     0.00041     0.00036    -0.00006
  Hartree  2675.49599  2730.27550  2862.89868     0.00020     0.00003    -0.00002
  E(xc)   -1231.73204 -1231.94066 -1232.37919     0.00000    -0.00000     0.00000
  Local   -1932.65788 -2103.74342 -2504.79274    -0.00061    -0.00036     0.00008
  n-local  -974.52788  -968.55379  -957.61286    -0.00000    -0.00001    -0.00003
  augment   743.93290   753.29219   773.86440     0.00000     0.00000     0.00000
  Kinetic  4343.69014  4357.56826  4386.47269    -0.00002    -0.00001     0.00000
  Fock        0.00000     0.00000     0.00000     0.00000     0.00000     0.00000
  -------------------------------------------------------------------------------------
  Total       0.01152     0.00466     0.01432    -0.00001     0.00002    -0.00003
  in kB       0.03983     0.01612     0.04950    -0.00004     0.00006    -0.00009
  external pressure =        0.04 kB  Pullay stress =        0.00 kB


 VOLUME and BASIS-vectors are now :
 -----------------------------------------------------------------------------
  energy-cutoff  :      700.00
  volume of cell :      463.47
      direct lattice vectors                 reciprocal lattice vectors
     7.907962078  0.000000274 -0.000000035     0.126454830 -0.000000003  0.000000001
     0.000000204  7.797244556 -0.000000340    -0.000000004  0.128250434  0.000000006
    -0.000000034 -0.000000327  7.516473863     0.000000001  0.000000006  0.133041107

  length of vectors
     7.907962078  7.797244556  7.516473863     0.126454830  0.128250434  0.133041107


 FORCES acting on ions
    electron-ion (+dipol)            ewald-force                    non-local-force                 convergence-correction
 -----------------------------------------------------------------------------------------------
   -.391E-04 0.379E+01 0.198E+02   0.415E-04 -.379E+01 -.203E+02   -.172E-05 -.161E-02 0.514E+00   0.645E-05 0.745E-03 -.212E-02
   0.832E-05 0.379E+01 -.198E+02   -.979E-05 -.379E+01 0.203E+02   0.114E-06 -.161E-02 -.514E+00   0.631E-07 0.747E-03 0.213E-02
   0.761E-05 -.518E+01 0.123E+02   -.824E-05 0.516E+01 -.122E+02   -.657E-07 0.205E-01 -.208E-01   0.242E-05 -.721E-03 -.901E-03
   0.792E-04 -.518E+01 -.123E+02   -.792E-04 0.516E+01 0.122E+02   -.613E-06 0.205E-01 0.208E-01   0.320E-06 -.725E-03 0.905E-03
   0.605E-04 0.183E+02 -.264E+01   -.601E-04 -.190E+02 0.389E+01   0.125E-05 0.683E+00 -.124E+01   -.641E-05 0.820E-03 -.289E-02
   -.576E-04 0.183E+02 0.265E+01   0.566E-04 -.190E+02 -.389E+01   0.475E-06 0.683E+00 0.124E+01   0.111E-05 0.961E-03 0.289E-02
   -.192E-05 -.236E+02 -.854E+01   0.291E-05 0.245E+02 0.850E+01   0.933E-06 -.894E+00 0.404E-01   -.263E-05 -.286E-02 -.240E-02
   -.431E-04 -.236E+02 0.854E+01   0.438E-04 0.245E+02 -.850E+01   0.462E-06 -.894E+00 -.404E-01   -.931E-06 -.298E-02 0.240E-02
   0.701E-04 0.565E+02 0.112E+02   -.793E-04 -.613E+02 -.128E+02   0.125E-04 0.481E+01 0.161E+01   -.156E-05 0.602E-04 -.284E-02
   0.164E-04 0.565E+02 -.112E+02   -.230E-04 -.613E+02 0.128E+02   0.699E-05 0.481E+01 -.161E+01   0.309E-06 -.193E-04 0.283E-02
   -.226E-04 0.290E+01 0.324E-03   0.238E-04 -.296E+01 -.366E-03   -.337E-05 0.611E-01 -.135E-05   0.158E-05 0.101E-02 0.131E-04
   0.345E-04 -.316E+01 0.167E-02   -.363E-04 0.323E+01 -.190E-02   0.834E-06 -.683E-01 0.225E-03   0.960E-06 0.684E-03 0.338E-04
   0.119E-04 -.353E+01 0.215E-02   -.124E-04 0.360E+01 -.236E-02   -.493E-06 -.695E-01 0.217E-03   0.937E-06 0.632E-03 -.266E-04
   -.359E-04 -.291E+02 -.344E-02   0.405E-04 0.346E+02 0.374E-02   -.267E-05 -.550E+01 -.127E-03   -.155E-05 0.112E-02 0.361E-04
   -.234E-04 0.613E+01 -.832E-03   0.258E-04 -.761E+01 0.745E-03   -.131E-05 0.148E+01 -.275E-04   -.107E-05 -.479E-02 0.163E-03
   -.520E-05 0.113E+01 0.666E-03   0.631E-05 -.244E+01 -.560E-03   -.656E-07 0.130E+01 0.127E-04   -.947E-06 -.512E-02 -.166E-03
   -.668E+02 -.185E+01 0.407E+00   0.740E+02 0.335E+01 0.328E+00   -.715E+01 -.150E+01 -.733E+00   -.413E-04 0.711E-03 -.126E-02
   -.668E+02 -.185E+01 -.407E+00   0.740E+02 0.335E+01 -.329E+00   -.715E+01 -.150E+01 0.733E+00   0.107E-04 0.731E-03 0.126E-02
   -.456E+02 -.983E+00 0.135E+01   0.503E+02 0.147E+00 -.137E+01   -.473E+01 0.838E+00 0.166E-01   -.178E-03 -.714E-03 -.106E-02
   -.456E+02 -.983E+00 -.135E+01   0.503E+02 0.147E+00 0.137E+01   -.473E+01 0.838E+00 -.167E-01   -.630E-04 -.731E-03 0.106E-02
   0.668E+02 -.185E+01 0.407E+00   -.740E+02 0.335E+01 0.328E+00   0.715E+01 -.150E+01 -.733E+00   0.431E-04 0.712E-03 -.126E-02
   0.668E+02 -.185E+01 -.407E+00   -.740E+02 0.335E+01 -.329E+00   0.715E+01 -.150E+01 0.733E+00   -.115E-04 0.731E-03 0.126E-02
   0.456E+02 -.983E+00 0.135E+01   -.503E+02 0.147E+00 -.137E+01   0.473E+01 0.838E+00 0.166E-01   0.179E-03 -.713E-03 -.106E-02
   0.456E+02 -.983E+00 -.135E+01   -.503E+02 0.147E+00 0.137E+01   0.473E+01 0.838E+00 -.167E-01   0.634E-04 -.731E-03 0.106E-02
   -.450E-04 -.490E+02 -.420E+01   0.556E-04 0.539E+02 0.641E+01   -.139E-04 -.486E+01 -.221E+01   0.182E-05 0.495E-03 0.200E-03
   -.428E-04 -.490E+02 0.420E+01   0.539E-04 0.539E+02 -.641E+01   -.116E-04 -.486E+01 0.221E+01   0.998E-07 0.538E-03 -.198E-03
   -.258E-04 0.502E+02 -.315E+01   0.288E-04 -.551E+02 0.531E+01   -.573E-05 0.491E+01 -.215E+01   0.245E-05 0.703E-07 -.118E-03
   0.374E-04 0.502E+02 0.315E+01   -.404E-04 -.551E+02 -.531E+01   0.271E-05 0.491E+01 0.215E+01   0.689E-06 -.450E-04 0.118E-03
   -.698E-05 -.239E+02 0.884E+00   0.142E-04 0.241E+02 -.210E+01   -.436E-05 -.202E+00 0.122E+01   -.279E-05 -.107E-03 -.125E-02
   0.218E-04 -.239E+02 -.884E+00   -.244E-04 0.241E+02 0.210E+01   0.298E-05 -.202E+00 -.122E+01   -.585E-06 0.624E-05 0.125E-02
   -.103E-04 0.272E+01 -.157E-03   0.115E-04 -.280E+01 0.155E-03   -.311E-05 0.847E-01 0.340E-04   0.162E-05 0.550E-03 -.192E-04
   -.370E-04 -.176E+02 0.200E-03   0.433E-04 0.235E+02 0.992E-06   0.216E-04 -.584E+01 -.148E-03   -.174E-05 0.266E-02 -.359E-04
 -----------------------------------------------------------------------------------------------
   0.627E-05 0.227E+01 0.109E-03   -.287E-13 0.675E-13 0.121E-12   0.168E-04 -.226E+01 -.114E-04   0.250E-05 -.635E-02 -.310E-05
 
 
 POSITION                                       TOTAL-FORCE (eV/Angst)
 -----------------------------------------------------------------------------------
      7.90796      0.00297      7.43457         0.000006      0.001238     -0.002402
      0.00000      0.00297      3.84014        -0.000002      0.001231      0.002420
      7.90796      3.89893      0.00291         0.000001      0.000286     -0.000793
      7.90796      3.89893      3.75533        -0.000001      0.000292      0.000762
      3.95398      7.66540      0.08186        -0.000006      0.001911     -0.002481
      3.95398      7.66540      3.67638        -0.000000      0.001928      0.002330
      3.95398      3.95452      7.51370        -0.000002     -0.000086     -0.002757
      3.95398      3.95452      3.76102        -0.000001     -0.000144      0.002752
      3.95398      5.89040      7.48480         0.000001     -0.001415     -0.002609
      3.95398      5.89040      3.78991        -0.000000     -0.001338      0.002636
      0.00000      7.79688      5.63736        -0.000001      0.001077     -0.000033
      7.90796      3.90568      1.87912        -0.000001      0.002729      0.000020
      7.90796      3.90530      5.63736        -0.000001      0.002389     -0.000019
      3.95398      0.08352      1.87912        -0.000000     -0.001637      0.000197
      3.95398      3.85936      1.87912        -0.000001     -0.005991      0.000045
      3.95398      3.86659      5.63736        -0.000001     -0.008814     -0.000050
      1.91019      0.00896      0.01208         0.000234     -0.000257      0.000406
      1.91019      0.00896      3.74616         0.000266     -0.000256     -0.000412
      1.93325      3.88660      7.51608         0.000260      0.001203      0.000173
      1.93325      3.88660      3.75863         0.000285      0.001204     -0.000174
      5.99778      0.00896      0.01208        -0.000239     -0.000256      0.000405
      5.99778      0.00896      3.74616        -0.000267     -0.000254     -0.000413
      5.97471      3.88660      7.51608        -0.000263      0.001205      0.000173
      5.97471      3.88660      3.75863        -0.000286      0.001206     -0.000174
      0.00000      1.90577      0.04131        -0.000002      0.000615      0.002245
      0.00000      1.90577      3.71693        -0.000001      0.000618     -0.002251
      7.90796      5.89540      0.04039        -0.000001      0.000274      0.001263
      7.90796      5.89540      3.71785        -0.000000      0.000275     -0.001269
      3.95398      1.91102      7.47703        -0.000001     -0.001322      0.001666
      3.95398      1.91102      3.79768        -0.000001     -0.001351     -0.001682
      0.00000      7.79517      1.87912        -0.000001      0.000103      0.000009
      3.95398      0.11790      5.63736         0.000025      0.003338      0.000014
 -----------------------------------------------------------------------------------
    total drift:                                0.000026      0.000265      0.000094


--------------------------------------------------------------------------------------------------------



  FREE ENERGIE OF THE ION-ELECTRON SYSTEM (eV)
  ---------------------------------------------------
  free  energy   TOTEN  =      -211.43772870 eV

  energy  without entropy=     -211.43772870  energy(sigma->0) =     -211.43772870
 


--------------------------------------------------------------------------------------------------------


    POTLOK:  cpu time    0.9868: real time    0.9846


--------------------------------------------------------------------------------------------------------


 stress matrix after NEB project (eV)
      0.01152     -0.00001     -0.00003
     -0.00001      0.00466      0.00002
     -0.00003      0.00002      0.01432
  FORCES: max atom, RMS     0.008815    0.002741
  FORCE total and by dimension    0.015503    0.008814
  Stress total and by dimension    0.018960    0.014318
 Quasi-Newton relaxation of ions (Broydens 2nd method)
  g(Force)  = 0.116E-04   g(Stress)= 0.542E-06

 Reset! Starting new Quasi-Newton update for ions 


--------------------------------------------------------------------------------------------------------


  
 reached required accuracy - stopping structural energy minimisation
 writing wavefunctions
     LOOP+:  cpu time  109.6033: real time  116.3831
    4ORBIT:  cpu time    0.0000: real time    0.0000
 


 total charge     
 
# of ion       s       p       d       tot
------------------------------------------
    1        0.325   6.496   1.749   8.570
    2        0.325   6.496   1.749   8.570
    3        0.303   6.466   1.715   8.483
    4        0.303   6.466   1.715   8.483
    5        0.314   6.461   1.825   8.600
    6        0.314   6.461   1.825   8.600
    7        0.301   6.450   1.708   8.458
    8        0.301   6.450   1.708   8.458
    9        1.568   3.456   0.000   5.024
   10        1.568   3.456   0.000   5.024
   11        1.575   3.489   0.000   5.063
   12        1.569   3.446   0.000   5.014
   13        1.568   3.443   0.000   5.011
   14        1.572   3.489   0.000   5.061
   15        1.567   3.442   0.000   5.009
   16        1.568   3.444   0.000   5.013
   17        1.730   4.378   0.000   6.108
   18        1.730   4.378   0.000   6.108
   19        1.730   4.379   0.000   6.109
   20        1.730   4.379   0.000   6.109
   21        1.730   4.378   0.000   6.108
   22        1.730   4.378   0.000   6.108
   23        1.730   4.379   0.000   6.109
   24        1.730   4.379   0.000   6.109
   25        1.731   4.387   0.000   6.118
   26        1.731   4.387   0.000   6.118
   27        1.731   4.386   0.000   6.117
   28        1.731   4.386   0.000   6.117
   29        1.728   4.369   0.000   6.098
   30        1.728   4.369   0.000   6.098
   31        1.732   4.392   0.000   6.124
   32        1.731   4.390   0.000   6.120
--------------------------------------------------
tot         42.718 149.507  13.993 206.217
 


 magnetization (x)
 
# of ion       s       p       d       tot
------------------------------------------
    1       -0.000  -0.000  -0.000  -0.000
    2       -0.000   0.000  -0.000  -0.000
    3       -0.000  -0.000  -0.000  -0.000
    4       -0.000  -0.000  -0.000  -0.000
    5        0.000  -0.000  -0.000   0.000
    6        0.000   0.000  -0.000   0.000
    7       -0.000   0.000  -0.000  -0.000
    8       -0.000   0.000  -0.000  -0.000
    9       -0.000   0.000   0.000   0.000
   10        0.000  -0.000   0.000  -0.000
   11       -0.000   0.000   0.000   0.000
   12        0.000   0.000   0.000   0.000
   13        0.000   0.000   0.000   0.000
   14       -0.000  -0.000   0.000  -0.000
   15       -0.000  -0.000   0.000  -0.000
   16       -0.000   0.000   0.000   0.000
   17       -0.000   0.000   0.000   0.000
   18        0.000  -0.000   0.000  -0.000
   19        0.000   0.000   0.000   0.000
   20        0.000   0.000   0.000   0.000
   21       -0.000   0.000   0.000   0.000
   22        0.000   0.000   0.000   0.000
   23        0.000   0.000   0.000   0.000
   24        0.000   0.000   0.000   0.000
   25        0.000  -0.000   0.000  -0.000
   26        0.000  -0.000   0.000  -0.000
   27        0.000   0.000   0.000   0.000
   28        0.000   0.000   0.000   0.000
   29       -0.000   0.000   0.000  -0.000
   30        0.000   0.000   0.000   0.000
   31       -0.000   0.000   0.000   0.000
   32       -0.000  -0.000   0.000  -0.000
--------------------------------------------------
tot         -0.000   0.000  -0.000   0.000
 

 total amount of memory used by VASP MPI-rank0   107160. kBytes
=======================================================================

   base      :      30000. kBytes
   nonlr-proj:       8549. kBytes
   fftplans  :       8423. kBytes
   grid      :       8783. kBytes
   one-center:        124. kBytes
   wavefun   :      51281. kBytes
 
  
  
 General timing and accounting informations for this job:
 ========================================================
  
                  Total CPU time used (sec):      159.649
                            User time (sec):      151.564
                          System time (sec):        8.085
                         Elapsed time (sec):      184.378
  
                   Maximum memory used (kb):      220108.
                   Average memory used (kb):           0.
  
                          Minor page faults:        86179
                          Major page faults:            2
                 Voluntary context switches:        56438
