 vasp.5.4.4.18Apr17-6-g9f103f2a35 (build Jul 16 2019 12:12:28) complex          
  
 executed on             LinuxIFC date 2020.01.06  11:58:01
 running on   96 total cores
 distrk:  each k-point on   96 cores,    1 groups
 distr:  one band on NCORES_PER_BAND=   8 cores,   12 groups


--------------------------------------------------------------------------------------------------------


 INCAR:
 POTCAR:    PAW_PBE Li_sv 10Sep2004               
 POTCAR:    PAW_PBE Ti_pv 07Sep2000               
 POTCAR:    PAW_PBE O 08Apr2002                   
 POTCAR:    PAW_PBE F 08Apr2002                   
 POTCAR:    PAW_PBE Li_sv 10Sep2004               
   VRHFIN =Li: 1s2s2p                                                           
   LEXCH  = PE                                                                  
   EATOM  =   202.7858 eV,   14.9043 Ry                                         
                                                                                
   TITEL  = PAW_PBE Li_sv 10Sep2004                                             
   LULTRA =        F    use ultrasoft PP ?                                      
   IUNSCR =        0    unscreen: 0-lin 1-nonlin 2-no                           
   RPACOR =    0.000    partial core radius                                     
   POMASS =    7.010; ZVAL   =    3.000    mass and valenz                      
   RCORE  =    1.700    outmost cutoff radius                                   
   RWIGS  =    2.050; RWIGS  =    1.085    wigner-seitz radius (au A)           
   ENMAX  =  499.034; ENMIN  =  374.276 eV                                      
   ICORE  =        2    local potential                                         
   LCOR   =        T    correct aug charges                                     
   LPAW   =        T    paw PP                                                  
   EAUG   =  628.945                                                            
   RMAX   =    1.732    core radius for proj-oper                               
   RAUG   =    1.300    factor for augmentation sphere                          
   RDEP   =    1.728    radius for radial grids                                 
   RDEPT  =    1.329    core radius for aug-charge                              
                                                                                
   Atomic configuration                                                         
    4 entries                                                                   
     n  l   j            E        occ.                                          
     1  0  0.50       -51.8549   2.0000                                         
     2  0  0.50        -2.8742   1.0000                                         
     2  1  0.50        -1.3606   0.0000                                         
     3  2  1.50        -1.3606   0.0000                                         
   Description                                                                  
     l       E           TYP  RCUT    TYP  RCUT                                 
     0    -51.8548813     23  1.400                                             
     0     -2.8742052     23  1.700                                             
     1     -1.3605826     23  1.400                                             
     2     -1.3605826     23  1.400                                             
  local pseudopotential read in
  atomic valenz-charges read in
  non local Contribution for L=           0  read in
    real space projection operators read in
  non local Contribution for L=           0  read in
    real space projection operators read in
  non local Contribution for L=           1  read in
    real space projection operators read in
    PAW grid and wavefunctions read in
 
   number of l-projection  operators is LMAX  =           3
   number of lm-projection operators is LMMAX =           5
 
 POTCAR:    PAW_PBE Ti_pv 07Sep2000               
   VRHFIN =Ti: d3 s1                                                            
   LEXCH  = PE                                                                  
   EATOM  =  1042.5995 eV,   76.6289 Ry                                         
                                                                                
   TITEL  = PAW_PBE Ti_pv 07Sep2000                                             
   LULTRA =        F    use ultrasoft PP ?                                      
   IUNSCR =        1    unscreen: 0-lin 1-nonlin 2-no                           
   RPACOR =    2.200    partial core radius                                     
   POMASS =   47.880; ZVAL   =   10.000    mass and valenz                      
   RCORE  =    2.500    outmost cutoff radius                                   
   RWIGS  =    2.500; RWIGS  =    1.323    wigner-seitz radius (au A)           
   ENMAX  =  222.335; ENMIN  =  166.751 eV                                      
   RCLOC  =    1.701    cutoff for local pot                                    
   LCOR   =        T    correct aug charges                                     
   LPAW   =        T    paw PP                                                  
   EAUG   =  482.848                                                            
   DEXC   =    0.000                                                            
   RMAX   =    2.564    core radius for proj-oper                               
   RAUG   =    1.300    factor for augmentation sphere                          
   RDEP   =    2.538    radius for radial grids                                 
   RDEPT  =    1.952    core radius for aug-charge                              
                                                                                
   Atomic configuration                                                         
    8 entries                                                                   
     n  l   j            E        occ.                                          
     1  0  0.50     -4865.3608   2.0000                                         
     2  0  0.50      -533.1368   2.0000                                         
     2  1  1.50      -440.5031   6.0000                                         
     3  0  0.50       -59.3186   2.0000                                         
     3  1  1.50       -35.7012   6.0000                                         
     3  2  2.50        -1.9157   3.0000                                         
     4  0  0.50        -3.7291   1.0000                                         
     4  3  2.50        -1.3606   0.0000                                         
   Description                                                                  
     l       E           TYP  RCUT    TYP  RCUT                                 
     1    -35.7012140     23  2.300                                             
     1     -1.3605826     23  2.300                                             
     2     -1.9156996     23  2.500                                             
     2     -0.4063033     23  2.500                                             
     0     -3.7290856     23  2.500                                             
     0     20.4087390     23  2.500                                             
  local pseudopotential read in
  partial core-charges read in
  partial kinetic energy density read in
  atomic valenz-charges read in
  non local Contribution for L=           1  read in
    real space projection operators read in
  non local Contribution for L=           1  read in
    real space projection operators read in
  non local Contribution for L=           2  read in
    real space projection operators read in
  non local Contribution for L=           2  read in
    real space projection operators read in
  non local Contribution for L=           0  read in
    real space projection operators read in
  non local Contribution for L=           0  read in
    real space projection operators read in
    PAW grid and wavefunctions read in
 
   number of l-projection  operators is LMAX  =           6
   number of lm-projection operators is LMMAX =          18
 
 POTCAR:    PAW_PBE O 08Apr2002                   
   VRHFIN =O: s2p4                                                              
   LEXCH  = PE                                                                  
   EATOM  =   432.3788 eV,   31.7789 Ry                                         
                                                                                
   TITEL  = PAW_PBE O 08Apr2002                                                 
   LULTRA =        F    use ultrasoft PP ?                                      
   IUNSCR =        1    unscreen: 0-lin 1-nonlin 2-no                           
   RPACOR =    1.200    partial core radius                                     
   POMASS =   16.000; ZVAL   =    6.000    mass and valenz                      
   RCORE  =    1.520    outmost cutoff radius                                   
   RWIGS  =    1.550; RWIGS  =    0.820    wigner-seitz radius (au A)           
   ENMAX  =  400.000; ENMIN  =  300.000 eV                                      
   ICORE  =        2    local potential                                         
   LCOR   =        T    correct aug charges                                     
   LPAW   =        T    paw PP                                                  
   EAUG   =  605.392                                                            
   DEXC   =    0.000                                                            
   RMAX   =    1.553    core radius for proj-oper                               
   RAUG   =    1.300    factor for augmentation sphere                          
   RDEP   =    1.550    radius for radial grids                                 
   RDEPT  =    1.329    core radius for aug-charge                              
                                                                                
   Atomic configuration                                                         
    4 entries                                                                   
     n  l   j            E        occ.                                          
     1  0  0.50      -514.6923   2.0000                                         
     2  0  0.50       -23.9615   2.0000                                         
     2  1  0.50        -9.0305   4.0000                                         
     3  2  1.50        -9.5241   0.0000                                         
   Description                                                                  
     l       E           TYP  RCUT    TYP  RCUT                                 
     0    -23.9615318     23  1.200                                             
     0     -9.5240782     23  1.200                                             
     1     -9.0304911     23  1.520                                             
     1      8.1634956     23  1.520                                             
     2     -9.5240782      7  1.500                                             
  local pseudopotential read in
  partial core-charges read in
  partial kinetic energy density read in
  kinetic energy density of atom read in
  atomic valenz-charges read in
  non local Contribution for L=           0  read in
    real space projection operators read in
  non local Contribution for L=           0  read in
    real space projection operators read in
  non local Contribution for L=           1  read in
    real space projection operators read in
  non local Contribution for L=           1  read in
    real space projection operators read in
    PAW grid and wavefunctions read in
 
   number of l-projection  operators is LMAX  =           4
   number of lm-projection operators is LMMAX =           8
 
 POTCAR:    PAW_PBE F 08Apr2002                   
   VRHFIN =F: s2p5                                                              
   LEXCH  = PE                                                                  
   EATOM  =   659.6475 eV,   48.4827 Ry                                         
                                                                                
   TITEL  = PAW_PBE F 08Apr2002                                                 
   LULTRA =        F    use ultrasoft PP ?                                      
   IUNSCR =        1    unscreen: 0-lin 1-nonlin 2-no                           
   RPACOR =    1.200    partial core radius                                     
   POMASS =   18.998; ZVAL   =    7.000    mass and valenz                      
   RCORE  =    1.520    outmost cutoff radius                                   
   RWIGS  =    1.500; RWIGS  =    0.794    wigner-seitz radius (au A)           
   ENMAX  =  400.000; ENMIN  =  300.000 eV                                      
   ICORE  =        2    local potential                                         
   LCOR   =        T    correct aug charges                                     
   LPAW   =        T    paw PP                                                  
   EAUG   =  613.614                                                            
   RMAX   =    1.555    core radius for proj-oper                               
   RAUG   =    1.300    factor for augmentation sphere                          
   RDEP   =    1.539    radius for radial grids                                 
   RDEPT  =    1.299    core radius for aug-charge                              
                                                                                
   Atomic configuration                                                         
    4 entries                                                                   
     n  l   j            E        occ.                                          
     1  0  0.50      -663.3661   2.0000                                         
     2  0  0.50       -29.8995   2.0000                                         
     2  1  0.50       -11.1114   5.0000                                         
     3  2  1.50       -10.8847   0.0000                                         
   Description                                                                  
     l       E           TYP  RCUT    TYP  RCUT                                 
     0    -29.8995018     23  1.200                                             
     0     -9.5240782     23  1.200                                             
     1    -11.1113914     23  1.520                                             
     1      1.3605826     23  1.520                                             
     2    -10.8846608      7  1.500                                             
  local pseudopotential read in
  partial core-charges read in
  partial kinetic energy density read in
  atomic valenz-charges read in
  non local Contribution for L=           0  read in
    real space projection operators read in
  non local Contribution for L=           0  read in
    real space projection operators read in
  non local Contribution for L=           1  read in
    real space projection operators read in
  non local Contribution for L=           1  read in
    real space projection operators read in
    PAW grid and wavefunctions read in
 
   number of l-projection  operators is LMAX  =           4
   number of lm-projection operators is LMMAX =           8
 
 Optimization of the real space projectors (new method)

 maximal supplied QI-value         = 22.11
 optimisation between [QCUT,QGAM] = [ 11.28, 22.77] = [ 35.61,145.23] Ry 
 Optimized for a Real-space Cutoff    1.31 Angstroem

   l    n(q)    QCUT    max X(q) W(low)/X(q) W(high)/X(q)  e(spline) 
   0      9    11.276    10.506    0.19E-04    0.17E-04    0.32E-07
   0      9    11.276     8.367    0.38E-04    0.40E-04    0.65E-07
   1      8    11.276     8.983    0.55E-04    0.98E-04    0.20E-06
 Optimization of the real space projectors (new method)

 maximal supplied QI-value         = 15.12
 optimisation between [QCUT,QGAM] = [ 11.34, 22.83] = [ 36.00,145.93] Ry 
 Optimized for a Real-space Cutoff    1.56 Angstroem

   l    n(q)    QCUT    max X(q) W(low)/X(q) W(high)/X(q)  e(spline) 
   1     10    11.338     4.216    0.27E-04    0.12E-04    0.66E-07
   1     10    11.338     5.422    0.81E-04    0.24E-04    0.19E-06
   2     10    11.338    72.084    0.64E-04    0.21E-03    0.51E-06
   2     10    11.338    65.965    0.63E-04    0.21E-03    0.50E-06
   0     11    11.338    41.531    0.33E-04    0.54E-04    0.13E-06
   0     11    11.338    16.290    0.26E-04    0.41E-04    0.11E-06
 Optimization of the real space projectors (new method)

 maximal supplied QI-value         = 24.76
 optimisation between [QCUT,QGAM] = [ 11.39, 22.77] = [ 36.31,145.25] Ry 
 Optimized for a Real-space Cutoff    1.20 Angstroem

   l    n(q)    QCUT    max X(q) W(low)/X(q) W(high)/X(q)  e(spline) 
   0      8    11.387    20.381    0.89E-04    0.31E-03    0.27E-06
   0      8    11.387    15.268    0.93E-04    0.32E-03    0.29E-06
   1      8    11.387     5.964    0.53E-04    0.28E-03    0.29E-06
   1      8    11.387     5.382    0.37E-04    0.22E-03    0.26E-06
 Optimization of the real space projectors (new method)

 maximal supplied QI-value         = 24.76
 optimisation between [QCUT,QGAM] = [ 11.39, 22.77] = [ 36.31,145.25] Ry 
 Optimized for a Real-space Cutoff    1.20 Angstroem

   l    n(q)    QCUT    max X(q) W(low)/X(q) W(high)/X(q)  e(spline) 
   0      8    11.387    14.049    0.69E-04    0.23E-03    0.18E-06
   0      8    11.387     8.945    0.88E-04    0.30E-03    0.26E-06
   1      8    11.387     7.086    0.62E-04    0.27E-03    0.27E-06
   1      8    11.387     6.747    0.46E-04    0.23E-03    0.25E-06

 ----------------------------------------------------------------------------- 
|                                                                             |
|  ADVICE TO THIS USER RUNNING 'VASP/VAMP'   (HEAR YOUR MASTER'S VOICE ...):  |
|                                                                             |
|      You enforced a specific xc-type in the INCAR file,                     |
|      a different type was found on the POTCAR file                          |
|          I HOPE YOU KNOW, WHAT YOU ARE  DOING                               |
|                                                                             |
 ----------------------------------------------------------------------------- 

  PAW_PBE Li_sv 10Sep2004               :
 energy of atom  1       EATOM= -202.7858
 kinetic energy error for atom=    0.0143 (will be added to EATOM!!)
  PAW_PBE Ti_pv 07Sep2000               :
 energy of atom  2       EATOM=-1042.5995
 kinetic energy error for atom=    0.0024 (will be added to EATOM!!)
  PAW_PBE O 08Apr2002                   :
 energy of atom  3       EATOM= -432.3788
 kinetic energy error for atom=    0.0224 (will be added to EATOM!!)
  PAW_PBE F 08Apr2002                   :
 energy of atom  4       EATOM= -659.6475
 kinetic energy error for atom=    0.0354 (will be added to EATOM!!)
 
 
 POSCAR: config 31                               
  positions in direct lattice
  velocities in cartesian coordinates
 exchange correlation table for  LEXCH =       14
   RHO(1)=    0.500       N(1)  =     2000
   RHO(2)=  100.500       N(2)  =     4000

 VTST: version 3.2, (02/03/18)

 CHAIN: initializing optimizer
 
 OPT: Using VASP QUASI-newton optimizer
 CHAIN: Read ICHAIN            0
 
 POSCAR: config 31                               
  positions in direct lattice
  velocities in cartesian coordinates
 


--------------------------------------------------------------------------------------------------------


 ion  position               nearest neighbor table
   1  0.396  0.867  0.636-  73 2.07 134 2.15
   2  0.995  0.995  0.994- 118 1.87  68 1.88 103 1.89 171 2.03 212 2.04 130 2.04
   3  0.999  0.992  0.493- 119 1.82  67 1.82 193 1.96 172 1.96 131 2.01 213 2.09
   4  0.006  0.496  0.997-  89 1.84 117 1.86 138 1.93 132 1.98 214 2.02 194 2.03
   5  0.994  0.504  0.507-  66 1.83 104 1.84 215 1.94 223 2.01 173 2.02 137 2.03
   6  0.494  0.994  1.000- 101 1.83 121 1.85 133 1.96 140 1.97 216 2.01 174 2.03
   7  0.503  0.006  0.499- 112 1.89 139 1.99 191 2.01 175 2.02 134 2.05 225 2.07
   8  0.504  0.496  0.996- 120 1.88  90 1.89  70 1.89 135 2.03 192 2.03 217 2.05
   9  0.492  0.498  0.496- 102 1.82  69 1.86 224 1.94 136 2.01 218 2.03 176 2.08
  10  0.007  0.003  0.256-  91 1.83  67 1.86 219 1.95 227 1.97 130 2.00 197 2.05
  11  0.001  0.008  0.757-  68 1.79 113 1.84 177 1.96 198 1.99 228 2.05 131 2.06
  12  0.994  0.494  0.251- 107 1.83 122 1.86 137 1.93 132 1.97 220 2.01 178 2.03
  13  0.993  0.499  0.742- 108 1.82  66 1.82 226 1.93 221 1.97 138 2.03 179 2.05
  14  0.506  0.008  0.251- 114 1.83  92 1.84 139 1.91 133 1.95 195 2.02 231 2.06
  15  0.493  0.005  0.752- 115 1.82 105 1.83 140 1.93 134 1.98 180 2.03 232 2.04
  16  0.493  0.496  0.258-  69 1.82 106 1.84 229 1.95 222 2.00 135 2.03 181 2.04
  17  0.500  0.503  0.758-  70 1.79 116 1.90 182 1.94 196 1.97 230 2.01 136 2.06
  18  0.995  0.258  0.002- 117 1.82 110 1.87 141 1.96 146 1.97 183 2.01 212 2.02
  19  0.998  0.248  0.491-  74 1.78 213 1.92 202 1.93 184 1.94 223 1.95 142 2.01
  20  0.997  0.758  0.006- 118 1.80  71 1.86 203 1.95 185 1.98 148 2.05 214 2.06
  21  0.996  0.757  0.506- 119 1.83  72 1.84 204 1.96 186 1.99 147 2.01 215 2.03
  22  0.495  0.258  0.001- 120 1.80 109 1.84 150 1.96 143 1.97 187 2.03 216 2.06
  23  0.509  0.243  0.499- 112 1.79  93 1.85 144 1.94 149 1.95 199 2.03 224 2.04
  24  0.507  0.756  1.000-  94 1.83 121 1.83 152 1.95 145 1.98 217 2.01 200 2.02
  25  0.507  0.753  0.509-  95 1.82  73 1.84 218 1.95 225 1.97 201 2.03 151 2.05
  26  1.000  0.259  0.255- 122 1.80  74 1.88 209 1.95 188 1.96 141 1.99 219 2.03
  27  0.006  0.242  0.747- 113 1.80  96 1.83 142 1.96 146 1.97 226 2.05 210 2.05
  28  0.006  0.748  0.242-  71 1.82  97 1.84 220 1.95 227 1.97 147 2.05 211 2.06
  29  0.992  0.751  0.743- 111 1.83  72 1.84 228 1.93 221 1.97 148 2.02 189 2.03
  30  0.508  0.241  0.252- 114 1.82  98 1.83 143 1.94 149 1.95 229 2.02 205 2.03
  31  0.506  0.242  0.749-  99 1.83 115 1.86 150 1.93 144 1.95 206 2.02 230 2.02
  32  0.506  0.751  0.251- 100 1.79 231 1.92 151 1.94 222 1.94 145 1.94 207 2.00
  33  0.502  0.741  0.744- 116 1.78  73 1.88 190 1.92 208 2.00 152 2.00 232 2.07
  34  0.257  0.998  0.006-  75 1.84 101 1.86 246 1.93 233 1.96 171 2.01 157 2.05
  35  0.253  0.994  0.506- 128 1.85  76 1.86 191 1.92 172 1.97 156 2.01 234 2.02
  36  0.244  0.508  0.998- 123 1.83  89 1.84 159 1.94 153 1.98 192 2.02 245 2.03
  37  0.255  0.495  0.507-  77 1.86 102 1.88 127 1.88 173 2.04 158 2.04 235 2.08
  38  0.757  0.000  0.993- 103 1.79  81 1.88 236 1.96 249 1.96 154 2.03 174 2.05
  39  0.749  0.008  0.494- 124 1.83  80 1.84 175 1.93 193 1.96 155 2.00 250 2.08
  40  0.742  0.501  0.005-  90 1.80  78 1.87 237 1.96 247 1.96 161 2.03 194 2.05
  41  0.756  0.499  0.505-  79 1.84 104 1.86 248 1.96 238 2.00 176 2.02 160 2.02
  42  0.245  0.003  0.243-  75 1.84  91 1.85 239 1.94 252 1.97 156 2.04 195 2.04
  43  0.258  0.998  0.745-  76 1.84 105 1.85 253 1.94 240 1.95 157 2.01 177 2.01
  44  0.255  0.492  0.252- 129 1.83 106 1.83 158 1.94 153 1.97 178 2.04 241 2.05
  45  0.247  0.506  0.741-  77 1.79 125 1.84 179 1.95 196 1.97 251 2.02 159 2.06
  46  0.745  0.001  0.255-  92 1.85  80 1.85 256 1.96 242 1.96 197 2.01 154 2.01
  47  0.748  0.006  0.755-  81 1.82 126 1.83 180 1.96 198 1.97 257 2.04 155 2.04
  48  0.755  0.499  0.242-  78 1.81 107 1.85 254 1.96 243 1.96 181 2.02 160 2.05
  49  0.757  0.498  0.742- 108 1.83  79 1.83 255 1.93 244 1.98 182 2.04 161 2.04
  50  0.257  0.252  0.006- 109 1.83  82 1.86 245 1.94 233 1.97 168 2.02 183 2.05
  51  0.254  0.257  0.505- 127 1.81  83 1.85 199 1.95 184 2.02 167 2.03 234 2.07
  52  0.252  0.742  0.995- 123 1.81  86 1.84 200 1.94 185 1.96 162 2.03 246 2.04
  53  0.253  0.755  0.492-  85 1.82 128 1.87 201 1.97 186 1.98 235 1.99 163 2.07
  54  0.757  0.251  0.008- 110 1.81  84 1.85 236 1.94 247 1.95 187 2.03 170 2.04
  55  0.741  0.244  0.497-  93 1.81 124 1.83 169 1.94 164 1.97 248 2.05 202 2.08
  56  0.741  0.749  0.994-  94 1.82  88 1.84 237 1.94 249 1.95 203 2.02 165 2.04
  57  0.742  0.754  0.495-  95 1.85  87 1.85 250 1.94 238 1.97 166 2.01 204 2.04
  58  0.251  0.258  0.244- 129 1.82  82 1.83 205 1.96 188 1.99 167 2.03 239 2.04
  59  0.244  0.251  0.744-  83 1.83  96 1.84 251 1.94 240 1.98 168 2.03 206 2.04
  60  0.243  0.748  0.255-  97 1.82  85 1.85 241 1.93 252 1.97 162 2.02 207 2.07
  61  0.248  0.741  0.758- 125 1.80  86 1.82 189 1.92 208 2.01 253 2.05 163 2.06
  62  0.742  0.251  0.243-  84 1.80  98 1.82 254 1.94 242 1.95 209 2.05 169 2.06
  63  0.745  0.241  0.751- 126 1.82  99 1.85 170 1.94 164 1.99 210 2.01 255 2.05
  64  0.744  0.750  0.256-  87 1.83 100 1.89 243 1.94 256 1.94 211 1.98 165 2.03
  65  0.757  0.751  0.757- 111 1.82  88 1.84 257 1.93 244 1.96 190 2.05 166 2.05
  66  0.010  0.503  0.625-  13 1.82   5 1.83
  67  0.999  0.005  0.376-   3 1.82  10 1.86
  68  0.004  0.002  0.873-  11 1.79   2 1.88
  69  0.498  0.496  0.376-  16 1.82   9 1.86
  70  0.492  0.501  0.874-  17 1.79   8 1.89
  71  0.993  0.745  0.126-  28 1.82  20 1.86
  72  0.995  0.745  0.624-  21 1.84  29 1.84
  73  0.484  0.767  0.626-  25 1.84  33 1.88   1 2.07
  74  0.992  0.248  0.376-  19 1.78  26 1.88
  75  0.258  0.003  0.125-  42 1.84  34 1.84
  76  0.261  0.001  0.626-  43 1.84  35 1.86
  77  0.237  0.495  0.626-  45 1.79  37 1.86
  78  0.749  0.491  0.125-  48 1.81  40 1.87
  79  0.745  0.493  0.624-  49 1.83  41 1.84
  80  0.748  0.001  0.375-  39 1.84  46 1.85
  81  0.742  0.999  0.873-  47 1.82  38 1.88
  82  0.244  0.250  0.126-  58 1.83  50 1.86
  83  0.251  0.250  0.625-  59 1.83  51 1.85
  84  0.740  0.261  0.126-  62 1.80  54 1.85
  85  0.248  0.748  0.375-  53 1.82  60 1.85
  86  0.246  0.752  0.876-  61 1.82  52 1.84
  87  0.744  0.752  0.375-  64 1.83  57 1.85
  88  0.740  0.751  0.875-  65 1.84  56 1.84
  89  0.125  0.507  0.993-  36 1.84   4 1.84
  90  0.625  0.510  0.997-  40 1.80   8 1.89
  91  0.126  0.005  0.248-  10 1.83  42 1.85
  92  0.626  0.005  0.244-  14 1.84  46 1.85
  93  0.626  0.269  0.492-  55 1.81  23 1.85
  94  0.624  0.738  0.009-  56 1.82  24 1.83
  95  0.624  0.769  0.507-  25 1.82  57 1.85
  96  0.125  0.246  0.751-  27 1.83  59 1.84
  97  0.125  0.749  0.247-  60 1.82  28 1.84
  98  0.626  0.242  0.263-  62 1.82  30 1.83
  99  0.625  0.248  0.749-  31 1.83  63 1.85
 100  0.622  0.752  0.245-  32 1.79  64 1.89
 101  0.376  0.997  0.989-   6 1.83  34 1.86
 102  0.375  0.513  0.507-   9 1.82  37 1.88
 103  0.873  0.999  0.996-  38 1.79   2 1.89
 104  0.876  0.512  0.502-   5 1.84  41 1.86
 105  0.376  0.986  0.760-  15 1.83  43 1.85
 106  0.374  0.493  0.248-  44 1.83  16 1.84
 107  0.875  0.495  0.250-  12 1.83  48 1.85
 108  0.875  0.505  0.744-  13 1.82  49 1.83
 109  0.376  0.250  0.006-  50 1.83  22 1.84
 110  0.874  0.251  0.007-  54 1.81  18 1.87
 111  0.875  0.747  0.756-  65 1.82  29 1.83
 112  0.520  0.127  0.499-  23 1.79   7 1.89
 113  0.992  0.126  0.744-  27 1.80  11 1.84
 114  0.492  0.125  0.263-  30 1.82  14 1.83
 115  0.495  0.123  0.742-  15 1.82  31 1.86
 116  0.497  0.626  0.744-  33 1.78  17 1.90
 117  0.003  0.375  0.005-  18 1.82   4 1.86
 118  0.004  0.875  0.002-  20 1.80   2 1.87
 119  0.983  0.875  0.499-   3 1.82  21 1.83
 120  0.505  0.374  0.005-  22 1.80   8 1.88
 121  0.507  0.875  0.002-  24 1.83   6 1.85
 122  0.010  0.374  0.247-  26 1.80  12 1.86
 123  0.259  0.625  0.003-  52 1.81  36 1.83
 124  0.732  0.125  0.504-  39 1.83  55 1.83
 125  0.254  0.625  0.749-  61 1.80  45 1.84
 126  0.754  0.124  0.743-  63 1.82  47 1.83
 127  0.260  0.374  0.494-  51 1.81  37 1.88
 128  0.269  0.875  0.503-  35 1.85  53 1.87
 129  0.239  0.375  0.258-  58 1.82  44 1.83
 130  0.998  0.003  0.126-  10 2.00   2 2.04
 131  0.001  0.997  0.624-   3 2.01  11 2.06
 132  0.002  0.510  0.125-  12 1.97   4 1.98
 133  0.489  0.006  0.126-  14 1.95   6 1.96
 134  0.481  0.977  0.627-  15 1.98   7 2.05   1 2.15
 135  0.503  0.508  0.127-   8 2.03  16 2.03
 136  0.510  0.497  0.625-   9 2.01  17 2.06
 137  0.001  0.496  0.376-  12 1.93   5 2.03
 138  0.993  0.496  0.873-   4 1.93  13 2.03
 139  0.511  0.984  0.372-  14 1.91   7 1.99
 140  0.518  0.004  0.875-  15 1.93   6 1.97
 141  0.010  0.245  0.127-  18 1.96  26 1.99
 142  0.001  0.258  0.622-  27 1.96  19 2.01
 143  0.511  0.240  0.127-  30 1.94  22 1.97
 144  0.497  0.254  0.624-  23 1.94  31 1.95
 145  0.489  0.745  0.126-  32 1.94  24 1.98
 146  0.994  0.251  0.874-  18 1.97  27 1.97
 147  0.000  0.751  0.375-  21 2.01  28 2.05
 148  0.008  0.752  0.874-  29 2.02  20 2.05
 149  0.489  0.264  0.375-  30 1.95  23 1.95
 150  0.498  0.247  0.874-  31 1.93  22 1.96
 151  0.501  0.754  0.376-  32 1.94  25 2.05
 152  0.505  0.747  0.873-  24 1.95  33 2.00
 153  0.242  0.493  0.125-  44 1.97  36 1.98
 154  0.753  0.002  0.125-  46 2.01  38 2.03
 155  0.754  0.995  0.623-  39 2.00  47 2.04
 156  0.246  0.999  0.376-  35 2.01  42 2.04
 157  0.240  0.994  0.874-  43 2.01  34 2.05
 158  0.250  0.514  0.376-  44 1.94  37 2.04
 159  0.262  0.499  0.874-  36 1.94  45 2.06
 160  0.748  0.508  0.375-  41 2.02  48 2.05
 161  0.754  0.507  0.874-  40 2.03  49 2.04
 162  0.257  0.755  0.125-  60 2.02  52 2.03
 163  0.264  0.755  0.626-  61 2.06  53 2.07
 164  0.750  0.262  0.623-  55 1.97  63 1.99
 165  0.757  0.749  0.126-  64 2.03  56 2.04
 166  0.756  0.749  0.624-  57 2.01  65 2.05
 167  0.255  0.243  0.375-  51 2.03  58 2.03
 168  0.253  0.251  0.875-  50 2.02  59 2.03
 169  0.765  0.242  0.374-  55 1.94  62 2.06
 170  0.754  0.243  0.876-  63 1.94  54 2.04
 171  0.126  0.004  0.004-  34 2.01   2 2.03
 172  0.126  0.987  0.503-   3 1.96  35 1.97
 173  0.124  0.492  0.491-   5 2.02  37 2.04
 174  0.625  0.004  0.011-   6 2.03  38 2.05
 175  0.629  0.973  0.508-  39 1.93   7 2.02
 176  0.626  0.487  0.496-  41 2.02   9 2.08
 177  0.127  0.006  0.743-  11 1.96  43 2.01
 178  0.124  0.510  0.251-  12 2.03  44 2.04
 179  0.124  0.497  0.765-  45 1.95  13 2.05
 180  0.623  0.999  0.735-  47 1.96  15 2.03
 181  0.625  0.502  0.251-  48 2.02  16 2.04
 182  0.626  0.496  0.758-  17 1.94  49 2.04
 183  0.125  0.248  0.993-  18 2.01  50 2.05
 184  0.123  0.259  0.496-  19 1.94  51 2.02
 185  0.125  0.741  0.007-  52 1.96  20 1.98
 186  0.125  0.765  0.504-  53 1.98  21 1.99
 187  0.626  0.247  0.992-  22 2.03  54 2.03
 188  0.124  0.235  0.259-  26 1.96  58 1.99
 189  0.124  0.749  0.743-  61 1.92  29 2.03
 190  0.626  0.750  0.737-  33 1.92  65 2.05
 191  0.373  0.021  0.489-  35 1.92   7 2.01
 192  0.373  0.492  0.010-  36 2.02   8 2.03
 193  0.875  0.019  0.504-   3 1.96  39 1.96
 194  0.875  0.495  0.001-   4 2.03  40 2.05
 195  0.377  0.994  0.259-  14 2.02  42 2.04
 196  0.375  0.494  0.738-  17 1.97  45 1.97
 197  0.875  0.997  0.249-  46 2.01  10 2.05
 198  0.874  0.989  0.748-  47 1.97  11 1.99
 199  0.378  0.234  0.500-  51 1.95  23 2.03
 200  0.376  0.760  0.996-  52 1.94  24 2.02
 201  0.378  0.731  0.494-  53 1.97  25 2.03
 202  0.875  0.238  0.508-  19 1.93  55 2.08
 203  0.872  0.758  0.992-  20 1.95  56 2.02
 204  0.872  0.733  0.496-  21 1.96  57 2.04
 205  0.378  0.260  0.244-  58 1.96  30 2.03
 206  0.376  0.253  0.752-  31 2.02  59 2.04
 207  0.377  0.750  0.254-  32 2.00  60 2.07
 208  0.375  0.766  0.755-  33 2.00  61 2.01
 209  0.874  0.260  0.241-  26 1.95  62 2.05
 210  0.874  0.257  0.746-  63 2.01  27 2.05
 211  0.873  0.750  0.255-  64 1.98  28 2.06
 212  0.001  0.127  0.001-  18 2.02   2 2.04
 213  0.012  0.126  0.508-  19 1.92   3 2.09
 214  0.991  0.625  0.993-   4 2.02  20 2.06
 215  0.014  0.627  0.492-   5 1.94  21 2.03
 216  0.502  0.124  0.998-   6 2.01  22 2.06
 217  0.486  0.627  1.000-  24 2.01   8 2.05
 218  0.517  0.627  0.505-  25 1.95   9 2.03
 219  0.989  0.128  0.247-  10 1.95  26 2.03
 220  0.996  0.624  0.258-  28 1.95  12 2.01
 221  0.008  0.625  0.757-  13 1.97  29 1.97
 222  0.499  0.626  0.255-  32 1.94  16 2.00
 223  0.990  0.374  0.499-  19 1.95   5 2.01
 224  0.484  0.373  0.505-   9 1.94  23 2.04
 225  0.473  0.875  0.497-  25 1.97   7 2.07
 226  0.999  0.374  0.750-  13 1.93  27 2.05
 227  0.998  0.876  0.250-  10 1.97  28 1.97
 228  0.004  0.875  0.747-  29 1.93  11 2.05
 229  0.508  0.372  0.241-  16 1.95  30 2.02
 230  0.500  0.373  0.749-  17 2.01  31 2.02
 231  0.498  0.875  0.241-  32 1.92  14 2.06
 232  0.507  0.874  0.759-  15 2.04  33 2.07
 233  0.249  0.125  0.993-  34 1.96  50 1.97
 234  0.236  0.124  0.499-  35 2.02  51 2.07
 235  0.237  0.628  0.508-  53 1.99  37 2.08
 236  0.746  0.126  0.004-  54 1.94  38 1.96
 237  0.764  0.626  0.004-  56 1.94  40 1.96
 238  0.734  0.626  0.503-  57 1.97  41 2.00
 239  0.262  0.127  0.253-  42 1.94  58 2.04
 240  0.258  0.124  0.758-  43 1.95  59 1.98
 241  0.254  0.624  0.240-  60 1.93  44 2.05
 242  0.763  0.127  0.245-  62 1.95  46 1.96
 243  0.749  0.625  0.246-  64 1.94  48 1.96
 244  0.741  0.625  0.746-  65 1.96  49 1.98
 245  0.246  0.376  0.997-  50 1.94  36 2.03
 246  0.242  0.874  0.004-  34 1.93  52 2.04
 247  0.745  0.375  0.986-  54 1.95  40 1.96
 248  0.767  0.373  0.489-  41 1.96  55 2.05
 249  0.742  0.875  0.006-  56 1.95  38 1.96
 250  0.772  0.876  0.501-  57 1.94  39 2.08
 251  0.250  0.376  0.757-  59 1.94  45 2.02
 252  0.252  0.875  0.251-  42 1.97  60 1.97
 253  0.242  0.873  0.745-  43 1.94  61 2.05
 254  0.744  0.375  0.266-  62 1.94  48 1.96
 255  0.751  0.374  0.759-  49 1.93  63 2.05
 256  0.752  0.875  0.244-  64 1.94  46 1.96
 257  0.746  0.875  0.745-  65 1.93  47 2.04
 

IMPORTANT INFORMATION: All symmetrisations will be switched off!
NOSYMM: (Re-)initialisation of all symmetry stuff for point group C_1.

 
 
 KPOINTS: Title                                   

Automatic generation of k-mesh.
Space group operators:
 irot       det(A)        alpha          n_x          n_y          n_z        tau_x        tau_y        tau_z
    1     1.000000     0.000001     1.000000     0.000000     0.000000     0.000000     0.000000     0.000000
 
 Subroutine IBZKPT returns following result:
 ===========================================
 
 Found      4 irreducible k-points:
 
 Following reciprocal coordinates:
            Coordinates               Weight
  0.250000  0.250000  0.250000      2.000000
 -0.250000  0.250000  0.250000      2.000000
  0.250000 -0.250000  0.250000      2.000000
 -0.250000 -0.250000  0.250000      2.000000
 
 Following cartesian coordinates:
            Coordinates               Weight
  0.016206  0.016206  0.016206      2.000000
 -0.016206  0.016206  0.016206      2.000000
  0.016206 -0.016206  0.016206      2.000000
 -0.016206 -0.016206  0.016206      2.000000
 


--------------------------------------------------------------------------------------------------------




 Dimension of arrays:
   k-points           NKPTS =      4   k-points in BZ     NKDIM =      4   number of bands    NBANDS=   1164
   number of dos      NEDOS =   3001   number of ions     NIONS =    257
   non local maximal  LDIM  =      6   non local SUM 2l+1 LMDIM =     18
   total plane-waves  NPLWV = ******
   max r-space proj   IRMAX =   7595   max aug-charges    IRDMAX= 146383
   dimension x,y,z NGX =   120 NGY =  120 NGZ =  120
   dimension x,y,z NGXF=   240 NGYF=  240 NGZF=  240
   support grid    NGXF=   480 NGYF=  480 NGZF=  480
   ions per type =               1  64  64 128
   NGX,Y,Z   is equivalent  to a cutoff of  12.93, 12.93, 12.93 a.u.
   NGXF,Y,Z  is equivalent  to a cutoff of  25.86, 25.86, 25.86 a.u.

 SYSTEM =  LTO                                     
 POSCAR =  config 31                               

 Startparameter for this run:
   NWRITE =      2    write-flag & timer
   PREC   = accura    normal or accurate (medium, high low for compatibility)
   ISTART =      1    job   : 0-new  1-cont  2-samecut
   ICHARG =      0    charge: 1-file 2-atom 10-const
   ISPIN  =      2    spin polarized calculation?
   LNONCOLLINEAR =      F non collinear calculations
   LSORBIT =      F    spin-orbit coupling
   INIWAV =      1    electr: 0-lowe 1-rand  2-diag
   LASPH  =      T    aspherical Exc in radial PAW
   METAGGA=      F    non-selfconsistent MetaGGA calc.

 Electronic Relaxation 1
   ENCUT  =  500.0 eV  36.75 Ry    6.06 a.u.  28.13 28.13 28.13*2*pi/ulx,y,z
   ENINI  =  500.0     initial cutoff
   ENAUG  =  628.9 eV  augmentation charge cutoff
   NELM   =     60;   NELMIN=  2; NELMDL=  0     # of ELM steps 
   EDIFF  = 0.1E-05   stopping-criterion for ELM
   LREAL  =      T    real-space projection
   NLSPLINE    = F    spline interpolate recip. space projectors
   LCOMPAT=      F    compatible to vasp.4.4
   GGA_COMPAT  = T    GGA compatible to vasp.4.4-vasp.4.6
   LMAXPAW     = -100 max onsite density
   LMAXMIX     =    4 max onsite mixed and CHGCAR
   VOSKOWN=      0    Vosko Wilk Nusair interpolation
   ROPT   =   -0.00010  -0.00010  -0.00010  -0.00010
 Ionic relaxation
   EDIFFG = -.5E-01   stopping-criterion for IOM
   NSW    =    100    number of steps for IOM
   NBLOCK =      1;   KBLOCK =    100    inner block; outer block 
   IBRION =      1    ionic relax: 0-MD 1-quasi-New 2-CG
   NFREE  =      0    steps in history (QN), initial steepest desc. (CG)
   ISIF   =      2    stress and relaxation
   IWAVPR =     11    prediction:  0-non 1-charg 2-wave 3-comb
   ISYM   =      0    0-nonsym 1-usesym 2-fastsym
   LCORR  =      T    Harris-Foulkes like correction to forces

   POTIM  = 0.5000    time-step for ionic-motion
   TEIN   =    0.0    initial temperature
   TEBEG  =    0.0;   TEEND  =   0.0 temperature during run
   SMASS  =  -3.00    Nose mass-parameter (am)
   estimated Nose-frequenzy (Omega)   =  0.10E-29 period in steps =****** mass=  -0.544E-26a.u.
   SCALEE = 1.0000    scale energy and forces
   NPACO  =    256;   APACO  = 16.0  distance and # of slots for P.C.
   PSTRESS=    0.0 pullay stress

  Mass of Ions in am
   POMASS =   7.01 47.88 16.00 19.00
  Ionic Valenz
   ZVAL   =   3.00 10.00  6.00  7.00
  Atomic Wigner-Seitz radii
   RWIGS  =  -1.00 -1.00 -1.00 -1.00
  virtual crystal weights 
   VCA    =   1.00  1.00  1.00  1.00
   NELECT =    1923.0000    total number of electrons
   NUPDOWN=       1.0000    fix difference up-down

 DOS related values:
   EMIN   =  10.00;   EMAX   =-10.00  energy-range for DOS
   EFERMI =   0.00
   ISMEAR =     0;   SIGMA  =   0.01  broadening in eV -4-tet -1-fermi 0-gaus

 Electronic relaxation 2 (details)
   IALGO  =     38    algorithm
   LDIAG  =      T    sub-space diagonalisation (order eigenvalues)
   LSUBROT=      F    optimize rotation matrix (better conditioning)
   TURBO    =      0    0=normal 1=particle mesh
   IRESTART =      0    0=no restart 2=restart with 2 vectors
   NREBOOT  =      0    no. of reboots
   NMIN     =      0    reboot dimension
   EREF     =   0.00    reference energy to select bands
   IMIX   =      4    mixing-type and parameters
     AMIX     =   0.40;   BMIX     =  1.00
     AMIX_MAG =   1.60;   BMIX_MAG =  1.00
     AMIN     =   0.10
     WC   =   100.;   INIMIX=   1;  MIXPRE=   1;  MAXMIX= -45

 Intra band minimization:
   WEIMIN = 0.0010     energy-eigenvalue tresh-hold
   EBREAK =  0.21E-09  absolut break condition
   DEPER  =   0.30     relativ break condition  

   TIME   =   0.40     timestep for ELM

  volume/ion in A,a.u.               =      14.28        96.39
  Fermi-wavevector in a.u.,A,eV,Ry     =   1.319690  2.493853 23.695660  1.741582
  Thomas-Fermi vector in A             =   2.449570
 
 Write flags
   LWAVE        =      T    write WAVECAR
   LDOWNSAMPLE  =      F    k-point downsampling of WAVECAR
   LCHARG       =      T    write CHGCAR
   LVTOT        =      F    write LOCPOT, total local potential
   LVHAR        =      F    write LOCPOT, Hartree potential only
   LELF         =      F    write electronic localiz. function (ELF)
   LORBIT       =     11    0 simple, 1 ext, 2 COOP (PROOUT), +10 PAW based schemes


 Dipole corrections
   LMONO  =      F    monopole corrections only (constant potential shift)
   LDIPOL =      F    correct potential (dipole corrections)
   IDIPOL =      0    1-x, 2-y, 3-z, 4-all directions 
   EPSILON=  1.0000000 bulk dielectric constant

 LDA+U is selected, type is set to LDAUTYPE =  2
   angular momentum for each species LDAUL =    -1    2   -1   -1
   U (eV)           for each species LDAUU =   0.0  4.2  0.0  0.0
   J (eV)           for each species LDAUJ =   0.0  0.0  0.0  0.0
 Exchange correlation treatment:
   GGA     =    PS    GGA type
   LEXCH   =    14    internal setting for exchange type
   VOSKOWN=      0    Vosko Wilk Nusair interpolation
   LHFCALC =     F    Hartree Fock is set to
   LHFONE  =     F    Hartree Fock one center treatment
   AEXX    =    0.0000 exact exchange contribution

 Linear response parameters
   LEPSILON=     F    determine dielectric tensor
   LRPA    =     F    only Hartree local field effects (RPA)
   LNABLA  =     F    use nabla operator in PAW spheres
   LVEL    =     F    velocity operator in full k-point grid
   LINTERFAST=   F  fast interpolation
   KINTER  =     0    interpolate to denser k-point grid
   CSHIFT  =0.1000    complex shift for real part using Kramers Kronig
   OMEGAMAX=  -1.0    maximum frequency
   DEG_THRESHOLD= 0.2000000E-02 threshold for treating states as degnerate
   RTIME   =   -0.100 relaxation time in fs
  (WPLASMAI=    0.000 imaginary part of plasma frequency in eV, 0.658/RTIME)
   DFIELD  = 0.0000000 0.0000000 0.0000000 field for delta impulse in time
 
 Orbital magnetization related:
   ORBITALMAG=     F  switch on orbital magnetization
   LCHIMAG   =     F  perturbation theory with respect to B field
   DQ        =  0.001000  dq finite difference perturbation B field
   LLRAUG    =     F  two centre corrections for induced B field



--------------------------------------------------------------------------------------------------------


 quasi-Newton-method for relaxation of ions
 charge density and potential will be updated during run
 spin polarized calculation
 Variant of blocked Davidson
 Davidson routine will perform the subspace rotation
 perform sub-space diagonalisation
    after iterative eigenvector-optimisation
 modified Broyden-mixing scheme, WC =      100.0
 initial mixing is a Kerker type mixing with AMIX =  0.4000 and BMIX =      1.0000
 Hartree-type preconditioning will be used
 using additional bands          202
 real space projection scheme for non local part
 use partial core corrections
 calculate Harris-corrections to forces 
   (improved forces if not selfconsistent)
 use gradient corrections 
 use of overlap-Matrix (Vanderbilt PP)
 Gauss-broadening in eV      SIGMA  =   0.01


--------------------------------------------------------------------------------------------------------


  energy-cutoff  :      500.00
  volume of cell :     3671.03
      direct lattice vectors                 reciprocal lattice vectors
    15.426331000  0.000000000  0.000000000     0.064824228  0.000000000  0.000000000
     0.000000000 15.426331000  0.000000000     0.000000000  0.064824228  0.000000000
     0.000000000  0.000000000 15.426331000     0.000000000  0.000000000  0.064824228

  length of vectors
    15.426331000 15.426331000 15.426331000     0.064824228  0.064824228  0.064824228


 
 old parameters found on file WAVECAR:
  energy-cutoff  :      500.00
  volume of cell :     3671.03
      direct lattice vectors                 reciprocal lattice vectors
    15.426331000  0.000000000  0.000000000     0.064824228  0.000000000  0.000000000
     0.000000000 15.426331000  0.000000000     0.000000000  0.064824228  0.000000000
     0.000000000  0.000000000 15.426331000     0.000000000  0.000000000  0.064824228

  length of vectors

 
 k-points in units of 2pi/SCALE and weight: Title                                   
   0.01620606  0.01620606  0.01620606       0.250
  -0.01620606  0.01620606  0.01620606       0.250
   0.01620606 -0.01620606  0.01620606       0.250
  -0.01620606 -0.01620606  0.01620606       0.250
 
 k-points in reciprocal lattice and weights: Title                                   
   0.25000000  0.25000000  0.25000000       0.250
  -0.25000000  0.25000000  0.25000000       0.250
   0.25000000 -0.25000000  0.25000000       0.250
  -0.25000000 -0.25000000  0.25000000       0.250
 
 position of ions in fractional coordinates (direct lattice) 
   0.39610178  0.86696591  0.63557861
   0.99547767  0.99524696  0.99413760
   0.99873056  0.99175986  0.49345246
   0.00578800  0.49556876  0.99739468
   0.99432159  0.50429761  0.50720482
   0.49422467  0.99401801  0.99974718
   0.50254210  0.00634375  0.49930062
   0.50402764  0.49571042  0.99633233
   0.49150172  0.49802401  0.49634710
   0.00698222  0.00335196  0.25556129
   0.00126027  0.00767161  0.75654906
   0.99373388  0.49351116  0.25122343
   0.99308810  0.49892923  0.74154914
   0.50648410  0.00822458  0.25084667
   0.49254662  0.00511616  0.75231462
   0.49270498  0.49648954  0.25781323
   0.50029872  0.50317851  0.75838806
   0.99532756  0.25759319  0.00178137
   0.99815084  0.24829824  0.49144377
   0.99745597  0.75795922  0.00577252
   0.99610247  0.75749016  0.50576105
   0.49495090  0.25781473  0.00120606
   0.50935037  0.24321991  0.49879777
   0.50728772  0.75574449  0.99954525
   0.50694709  0.75264904  0.50942030
   0.99966182  0.25854013  0.25528519
   0.00620134  0.24188835  0.74749803
   0.00560339  0.74837762  0.24248303
   0.99239864  0.75083157  0.74344092
   0.50789181  0.24137485  0.25239712
   0.50631846  0.24242773  0.74937427
   0.50629997  0.75138169  0.25098083
   0.50192682  0.74103029  0.74359735
   0.25661712  0.99816228  0.00589635
   0.25285967  0.99422301  0.50575996
   0.24379101  0.50778956  0.99774016
   0.25499017  0.49480631  0.50676561
   0.75668954  0.00021657  0.99345295
   0.74859477  0.00810378  0.49423834
   0.74163537  0.50069163  0.00458998
   0.75581963  0.49873949  0.50522246
   0.24533282  0.00262799  0.24335613
   0.25764042  0.99826216  0.74520145
   0.25489390  0.49191145  0.25210378
   0.24729966  0.50585950  0.74092175
   0.74465451  0.00139394  0.25514276
   0.74791500  0.00627444  0.75525493
   0.75546535  0.49857761  0.24242935
   0.75715303  0.49755619  0.74214032
   0.25685187  0.25151985  0.00625838
   0.25394705  0.25705803  0.50547888
   0.25154442  0.74216810  0.99467395
   0.25269291  0.75547269  0.49229020
   0.75676582  0.25145583  0.00770583
   0.74056409  0.24375107  0.49726519
   0.74070675  0.74898758  0.99425391
   0.74182164  0.75374400  0.49474726
   0.25079021  0.25779512  0.24395706
   0.24407503  0.25137494  0.74393020
   0.24277723  0.74798564  0.25514353
   0.24754319  0.74134172  0.75802553
   0.74181072  0.25099722  0.24275331
   0.74459774  0.24143449  0.75051119
   0.74444089  0.75037996  0.25641459
   0.75702718  0.75057181  0.75703145
   0.01042664  0.50296726  0.62467065
   0.99936464  0.00535555  0.37602891
   0.00357147  0.00189061  0.87255103
   0.49782514  0.49639663  0.37592112
   0.49198208  0.50073132  0.87419991
   0.99320500  0.74517464  0.12550697
   0.99514342  0.74547892  0.62430112
   0.48419751  0.76655291  0.62550716
   0.99244602  0.24764725  0.37637030
   0.25790378  0.00320687  0.12502081
   0.26134767  0.00122800  0.62600036
   0.23713385  0.49492157  0.62607400
   0.74862866  0.49076564  0.12524968
   0.74451310  0.49267904  0.62402545
   0.74835538  0.00075477  0.37487583
   0.74187443  0.99919012  0.87281698
   0.24358619  0.25032417  0.12591018
   0.25134591  0.25019070  0.62541797
   0.74012472  0.26056407  0.12620495
   0.24841995  0.74751648  0.37494244
   0.24589179  0.75168947  0.87580117
   0.74412764  0.75178450  0.37476945
   0.74020680  0.75088314  0.87492046
   0.12459879  0.50662139  0.99288250
   0.62542661  0.50994706  0.99662342
   0.12554197  0.00536123  0.24819946
   0.62561999  0.00483687  0.24368651
   0.62606212  0.26870839  0.49233816
   0.62415882  0.73834315  0.00919647
   0.62358163  0.76927885  0.50687779
   0.12479671  0.24649617  0.75093181
   0.12491035  0.74916026  0.24659911
   0.62575288  0.24164772  0.26343132
   0.62493262  0.24774992  0.74889122
   0.62239532  0.75193893  0.24495209
   0.37600153  0.99688712  0.98894047
   0.37526784  0.51311862  0.50661139
   0.87290260  0.99928204  0.99573584
   0.87554247  0.51241059  0.50187446
   0.37568848  0.98621687  0.76044490
   0.37370557  0.49334067  0.24762966
   0.87538409  0.49482093  0.25048698
   0.87532223  0.50517133  0.74398086
   0.37566778  0.25046510  0.00570644
   0.87417580  0.25077655  0.00736138
   0.87466525  0.74709890  0.75625245
   0.52029967  0.12742932  0.49869627
   0.99201237  0.12582381  0.74382077
   0.49211567  0.12508344  0.26274762
   0.49495883  0.12256880  0.74225786
   0.49674765  0.62559539  0.74380197
   0.00263296  0.37548111  0.00500756
   0.00406505  0.87465284  0.00183876
   0.98346493  0.87497530  0.49876077
   0.50487409  0.37429920  0.00472025
   0.50699484  0.87458114  0.00167256
   0.01006887  0.37422273  0.24690748
   0.25882249  0.62522024  0.00337397
   0.73209686  0.12536376  0.50409082
   0.25368669  0.62489113  0.74894737
   0.75447678  0.12433618  0.74334766
   0.26019490  0.37379046  0.49404655
   0.26949886  0.87530794  0.50301041
   0.23910299  0.37451747  0.25817417
   0.99771361  0.00285122  0.12608245
   0.00089163  0.99737744  0.62364381
   0.00195491  0.51012009  0.12506260
   0.48902886  0.00637991  0.12595583
   0.48131226  0.97731701  0.62734150
   0.50323836  0.50757763  0.12724212
   0.50997543  0.49662136  0.62527426
   0.00122942  0.49569251  0.37617755
   0.99308689  0.49629852  0.87281678
   0.51119326  0.98405346  0.37224139
   0.51830253  0.00406361  0.87503771
   0.01012895  0.24499641  0.12732930
   0.00131220  0.25820245  0.62160419
   0.51061294  0.23971779  0.12689142
   0.49733864  0.25377582  0.62365114
   0.48944909  0.74496571  0.12639553
   0.99386591  0.25092106  0.87433867
   0.00006852  0.75145218  0.37538808
   0.00772359  0.75171432  0.87367087
   0.48916598  0.26350206  0.37536439
   0.49835617  0.24732707  0.87444501
   0.50107802  0.75398571  0.37637423
   0.50542688  0.74693044  0.87329569
   0.24240184  0.49313931  0.12498635
   0.75343733  0.00218175  0.12508849
   0.75364749  0.99462230  0.62334663
   0.24644023  0.99921711  0.37552561
   0.23987036  0.99418440  0.87430206
   0.24966954  0.51352961  0.37569087
   0.26174054  0.49929938  0.87380561
   0.74798267  0.50826503  0.37479976
   0.75432166  0.50712652  0.87389939
   0.25684919  0.75514004  0.12527454
   0.26365372  0.75511198  0.62632270
   0.75008025  0.26176331  0.62327246
   0.75723656  0.74906149  0.12568586
   0.75565084  0.74943471  0.62399973
   0.25481480  0.24283061  0.37483774
   0.25318446  0.25074704  0.87547587
   0.76470900  0.24226610  0.37374509
   0.75386920  0.24344350  0.87581408
   0.12626295  0.00392115  0.00448912
   0.12555144  0.98687220  0.50286396
   0.12365118  0.49174206  0.49058334
   0.62475716  0.00376473  0.01055886
   0.62899673  0.97293558  0.50783526
   0.62579158  0.48697401  0.49603182
   0.12729023  0.00610573  0.74324617
   0.12398174  0.51047739  0.25120402
   0.12376866  0.49723001  0.76499713
   0.62260715  0.99903753  0.73468749
   0.62490130  0.50221193  0.25138908
   0.62604290  0.49644138  0.75765989
   0.12485987  0.24795939  0.99291196
   0.12337385  0.25863683  0.49619126
   0.12480563  0.74129197  0.00658049
   0.12505305  0.76458318  0.50401987
   0.62593696  0.24699283  0.99247216
   0.12448677  0.23452364  0.25896897
   0.12401101  0.74908276  0.74284049
   0.62578747  0.74969426  0.73747659
   0.37349799  0.02129873  0.48934922
   0.37320706  0.49241811  0.00957245
   0.87496390  0.01911376  0.50396158
   0.87453329  0.49536490  0.00105724
   0.37653211  0.99402177  0.25936394
   0.37474891  0.49417755  0.73797595
   0.87457594  0.99663209  0.24854955
   0.87418198  0.98936537  0.74778141
   0.37801271  0.23384007  0.49965333
   0.37621602  0.76044826  0.99559903
   0.37769645  0.73105634  0.49442713
   0.87476689  0.23758420  0.50752552
   0.87162884  0.75780960  0.99210139
   0.87218546  0.73259022  0.49629625
   0.37778927  0.26037929  0.24377879
   0.37615217  0.25340631  0.75170861
   0.37672615  0.75021270  0.25376690
   0.37521540  0.76582680  0.75512660
   0.87434429  0.25988609  0.24144400
   0.87410426  0.25693143  0.74590969
   0.87296866  0.74969755  0.25514992
   0.00144029  0.12688347  0.00064120
   0.01177623  0.12570508  0.50829330
   0.99060343  0.62546729  0.99281711
   0.01357482  0.62748490  0.49232082
   0.50196085  0.12433329  0.99845077
   0.48607142  0.62720653  0.99982266
   0.51659314  0.62695055  0.50482485
   0.98889259  0.12786217  0.24669700
   0.99569582  0.62365392  0.25845124
   0.00790341  0.62461533  0.75665235
   0.49854948  0.62614553  0.25513523
   0.99024855  0.37449918  0.49913870
   0.48372608  0.37301507  0.50511678
   0.47309642  0.87530157  0.49655798
   0.99929018  0.37434095  0.75010647
   0.99778861  0.87589464  0.25036159
   0.00442434  0.87542350  0.74705983
   0.50771928  0.37211092  0.24085068
   0.49959586  0.37306503  0.74911999
   0.49759241  0.87527301  0.24139851
   0.50662369  0.87403878  0.75889264
   0.24869666  0.12466312  0.99326400
   0.23590607  0.12419909  0.49889107
   0.23659217  0.62812460  0.50776516
   0.74614302  0.12613131  0.00374400
   0.76398445  0.62554223  0.00392897
   0.73402267  0.62647794  0.50295543
   0.26233546  0.12652296  0.25337329
   0.25849621  0.12433521  0.75771727
   0.25386094  0.62398540  0.24040623
   0.76279222  0.12669487  0.24518322
   0.74927013  0.62527941  0.24586389
   0.74144861  0.62474728  0.74577899
   0.24590778  0.37612898  0.99663857
   0.24216480  0.87360218  0.00356084
   0.74503915  0.37516731  0.98589800
   0.76685721  0.37344310  0.48897407
   0.74154379  0.87454201  0.00645138
   0.77153705  0.87561264  0.50089334
   0.25015815  0.37598032  0.75719979
   0.25181985  0.87538074  0.25063064
   0.24153487  0.87341074  0.74463117
   0.74387345  0.37451638  0.26639339
   0.75123831  0.37361183  0.75941879
   0.75176354  0.87532357  0.24398127
   0.74602816  0.87457458  0.74502885
 
 position of ions in cartesian coordinates  (Angst):
   6.11039712 13.37410315  9.80464598
  15.35656800 15.35300897 15.33589569
  15.40674820 15.29921594  7.61216093
   0.08928753  7.64480771 15.38614045
  15.33873404  7.77946192  7.82430943
   7.62407334 15.33405092 15.42243097
   7.75238074  0.09786075  7.70237659
   7.77529726  7.64699299 15.36975229
   7.58206815  7.68268316  7.65681463
   0.10770997  0.05170846  3.94237299
   0.01944127  0.11834472 11.67077629
  15.32966777  7.61306649  3.87545571
  15.31970568  7.69664750 11.43938244
   7.81319145  0.12687510  3.86964371
   7.59818724  0.07892359 11.60545428
   7.60063009  7.65901198  3.97711216
   7.71777363  7.76219831 11.69914520
  15.35425234  3.97371779  0.02748005
  15.39780522  3.83033088  7.58117422
  15.38708596 11.69252988  0.08904874
  15.36620636 11.68529396  7.80203738
   7.63527643  3.97713543  0.01860513
   7.85740745  3.75199088  7.69461958
   7.82558832 11.65836461 15.41931581
   7.82033354 11.61061323  7.85848617
  15.42111405  3.98832565  3.93811377
   0.09566386  3.73144977 11.53115206
   0.08643968 11.54472094  3.74062341
  15.30906998 11.58257634 11.46856574
   7.83490722  3.72352830  3.89356147
   7.81063610  3.73977037 11.56009558
   7.81035087 11.59106268  3.87171333
   7.74288933 11.43137850 11.47097893
   3.95866065 15.39798167  0.09095906
   3.90069696 15.33721318  7.80202049
   3.76080075  7.83332979 15.39147002
   3.93356278  7.63304597  7.81753404
  11.67294335  0.00334082 15.32533408
  11.54807072  0.12501155  7.62428417
  11.44071265  7.72383479  0.07080658
  11.65952374  7.69372044  7.79372894
   3.78458521  0.04054024  3.75409217
   3.97444641 15.39952247 11.49572430
   3.93207774  7.58838885  3.88903640
   3.81492646  7.80355604 11.42970413
  11.48728699  0.02150342  3.93591667
  11.53758428  0.09679157 11.65081256
  11.65405860  7.69122328  3.73979541
  11.68009333  7.67546643 11.44850221
   3.96228193  3.88002850  0.09654391
   3.91747127  3.96546232  7.79768447
   3.88040748 11.44893071 15.34416955
   3.89812442 11.65417171  7.59423159
  11.67412005  3.87904088  0.11887273
  11.42418671  3.76018465  7.67097734
  11.42638747 11.55413029 15.33768988
  11.44358623 11.62750445  7.63213506
   3.86877280  3.97683290  3.76336242
   3.76518214  3.87779299 11.47611343
   3.74516192 11.53867405  3.93592851
   3.81868322 11.43618273 11.69355279
  11.44341772  3.87196615  3.74479289
  11.48641124  3.72444830 11.57763400
  11.48399153 11.57560970  3.95553627
  11.67815184 11.57856925 11.67821765
   0.16084486  7.75893942  9.63637620
  15.41652979  0.08261644  5.80074641
   0.05509469  0.02916514 13.46026098
   7.67961543  7.65757870  5.79908356
   7.58947841  7.72444710 13.48569710
  15.32150905 11.49531058  1.93611201
  15.35141182 11.50000453  9.63067567
   7.46939108 11.82509887  9.64928054
  15.30980074  3.82028852  5.80601280
   3.97850905  0.04947023  1.92861238
   4.03163560  0.01894351  9.65688875
   3.65810531  7.63482390  9.65802482
  11.54859349  7.57071325  1.93214295
  11.48510544  7.60023000  9.62642321
  11.54437787  0.01164331  5.78295859
  11.44440054 15.41383754 13.46436363
   3.75764122  3.86158351  1.94233218
   3.87734522  3.85952452  9.64790466
  11.41740888  4.01954763  1.94687933
   3.83220839 11.53143672  5.78398623
   3.79320809 11.59581063 13.51039876
  11.47915921 11.59727657  5.78131760
  11.41867515 11.58337193 13.49681260
   1.92210223  7.81530928 15.31653414
   9.64803797  7.86661212 15.37424269
   1.93665199  0.08270412  3.82880705
   9.65102109  0.07461514  3.75918875
   9.65784154  4.14518460  7.59497142
   9.62848050 11.38992590  0.14186776
   9.61957668 11.86715011  7.81926458
   1.92515535  3.80253147 11.58412260
   1.92690835 11.55679415  3.80411957
   9.65307108  3.72773767  4.06377873
   9.64041745  3.82187228 11.55264383
   9.60127628 11.59965888  3.77871206
   5.80032399 15.37831071 15.25572304
   5.78900587  7.91553763  7.81515496
  13.46568450 15.41525558 15.36055068
  13.50640789  7.90461537  7.74208162
   5.79549486 15.21370789 11.73087476
   5.76490580  7.61043652  3.82001709
  13.50396470  7.63327146  3.86409509
  13.50301048  7.79294015 11.47689496
   5.79517549  3.86375754  0.08802947
  13.48532527  3.86856211  0.11355907
  13.49287573 11.52499489 11.66620068
   8.02631499  1.96576689  7.69305378
  15.30311119  1.94099975 11.47442543
   7.59153922  1.92957862  4.05323176
   7.63539872  1.89078681 11.45031551
   7.66299361  9.65064158 11.47413542
   0.04061689  5.79229582  0.07724829
   0.06270877 13.49268424  0.02836537
  15.17125552 13.49765865  7.69404872
   7.78835483  5.77406342  0.07281610
   7.82107025 13.49157815  0.02580139
   0.15532573  5.77288375  3.80887649
   3.99268147  9.64485440  0.05204805
  11.29356845  1.93390283  7.77627184
   3.91345487  9.63977741 11.55350998
  11.63880859  1.91805102 11.46712706
   4.01385267  5.76621534  7.62132554
   4.15737855 13.50278999  7.75960515
   3.68848188  5.77743044  3.98268019
  15.39106039  0.04398385  1.94498959
   0.01375466 15.38587447  9.62053583
   0.03015711  7.86928142  1.92925710
   7.54392107  0.09841856  1.94303633
   7.42488231 15.07641562  9.67757761
   7.76312149  7.83006056  1.96287905
   7.86704986  7.66104544  9.64568775
   0.01896547  7.64671673  5.80303947
  15.31968711  7.65606526 13.46436051
   7.88583638 15.18033447  5.74231892
   7.99550641  0.06268664 13.49862133
   0.15625252  3.77939570  1.96422386
   0.02024241  3.98311644  9.58907195
   7.87688427  3.69796590  1.95746897
   7.67211048  3.91482974  9.62064891
   7.55040367 11.49208764  1.94981932
  15.33170451  3.87079137 13.48783773
   0.00105697 11.59215007  5.79086082
   0.11914673 11.59619399 13.47753600
   7.54603635  4.06486993  5.79049527
   7.68780731  3.81534929 13.48947818
   7.72979542 11.63123318  5.80607352
   7.79688235 11.52239619 13.47174831
   3.73937106  7.60733023  1.92808086
  11.62277361  0.03365643  1.92965644
  11.62601565 15.34337285  9.61595144
   3.80166852 15.41425393  5.79298240
   3.70031962 15.33661764 13.48727292
   3.85148490  7.92187772  5.79553165
   4.03769628  7.70235752 13.47961463
  11.53862827  7.84066454  5.78178515
  11.63641558  7.82310154 13.48106129
   3.96224065 11.64904023  1.93252655
   4.06720959 11.64860737  9.66186133
  11.57098629  4.03804745  9.61480729
  11.68138189 11.55527051  1.93887166
  11.65691996 11.56102790  9.62602642
   3.93085747  3.74598540  5.78237100
   3.90570726  3.86810689 13.50538062
  11.79665419  3.73727712  5.76551550
  11.62943580  3.75543998 13.51059787
   1.94777410  0.06048892  0.06925064
   1.93679800 15.22381729  7.75734587
   1.90748397  7.58577582  7.56790098
   9.63771072  0.05807597  0.16288444
   9.70311170 15.00882629  7.83403489
   9.65366805  7.51222233  7.65195099
   1.96362123  0.09418908 11.46556147
   1.91258337  7.87479324  3.87515639
   1.90929629  7.67043475 11.80109889
   9.60454392 15.41148358 11.33353239
   9.63993432  7.74728749  3.87801115
   9.65754500  7.65826904 11.68791230
   1.92612971  3.82510357 15.31698853
   1.90320588  3.98981742  7.65441065
   1.92529298 11.43541530  0.10151287
   1.92910975 11.79471316  7.77517737
   9.65591076  3.81019309 15.31020405
   1.92037406  3.61783934  3.99494099
   1.91303484 11.55559861 11.45930331
   9.65360462 11.56503180 11.37655801
   5.76170368  0.32856123  7.54886299
   5.75721558  7.59620469  0.14766780
  13.49748266  0.29485519  7.77427820
  13.49084003  7.64166284  0.01630937
   5.80850895 15.33410885  4.00103392
   5.78100071  7.62334639 11.38426125
  13.49149786 15.37437652  3.83420761
  13.48542057 15.26227771 11.53552355
   5.83134919  3.60729433  7.70781764
   5.80363290 11.73092663 15.35844017
   5.82647048 11.27751704  7.62719656
  13.49444352  3.66505248  7.82925665
  13.44603505 11.69022170 15.30448442
  13.45462166 11.30117919  7.65603025
   5.82790226  4.01669704  3.76061226
   5.80264782  3.90912968 11.59610577
   5.81150232 11.57302947  3.91469221
   5.78819696 11.81389773 11.64883283
  13.48792437  4.00908878  3.72459512
  13.48422168  3.96350934 11.50664977
  13.46670354 11.56508251  3.93602714
   0.02221839  1.95734643  0.00989133
   0.18166409  1.93916819  7.84110072
  15.28137634  9.64866546 15.31552532
   0.20940967  9.67978973  7.59470390
   7.74341416  1.91800646 15.40243201
   7.49829867  9.67549554 15.42359535
   7.96913674  9.67154675  7.78759525
  15.25498436  1.97244419  3.80562962
  15.35993330  9.62069185  3.98695439
   0.12192069  9.63552290 11.67236965
   7.69078936  9.65912821  3.93580054
  15.27590197  5.77714825  7.69987885
   7.46211862  5.75425395  7.79209868
   7.29814192 13.50269182  7.66006780
  15.41538111  5.77470741 11.57139075
  15.39221744 13.51184065  3.86216076
   0.06825135 13.50457269 11.52439222
   7.83224563  5.74030628  3.71544238
   7.70693112  5.75502465 11.55617295
   7.67602525 13.50225116  3.72389332
   7.81534479 13.48321150 11.70692909
   3.83647703  1.92309460 15.32241926
   3.63916510  1.91593634  7.69605874
   3.64974916  9.68965793  7.83295336
  11.51024913  1.94574338  0.05775612
  11.78547706  9.64982145  0.06060955
  11.32327672  9.66425600  7.75875694
   4.04687363  1.95178511  3.90862027
   3.98764806  1.91803610 11.68879745
   3.91614291  9.62580538  3.70858608
  11.76708523  1.95443707  3.78227755
  11.55848904  9.64576710  3.79277782
  11.43783167  9.63755827 11.50463356
   3.79345481  5.80229015 15.37447652
   3.73571429 13.47647646  0.05493071
  11.49322058  5.78745517 15.20878888
  11.82979320  5.76085680  7.54307582
  11.43930002 13.49097455  0.09952108
  11.90198587 13.50749039  7.72694648
   3.85902241  5.79999690 11.68081460
   3.88465631 13.50391306  3.86631126
   3.72599686 13.47352312 11.48692688
  11.47523812  5.77741370  4.10947266
  11.58885087  5.76345969 11.71504565
  11.59695315 13.50303110  3.76373578
  11.50847739 13.49147698 11.49306169
 


--------------------------------------------------------------------------------------------------------


 k-point  1 :   0.2500 0.2500 0.2500  plane waves:   93161
 k-point  2 :  -0.2500 0.2500 0.2500  plane waves:   93161
 k-point  3 :   0.2500-0.2500 0.2500  plane waves:   93161
 k-point  4 :  -0.2500-0.2500 0.2500  plane waves:   93161

 maximum and minimum number of plane-waves per node :     11686    11606

 maximum number of plane-waves:     93161
 maximum index in each direction: 
   IXMAX=   28   IYMAX=   28   IZMAX=   27
   IXMIN=  -28   IYMIN=  -28   IZMIN=  -28


 real space projection operators:
  total allocation   :     105612.95 KBytes
  max/ min on nodes  :      13251.05      13163.50


 parallel 3D FFT for wavefunctions:
    minimum data exchange during FFTs selected (reduces bandwidth)
 parallel 3D FFT for charge:
    minimum data exchange during FFTs selected (reduces bandwidth)


 total amount of memory used by VASP MPI-rank0   291493. kBytes
=======================================================================

   base      :      30000. kBytes
   nonlr-proj:      49458. kBytes
   fftplans  :      27976. kBytes
   grid      :      34041. kBytes
   one-center:       1026. kBytes
   wavefun   :     148992. kBytes
 
     INWAV:  cpu time   51.6539: real time   52.5757
 Broyden mixing: mesh for mixing (old mesh)
   NGX = 57   NGY = 57   NGZ = 57
  (NGX  =240   NGY  =240   NGZ  =240)
  gives a total of 185193 points

 charge density for first step will be calculated from the start-wavefunctions


--------------------------------------------------------------------------------------------------------


 Maximum index for non-local projection operator          969
 Maximum index for augmentation-charges         3291 (set IRDMAX)


--------------------------------------------------------------------------------------------------------


 initial charge from wavefunction
 First call to EWALD:  gamma=   0.115
 Maximum number of real-space cells 3x 3x 3
 Maximum number of reciprocal cells 3x 3x 3

    FEWALD:  cpu time    0.0421: real time    0.0421


--------------------------------------- Iteration      1(   1)  ---------------------------------------


    POTLOK:  cpu time    0.3277: real time    0.3388
    SETDIJ:  cpu time    1.4240: real time    1.4249
     EDDAV:  cpu time  130.1228: real time  131.2066
       DOS:  cpu time    0.0034: real time    0.0082
    CHARGE:  cpu time    5.2317: real time    5.2352
    MIXING:  cpu time    0.0402: real time    0.0403
    --------------------------------------------
      LOOP:  cpu time  137.1499: real time  138.2542

 eigenvalue-minimisations  : 22368
 total energy-change (2. order) :-0.1855706E+04  (-0.3674348E+03)
 number of electron    1923.0000027 magnetization       1.0000000
 augmentation part      504.5867589 magnetization       0.6572250

 Broyden mixing:
  rms(total) = 0.80391E+01    rms(broyden)= 0.80360E+01
  rms(prec ) = 0.12668E+02
  weight for this iteration     100.00

 Free energy of the ion-electron system (eV)
  ---------------------------------------------------
  alpha Z        PSCENC =      6118.73324990
  Ewald energy   TEWEN  =   -103536.30692484
  -Hartree energ DENC   =    -65089.38666039
  -exchange      EXHF   =         0.00000000
  -V(xc)+E(xc)   XCENC  =      8957.46439521
  PAW double counting   =    197586.21025377  -198580.76000886
  entropy T*S    EENTRO =        -0.00395791
  eigenvalues    EBANDS =    -25888.90847389
  atomic energy  EATOM  =    178577.25249613
  Solvation  Ediel_sol  =         0.00000000
  ---------------------------------------------------
  free energy    TOTEN  =     -1855.70563088 eV

  energy without entropy =    -1855.70167296  energy(sigma->0) =    -1855.70365192


--------------------------------------------------------------------------------------------------------




--------------------------------------- Iteration      1(   2)  ---------------------------------------


    POTLOK:  cpu time    0.2822: real time    0.2845
    SETDIJ:  cpu time    1.4197: real time    1.4209
     EDDAV:  cpu time  148.9991: real time  150.0743
       DOS:  cpu time    0.0031: real time    0.0031
    CHARGE:  cpu time    5.3242: real time    5.3604
    MIXING:  cpu time    0.0116: real time    0.0119
    --------------------------------------------
      LOOP:  cpu time  156.0399: real time  157.1550

 eigenvalue-minimisations  : 27084
 total energy-change (2. order) :-0.2998578E+02  (-0.3233441E+03)
 number of electron    1923.0000026 magnetization       1.0000000
 augmentation part      505.9550431 magnetization       0.5375414

 Broyden mixing:
  rms(total) = 0.98821E+01    rms(broyden)= 0.98779E+01
  rms(prec ) = 0.14632E+02
  weight for this iteration     100.00

 eigenvalues of (default mixing * dielectric matrix)
  average eigenvalue GAMMA=   0.4166
  0.4166

 Free energy of the ion-electron system (eV)
  ---------------------------------------------------
  alpha Z        PSCENC =      6118.73324990
  Ewald energy   TEWEN  =   -103536.30692484
  -Hartree energ DENC   =    -65178.89543293
  -exchange      EXHF   =         0.00000000
  -V(xc)+E(xc)   XCENC  =      8955.22483544
  PAW double counting   =    199185.32332341  -200151.92021143
  entropy T*S    EENTRO =        -0.00361413
  eigenvalues    EBANDS =    -25855.09913078
  atomic energy  EATOM  =    178577.25249613
  Solvation  Ediel_sol  =         0.00000000
  ---------------------------------------------------
  free energy    TOTEN  =     -1885.69140923 eV

  energy without entropy =    -1885.68779510  energy(sigma->0) =    -1885.68960217


--------------------------------------------------------------------------------------------------------




--------------------------------------- Iteration      1(   3)  ---------------------------------------


    POTLOK:  cpu time    0.2687: real time    0.2695
    SETDIJ:  cpu time    1.3960: real time    1.3964
     EDDAV:  cpu time  151.6486: real time  152.7061
       DOS:  cpu time    0.0027: real time    0.0027
    CHARGE:  cpu time    5.2670: real time    5.3015
    MIXING:  cpu time    0.0414: real time    0.0414
    --------------------------------------------
      LOOP:  cpu time  158.6244: real time  159.7176

 eigenvalue-minimisations  : 27660
 total energy-change (2. order) : 0.3074820E+02  (-0.1038137E+03)
 number of electron    1923.0000026 magnetization       1.0000000
 augmentation part      491.8602359 magnetization       0.5600321

 Broyden mixing:
  rms(total) = 0.59048E+01    rms(broyden)= 0.59025E+01
  rms(prec ) = 0.67657E+01
  weight for this iteration     100.00

 eigenvalues of (default mixing * dielectric matrix)
  average eigenvalue GAMMA=   0.4455
  0.4455  0.4455

 Free energy of the ion-electron system (eV)
  ---------------------------------------------------
  alpha Z        PSCENC =      6118.73324990
  Ewald energy   TEWEN  =   -103536.30692484
  -Hartree energ DENC   =    -65254.52683435
  -exchange      EXHF   =         0.00000000
  -V(xc)+E(xc)   XCENC  =      8958.15651158
  PAW double counting   =    199326.16339787  -200287.29493506
  entropy T*S    EENTRO =        -0.00000000
  eigenvalues    EBANDS =    -25757.12017429
  atomic energy  EATOM  =    178577.25249613
  Solvation  Ediel_sol  =         0.00000000
  ---------------------------------------------------
  free energy    TOTEN  =     -1854.94321306 eV

  energy without entropy =    -1854.94321306  energy(sigma->0) =    -1854.94321306


--------------------------------------------------------------------------------------------------------




--------------------------------------- Iteration      1(   4)  ---------------------------------------


    POTLOK:  cpu time    0.2880: real time    0.2888
    SETDIJ:  cpu time    1.4038: real time    1.4041
     EDDAV:  cpu time  141.5839: real time  142.4741
       DOS:  cpu time    0.0018: real time    0.0018
    CHARGE:  cpu time    5.2374: real time    5.2415
    MIXING:  cpu time    0.0200: real time    0.0203
    --------------------------------------------
      LOOP:  cpu time  148.5350: real time  149.4307

 eigenvalue-minimisations  : 25548
 total energy-change (2. order) : 0.4827173E+02  (-0.2980095E+02)
 number of electron    1923.0000026 magnetization       1.0000000
 augmentation part      493.5383151 magnetization       0.5785864

 Broyden mixing:
  rms(total) = 0.41560E+01    rms(broyden)= 0.41554E+01
  rms(prec ) = 0.48230E+01
  weight for this iteration     100.00

 eigenvalues of (default mixing * dielectric matrix)
  average eigenvalue GAMMA=   0.5838
  0.6397  0.6397  0.4721

 Free energy of the ion-electron system (eV)
  ---------------------------------------------------
  alpha Z        PSCENC =      6118.73324990
  Ewald energy   TEWEN  =   -103536.30692484
  -Hartree energ DENC   =    -65216.31774231
  -exchange      EXHF   =         0.00000000
  -V(xc)+E(xc)   XCENC  =      8964.63700485
  PAW double counting   =    199493.96648418  -200472.47994628
  entropy T*S    EENTRO =        -0.00000000
  eigenvalues    EBANDS =    -25736.15610936
  atomic energy  EATOM  =    178577.25249613
  Solvation  Ediel_sol  =         0.00000000
  ---------------------------------------------------
  free energy    TOTEN  =     -1806.67148773 eV

  energy without entropy =    -1806.67148773  energy(sigma->0) =    -1806.67148773


--------------------------------------------------------------------------------------------------------




--------------------------------------- Iteration      1(   5)  ---------------------------------------


    POTLOK:  cpu time    0.3064: real time    0.3087
    SETDIJ:  cpu time    1.4184: real time    1.4193
     EDDAV:  cpu time  146.4497: real time  147.7082
       DOS:  cpu time    0.0019: real time    0.0019
    CHARGE:  cpu time    5.3138: real time    5.3174
    MIXING:  cpu time    0.0229: real time    0.0229
    --------------------------------------------
      LOOP:  cpu time  153.5131: real time  154.7784

 eigenvalue-minimisations  : 26628
 total energy-change (2. order) : 0.3557543E+02  (-0.1013772E+02)
 number of electron    1923.0000026 magnetization       1.0000000
 augmentation part      494.1568435 magnetization       0.5824394

 Broyden mixing:
  rms(total) = 0.22128E+01    rms(broyden)= 0.22124E+01
  rms(prec ) = 0.25847E+01
  weight for this iteration     100.00

 eigenvalues of (default mixing * dielectric matrix)
  average eigenvalue GAMMA=   0.6992
  0.8854  0.8854  0.5129  0.5129

 Free energy of the ion-electron system (eV)
  ---------------------------------------------------
  alpha Z        PSCENC =      6118.73324990
  Ewald energy   TEWEN  =   -103536.30692484
  -Hartree energ DENC   =    -65218.08372394
  -exchange      EXHF   =         0.00000000
  -V(xc)+E(xc)   XCENC  =      8969.68459410
  PAW double counting   =    198945.77654456  -199938.46281734
  entropy T*S    EENTRO =        -0.00000000
  eigenvalues    EBANDS =    -25689.68947962
  atomic energy  EATOM  =    178577.25249613
  Solvation  Ediel_sol  =         0.00000000
  ---------------------------------------------------
  free energy    TOTEN  =     -1771.09606105 eV

  energy without entropy =    -1771.09606105  energy(sigma->0) =    -1771.09606105


--------------------------------------------------------------------------------------------------------




--------------------------------------- Iteration      1(   6)  ---------------------------------------


    POTLOK:  cpu time    0.3196: real time    0.3204
    SETDIJ:  cpu time    1.4142: real time    1.4152
     EDDAV:  cpu time  149.8992: real time  151.0498
       DOS:  cpu time    0.0019: real time    0.0019
    CHARGE:  cpu time    5.3353: real time    5.3385
    MIXING:  cpu time    0.0125: real time    0.0125
    --------------------------------------------
      LOOP:  cpu time  156.9827: real time  158.1383

 eigenvalue-minimisations  : 27156
 total energy-change (2. order) : 0.1062545E+02  (-0.6715011E+01)
 number of electron    1923.0000026 magnetization       1.0000000
 augmentation part      495.7998723 magnetization       0.5836750

 Broyden mixing:
  rms(total) = 0.14835E+01    rms(broyden)= 0.14830E+01
  rms(prec ) = 0.15884E+01
  weight for this iteration     100.00

 eigenvalues of (default mixing * dielectric matrix)
  average eigenvalue GAMMA=   0.7011
  0.9339  0.9339  0.4659  0.5860  0.5860

 Free energy of the ion-electron system (eV)
  ---------------------------------------------------
  alpha Z        PSCENC =      6118.73324990
  Ewald energy   TEWEN  =   -103536.30692484
  -Hartree energ DENC   =    -65154.31897370
  -exchange      EXHF   =         0.00000000
  -V(xc)+E(xc)   XCENC  =      8969.92386253
  PAW double counting   =    198491.41387323  -199493.42636407
  entropy T*S    EENTRO =        -0.00000000
  eigenvalues    EBANDS =    -25733.74182970
  atomic energy  EATOM  =    178577.25249613
  Solvation  Ediel_sol  =         0.00000000
  ---------------------------------------------------
  free energy    TOTEN  =     -1760.47061051 eV

  energy without entropy =    -1760.47061051  energy(sigma->0) =    -1760.47061051


--------------------------------------------------------------------------------------------------------




--------------------------------------- Iteration      1(   7)  ---------------------------------------


    POTLOK:  cpu time    0.2663: real time    0.2685
    SETDIJ:  cpu time    1.4547: real time    1.4552
     EDDAV:  cpu time  149.5589: real time  150.6834
       DOS:  cpu time    0.0020: real time    0.0020
    CHARGE:  cpu time    5.2904: real time    5.2936
    MIXING:  cpu time    0.0082: real time    0.0082
    --------------------------------------------
      LOOP:  cpu time  156.5805: real time  157.7109

 eigenvalue-minimisations  : 27216
 total energy-change (2. order) : 0.1070044E+01  (-0.1117032E+01)
 number of electron    1923.0000026 magnetization       1.0000000
 augmentation part      496.3738152 magnetization       0.5796673

 Broyden mixing:
  rms(total) = 0.98700E+00    rms(broyden)= 0.98658E+00
  rms(prec ) = 0.10546E+01
  weight for this iteration     100.00

 eigenvalues of (default mixing * dielectric matrix)
  average eigenvalue GAMMA=   0.8719
  1.3804  1.3804  0.7080  0.7080  0.5273  0.5273

 Free energy of the ion-electron system (eV)
  ---------------------------------------------------
  alpha Z        PSCENC =      6118.73324990
  Ewald energy   TEWEN  =   -103536.30692484
  -Hartree energ DENC   =    -65132.74879124
  -exchange      EXHF   =         0.00000000
  -V(xc)+E(xc)   XCENC  =      8969.19169534
  PAW double counting   =    198256.77808797  -199259.64969538
  entropy T*S    EENTRO =        -0.00000000
  eigenvalues    EBANDS =    -25752.65068446
  atomic energy  EATOM  =    178577.25249613
  Solvation  Ediel_sol  =         0.00000000
  ---------------------------------------------------
  free energy    TOTEN  =     -1759.40056658 eV

  energy without entropy =    -1759.40056658  energy(sigma->0) =    -1759.40056658


--------------------------------------------------------------------------------------------------------




--------------------------------------- Iteration      1(   8)  ---------------------------------------


    POTLOK:  cpu time    0.2618: real time    0.2645
    SETDIJ:  cpu time    1.3785: real time    1.3790
     EDDAV:  cpu time  138.5994: real time  139.8034
       DOS:  cpu time    0.0021: real time    0.0021
    CHARGE:  cpu time    5.2932: real time    5.2962
    MIXING:  cpu time    0.0095: real time    0.0095
    --------------------------------------------
      LOOP:  cpu time  145.5445: real time  146.7546

 eigenvalue-minimisations  : 24576
 total energy-change (2. order) :-0.2084943E+00  (-0.1160620E+01)
 number of electron    1923.0000026 magnetization       1.0000000
[...]
   81        1.574   3.458   0.000   5.032
   82        1.574   3.460   0.000   5.034
   83        1.574   3.460   0.000   5.034
   84        1.576   3.470   0.000   5.045
   85        1.576   3.464   0.000   5.039
   86        1.575   3.468   0.000   5.043
   87        1.575   3.460   0.000   5.035
   88        1.574   3.463   0.000   5.037
   89        1.575   3.460   0.000   5.035
   90        1.575   3.456   0.000   5.031
   91        1.574   3.459   0.000   5.033
   92        1.574   3.460   0.000   5.034
   93        1.577   3.467   0.000   5.044
   94        1.577   3.469   0.000   5.046
   95        1.576   3.464   0.000   5.040
   96        1.574   3.463   0.000   5.037
   97        1.575   3.465   0.000   5.040
   98        1.576   3.472   0.000   5.048
   99        1.575   3.462   0.000   5.037
  100        1.576   3.458   0.000   5.034
  101        1.574   3.456   0.000   5.031
  102        1.575   3.455   0.000   5.030
  103        1.575   3.458   0.000   5.033
  104        1.574   3.456   0.000   5.030
  105        1.574   3.472   0.000   5.046
  106        1.575   3.462   0.000   5.036
  107        1.575   3.461   0.000   5.036
  108        1.576   3.473   0.000   5.049
  109        1.574   3.461   0.000   5.036
  110        1.575   3.459   0.000   5.034
  111        1.576   3.472   0.000   5.048
  112        1.574   3.475   0.000   5.049
  113        1.576   3.473   0.000   5.049
  114        1.577   3.473   0.000   5.050
  115        1.574   3.464   0.000   5.038
  116        1.575   3.460   0.000   5.035
  117        1.575   3.460   0.000   5.035
  118        1.576   3.461   0.000   5.037
  119        1.576   3.471   0.000   5.047
  120        1.575   3.459   0.000   5.034
  121        1.574   3.461   0.000   5.035
  122        1.577   3.467   0.000   5.044
  123        1.577   3.472   0.000   5.049
  124        1.575   3.464   0.000   5.039
  125        1.575   3.474   0.000   5.050
  126        1.576   3.470   0.000   5.046
  127        1.574   3.456   0.000   5.030
  128        1.572   3.457   0.000   5.028
  129        1.576   3.468   0.000   5.044
  130        1.737   4.369   0.000   6.106
  131        1.737   4.370   0.000   6.107
  132        1.737   4.378   0.000   6.115
  133        1.738   4.385   0.000   6.123
  134        1.736   4.387   0.000   6.123
  135        1.737   4.368   0.000   6.104
  136        1.737   4.367   0.000   6.104
  137        1.738   4.380   0.000   6.118
  138        1.738   4.380   0.000   6.118
  139        1.739   4.388   0.000   6.127
  140        1.739   4.384   0.000   6.122
  141        1.738   4.379   0.000   6.117
  142        1.738   4.379   0.000   6.117
  143        1.738   4.384   0.000   6.122
  144        1.739   4.387   0.000   6.125
  145        1.738   4.381   0.000   6.119
  146        1.737   4.380   0.000   6.117
  147        1.736   4.368   0.000   6.105
  148        1.736   4.367   0.000   6.103
  149        1.739   4.384   0.000   6.123
  150        1.738   4.386   0.000   6.124
  151        1.737   4.375   0.000   6.112
  152        1.737   4.379   0.000   6.117
  153        1.737   4.380   0.000   6.117
  154        1.737   4.371   0.000   6.108
  155        1.737   4.372   0.000   6.109
  156        1.737   4.369   0.000   6.106
  157        1.737   4.367   0.000   6.104
  158        1.738   4.374   0.000   6.112
  159        1.738   4.374   0.000   6.112
  160        1.737   4.367   0.000   6.104
  161        1.736   4.368   0.000   6.105
  162        1.737   4.371   0.000   6.108
  163        1.736   4.366   0.000   6.102
  164        1.737   4.377   0.000   6.115
  165        1.737   4.367   0.000   6.104
  166        1.737   4.369   0.000   6.106
  167        1.737   4.369   0.000   6.106
  168        1.737   4.370   0.000   6.107
  169        1.738   4.375   0.000   6.113
  170        1.738   4.377   0.000   6.115
  171        1.737   4.369   0.000   6.106
  172        1.737   4.382   0.000   6.119
  173        1.737   4.367   0.000   6.104
  174        1.737   4.367   0.000   6.104
  175        1.738   4.379   0.000   6.117
  176        1.736   4.362   0.000   6.098
  177        1.737   4.378   0.000   6.116
  178        1.737   4.368   0.000   6.104
  179        1.738   4.375   0.000   6.113
  180        1.737   4.376   0.000   6.113
  181        1.736   4.369   0.000   6.105
  182        1.738   4.377   0.000   6.114
  183        1.737   4.368   0.000   6.105
  184        1.737   4.377   0.000   6.114
  185        1.737   4.379   0.000   6.117
  186        1.736   4.375   0.000   6.111
  187        1.737   4.370   0.000   6.106
  188        1.738   4.376   0.000   6.114
  189        1.738   4.380   0.000   6.119
  190        1.738   4.379   0.000   6.117
  191        1.738   4.383   0.000   6.121
  192        1.737   4.368   0.000   6.105
  193        1.738   4.382   0.000   6.120
  194        1.737   4.367   0.000   6.104
  195        1.737   4.368   0.000   6.105
  196        1.738   4.380   0.000   6.118
  197        1.737   4.369   0.000   6.106
  198        1.737   4.379   0.000   6.116
  199        1.738   4.377   0.000   6.114
  200        1.738   4.379   0.000   6.116
  201        1.738   4.374   0.000   6.112
  202        1.738   4.373   0.000   6.111
  203        1.737   4.377   0.000   6.115
  204        1.738   4.372   0.000   6.110
  205        1.737   4.375   0.000   6.112
  206        1.737   4.369   0.000   6.106
  207        1.737   4.368   0.000   6.105
  208        1.737   4.380   0.000   6.117
  209        1.737   4.375   0.000   6.112
  210        1.737   4.369   0.000   6.106
  211        1.737   4.370   0.000   6.107
  212        1.737   4.368   0.000   6.105
  213        1.738   4.370   0.000   6.109
  214        1.736   4.366   0.000   6.103
  215        1.738   4.375   0.000   6.113
  216        1.736   4.368   0.000   6.105
  217        1.737   4.367   0.000   6.104
  218        1.737   4.373   0.000   6.110
  219        1.738   4.377   0.000   6.116
  220        1.738   4.379   0.000   6.117
  221        1.738   4.381   0.000   6.119
  222        1.738   4.380   0.000   6.117
  223        1.737   4.378   0.000   6.115
  224        1.738   4.377   0.000   6.115
  225        1.738   4.379   0.000   6.117
  226        1.738   4.378   0.000   6.116
  227        1.737   4.379   0.000   6.116
  228        1.738   4.377   0.000   6.115
  229        1.738   4.377   0.000   6.115
  230        1.737   4.372   0.000   6.108
  231        1.738   4.376   0.000   6.114
  232        1.737   4.371   0.000   6.108
  233        1.738   4.380   0.000   6.118
  234        1.736   4.364   0.000   6.100
  235        1.737   4.364   0.000   6.101
  236        1.738   4.387   0.000   6.125
  237        1.739   4.384   0.000   6.123
  238        1.737   4.374   0.000   6.111
  239        1.738   4.376   0.000   6.115
  240        1.738   4.380   0.000   6.118
  241        1.738   4.376   0.000   6.114
  242        1.738   4.385   0.000   6.124
  243        1.738   4.386   0.000   6.124
  244        1.738   4.381   0.000   6.118
  245        1.738   4.378   0.000   6.116
  246        1.738   4.377   0.000   6.115
  247        1.738   4.384   0.000   6.123
  248        1.737   4.372   0.000   6.110
  249        1.738   4.385   0.000   6.123
  250        1.738   4.369   0.000   6.107
  251        1.738   4.380   0.000   6.118
  252        1.737   4.380   0.000   6.118
  253        1.738   4.379   0.000   6.117
  254        1.739   4.385   0.000   6.124
  255        1.738   4.376   0.000   6.114
  256        1.739   4.385   0.000   6.124
  257        1.738   4.378   0.000   6.117
--------------------------------------------------
tot        345.4031194.800 112.1031652.306
 


 magnetization (x)
 
# of ion       s       p       d       tot
------------------------------------------
    1       -0.000   0.000   0.000   0.000
    2        0.000   0.000   0.000   0.000
    3        0.000   0.000   0.000   0.000
    4       -0.000  -0.000  -0.000  -0.000
    5       -0.000  -0.000  -0.000  -0.000
    6       -0.000  -0.000   0.000   0.000
    7        0.005   0.006   0.929   0.940
    8       -0.000  -0.000  -0.000  -0.000
    9       -0.000  -0.000  -0.000  -0.000
   10        0.000  -0.000   0.000   0.000
   11        0.000   0.000   0.000   0.000
   12       -0.000  -0.000  -0.000  -0.000
   13        0.000  -0.000  -0.000  -0.000
   14       -0.000  -0.000   0.006   0.006
   15        0.000  -0.000   0.004   0.004
   16       -0.000  -0.000  -0.000  -0.000
   17       -0.000  -0.000   0.000   0.000
   18       -0.000  -0.000  -0.000  -0.000
   19       -0.000  -0.000  -0.000  -0.000
   20       -0.000  -0.000  -0.000  -0.000
   21       -0.000  -0.000  -0.000  -0.000
   22        0.000   0.000   0.000   0.000
   23       -0.000  -0.001  -0.004  -0.005
   24       -0.000  -0.000   0.000   0.000
   25       -0.000  -0.000  -0.000  -0.000
   26       -0.000   0.000  -0.000  -0.000
   27       -0.000  -0.000  -0.000  -0.000
   28       -0.000  -0.000  -0.000  -0.000
   29        0.000   0.000   0.000   0.000
   30       -0.000  -0.000  -0.000  -0.000
   31       -0.000  -0.000  -0.000  -0.000
   32       -0.000  -0.000   0.000   0.000
   33       -0.000  -0.000   0.000   0.000
   34        0.000   0.000   0.000   0.000
   35       -0.000   0.000   0.005   0.005
   36       -0.000  -0.000  -0.000  -0.000
   37        0.000  -0.000  -0.000  -0.000
   38       -0.000  -0.000   0.000   0.000
   39       -0.000   0.000   0.005   0.005
   40       -0.000   0.000  -0.000  -0.000
   41        0.000   0.000  -0.000  -0.000
   42        0.000   0.000   0.000   0.000
   43        0.000   0.000   0.002   0.002
   44       -0.000  -0.000  -0.000  -0.000
   45       -0.000  -0.000  -0.000  -0.000
   46        0.000   0.000   0.003   0.003
   47        0.000  -0.000   0.000   0.000
   48       -0.000  -0.000  -0.000  -0.000
   49       -0.000  -0.000  -0.000  -0.000
   50        0.000   0.000   0.000   0.000
   51       -0.000  -0.000  -0.000  -0.000
   52       -0.000   0.000   0.000   0.000
   53       -0.000  -0.000  -0.000  -0.000
   54       -0.000  -0.000  -0.000  -0.000
   55       -0.000  -0.000  -0.000  -0.000
   56        0.000  -0.000   0.000   0.000
   57       -0.000  -0.000  -0.000  -0.000
   58        0.000  -0.000   0.000   0.000
   59       -0.000  -0.000   0.000   0.000
   60       -0.000  -0.000   0.000   0.000
   61       -0.000  -0.000   0.000   0.000
   62       -0.000  -0.000  -0.000  -0.000
   63       -0.000  -0.000   0.000  -0.000
   64       -0.000  -0.000   0.000   0.000
   65       -0.000  -0.000   0.000   0.000
   66        0.000  -0.000   0.000   0.000
   67       -0.000  -0.000   0.000  -0.000
   68        0.000   0.000   0.000   0.000
   69        0.000   0.000   0.000   0.000
   70       -0.000  -0.000   0.000  -0.000
   71        0.000   0.000   0.000   0.000
   72        0.000  -0.000   0.000  -0.000
   73       -0.000  -0.000   0.000  -0.000
   74        0.000   0.000   0.000   0.000
   75        0.000   0.000   0.000   0.000
   76       -0.000  -0.001   0.000  -0.001
   77        0.000   0.000   0.000   0.000
   78        0.000   0.000   0.000   0.000
   79        0.000   0.000   0.000   0.000
   80       -0.000  -0.001   0.000  -0.001
   81        0.000  -0.000   0.000   0.000
   82        0.000  -0.000   0.000  -0.000
   83       -0.000  -0.000   0.000  -0.000
   84        0.000   0.000   0.000   0.000
   85       -0.000  -0.000   0.000  -0.000
   86       -0.000  -0.000   0.000  -0.000
   87        0.000  -0.000   0.000  -0.000
   88       -0.000  -0.000   0.000  -0.000
   89        0.000   0.000   0.000   0.000
   90        0.000   0.000   0.000   0.000
   91        0.000   0.000   0.000   0.000
   92       -0.000  -0.001   0.000  -0.001
   93        0.000  -0.000   0.000  -0.000
   94       -0.000  -0.000   0.000  -0.000
   95       -0.000  -0.000   0.000  -0.000
   96       -0.000  -0.000   0.000  -0.000
   97       -0.000  -0.000   0.000  -0.000
   98       -0.000  -0.000   0.000  -0.000
   99       -0.000  -0.000   0.000  -0.000
  100       -0.000  -0.000   0.000  -0.000
  101       -0.000  -0.000   0.000  -0.000
  102        0.000   0.000   0.000   0.000
  103        0.000   0.000   0.000   0.000
  104       -0.000  -0.000   0.000  -0.000
  105       -0.000  -0.001   0.000  -0.001
  106        0.000   0.000   0.000   0.000
  107        0.000   0.000   0.000   0.000
  108        0.000  -0.000   0.000  -0.000
  109       -0.000  -0.000   0.000  -0.000
  110        0.000   0.000   0.000   0.000
  111        0.000   0.000   0.000   0.000
  112       -0.001  -0.019   0.000  -0.020
  113       -0.000  -0.000   0.000  -0.000
  114       -0.000  -0.000   0.000  -0.000
  115       -0.000  -0.000   0.000  -0.000
  116       -0.000  -0.000   0.000  -0.000
  117        0.000   0.000   0.000   0.000
  118        0.000  -0.000   0.000  -0.000
  119       -0.000  -0.000   0.000  -0.000
  120       -0.000  -0.000   0.000  -0.000
  121       -0.000  -0.000   0.000  -0.000
  122        0.000   0.000   0.000   0.000
  123        0.000   0.000   0.000   0.000
  124       -0.000  -0.000   0.000  -0.000
  125       -0.000  -0.000   0.000  -0.000
  126       -0.000  -0.000   0.000  -0.000
  127       -0.000  -0.000   0.000  -0.000
  128       -0.000  -0.000   0.000  -0.000
  129        0.000  -0.000   0.000  -0.000
  130        0.000   0.000   0.000   0.000
  131       -0.000  -0.000   0.000  -0.000
  132       -0.000   0.000   0.000   0.000
  133       -0.000  -0.000   0.000  -0.000
  134       -0.000   0.002   0.000   0.002
  135       -0.000   0.000   0.000   0.000
  136       -0.000  -0.000   0.000  -0.000
  137        0.000   0.000   0.000   0.000
  138        0.000   0.000   0.000   0.000
  139       -0.000   0.002   0.000   0.002
  140       -0.000  -0.000   0.000  -0.000
  141       -0.000   0.000   0.000   0.000
  142        0.000   0.000   0.000   0.000
  143        0.000  -0.000   0.000  -0.000
  144        0.000  -0.000   0.000  -0.000
  145       -0.000  -0.000   0.000  -0.000
  146       -0.000   0.000   0.000   0.000
  147       -0.000  -0.000   0.000  -0.000
  148        0.000   0.000   0.000   0.000
  149        0.000  -0.000   0.000  -0.000
  150        0.000  -0.000   0.000  -0.000
  151       -0.000  -0.000   0.000  -0.000
  152       -0.000  -0.000   0.000  -0.000
  153        0.000   0.000   0.000   0.000
  154       -0.000   0.000   0.000   0.000
  155        0.000   0.000   0.000   0.000
  156        0.000   0.000   0.000   0.000
  157       -0.000   0.000   0.000   0.000
  158        0.000   0.000   0.000   0.000
  159        0.000   0.000   0.000   0.000
  160       -0.000   0.000   0.000   0.000
  161        0.000   0.000   0.000   0.000
  162       -0.000  -0.000   0.000  -0.000
  163       -0.000  -0.000   0.000  -0.000
  164        0.000   0.000   0.000   0.000
  165       -0.000  -0.000   0.000  -0.000
  166       -0.000  -0.000   0.000  -0.000
  167       -0.000  -0.000   0.000  -0.000
  168       -0.000  -0.000   0.000  -0.000
  169       -0.000   0.000   0.000   0.000
  170       -0.000   0.000   0.000   0.000
  171        0.000   0.000   0.000   0.000
  172        0.000  -0.000   0.000  -0.000
  173       -0.000  -0.000   0.000  -0.000
  174       -0.000  -0.000   0.000  -0.000
  175       -0.000   0.003   0.000   0.002
  176       -0.000  -0.000   0.000  -0.000
  177       -0.000   0.000   0.000   0.000
  178        0.000   0.000   0.000   0.000
  179        0.000   0.000   0.000   0.000
  180       -0.000  -0.000   0.000  -0.000
  181        0.000   0.000   0.000   0.000
  182        0.000   0.000   0.000   0.000
  183        0.000  -0.000   0.000  -0.000
  184       -0.000  -0.000   0.000  -0.000
  185        0.000   0.000   0.000   0.000
  186       -0.000  -0.000   0.000  -0.000
  187        0.000   0.000   0.000   0.000
  188       -0.000  -0.000   0.000  -0.000
  189       -0.000  -0.000   0.000  -0.000
  190       -0.000  -0.000   0.000  -0.000
  191       -0.000   0.003   0.000   0.002
  192        0.000   0.000   0.000   0.000
  193        0.000  -0.000   0.000  -0.000
  194        0.000   0.000   0.000   0.000
  195        0.000   0.000   0.000   0.000
  196       -0.000   0.000   0.000   0.000
  197       -0.000   0.000   0.000  -0.000
  198        0.000   0.000   0.000   0.000
  199       -0.000  -0.000   0.000  -0.000
  200       -0.000  -0.000   0.000  -0.000
  201       -0.000  -0.000   0.000  -0.000
  202        0.000  -0.000   0.000  -0.000
  203        0.000   0.000   0.000   0.000
  204       -0.000  -0.000   0.000  -0.000
  205       -0.000  -0.000   0.000  -0.000
  206       -0.000  -0.000   0.000  -0.000
  207       -0.000  -0.000   0.000  -0.000
  208        0.000  -0.000   0.000  -0.000
  209       -0.000   0.000   0.000  -0.000
  210        0.000   0.000   0.000   0.000
  211       -0.000  -0.000   0.000  -0.000
  212        0.000   0.000   0.000   0.000
  213       -0.000  -0.000   0.000  -0.000
  214        0.000   0.000   0.000   0.000
  215       -0.000  -0.000   0.000  -0.000
  216       -0.000  -0.000   0.000  -0.000
  217        0.000  -0.000   0.000  -0.000
  218       -0.000  -0.000   0.000  -0.000
  219       -0.000  -0.000   0.000  -0.000
  220       -0.000   0.000   0.000   0.000
  221        0.000   0.000   0.000   0.000
  222       -0.000  -0.000   0.000  -0.000
  223        0.000  -0.000   0.000  -0.000
  224       -0.000  -0.000   0.000  -0.000
  225       -0.000  -0.004   0.000  -0.004
  226        0.000   0.000   0.000   0.000
  227       -0.000  -0.000   0.000  -0.000
  228        0.000  -0.000   0.000  -0.000
  229       -0.000  -0.000   0.000  -0.000
  230       -0.000  -0.000   0.000  -0.000
  231       -0.000  -0.000   0.000  -0.000
  232       -0.000  -0.000   0.000  -0.000
  233        0.000  -0.000   0.000  -0.000
  234       -0.000  -0.000   0.000  -0.000
  235       -0.000  -0.000   0.000  -0.000
  236       -0.000  -0.000   0.000  -0.000
  237        0.000   0.000   0.000   0.000
  238       -0.000  -0.000   0.000  -0.000
  239       -0.000  -0.000   0.000  -0.000
  240       -0.000  -0.000   0.000  -0.000
  241        0.000  -0.000   0.000   0.000
  242       -0.000  -0.000   0.000  -0.000
  243        0.000  -0.000   0.000  -0.000
  244        0.000   0.000   0.000   0.000
  245        0.000   0.000   0.000   0.000
  246       -0.000  -0.000   0.000  -0.000
  247       -0.000   0.000   0.000   0.000
  248       -0.000  -0.000   0.000  -0.000
  249       -0.000  -0.000   0.000  -0.000
  250       -0.000  -0.000   0.000  -0.000
  251       -0.000  -0.000   0.000  -0.000
  252       -0.000  -0.000   0.000  -0.000
  253       -0.000  -0.000   0.000  -0.000
  254        0.000  -0.000   0.000  -0.000
  255       -0.000  -0.000   0.000  -0.000
  256       -0.000  -0.000   0.000  -0.000
  257       -0.000  -0.000   0.000  -0.000
--------------------------------------------------
tot          0.002  -0.014   0.951   0.939
 

 total amount of memory used by VASP MPI-rank0   291493. kBytes
=======================================================================

   base      :      30000. kBytes
   nonlr-proj:      49458. kBytes
   fftplans  :      27976. kBytes
   grid      :      34041. kBytes
   one-center:       1026. kBytes
   wavefun   :     148992. kBytes
 
  
  
 General timing and accounting informations for this job:
 ========================================================
  
                  Total CPU time used (sec):     4100.825
                            User time (sec):     3701.456
                          System time (sec):      399.369
                         Elapsed time (sec):     4143.334
  
                   Maximum memory used (kb):      628880.
                   Average memory used (kb):           0.
  
                          Minor page faults:       272421
                          Major page faults:            2
                 Voluntary context switches:        28452
