       N       E                     dE             d eps       ncg     rms          rms(c)
DAV:   1    -0.213548477562E+03   -0.21355E+03   -0.99237E-03 20608   0.587E-01    0.523E-03
DAV:   2    -0.213548477053E+03    0.50937E-06   -0.17176E-06 13440   0.824E-03
   1 F= -.21354848E+03 E0= -.21354848E+03  d E =-.213548E+03  mag=    -0.0000
