LTO                                     
           1
     7.871272    0.000003    0.000000
     0.000003    7.669759    0.005566
     0.000000    0.005566    7.669762
   Ti   O    F 
   8   8  16
Direct configuration=     1
   0.00000004  0.98720856  0.98720747
   0.99999996  0.01278992  0.51279135
   0.99999996  0.51278996  0.01279129
   0.00000004  0.48720921  0.48720738
   0.49999997  0.01279091  0.01279282
   0.50000004  0.98720915  0.48720912
   0.50000004  0.48721043  0.98720776
   0.49999997  0.51279121  0.51279219
   0.00000001  0.25000146  0.49999976
   0.00000001  0.75000257  0.99999985
   0.49999999  0.24999764  0.00000018
   0.49999999  0.74999935  0.50000011
   0.00000000  0.99999992  0.75000184
   0.00000000  0.49999982  0.25000212
   0.50000000  0.00000014  0.24999655
   0.50000000  0.50000007  0.75000049
   0.25000023  0.00000007  0.00000005
   0.24999981  0.99999998  0.49999990
   0.25000028  0.49999994  0.00000005
   0.24999959  0.50000001  0.49999997
   0.74999977  0.00000007  0.00000005
   0.75000019  0.99999998  0.49999990
   0.74999971  0.49999994  0.00000005
   0.75000042  0.50000001  0.49999997
   0.00000000  0.24999935  0.99999997
   0.00000000  0.74999959  0.49999984
   0.50000000  0.25000021  0.50000007
   0.50000000  0.75000061  0.00000012
   0.00000000  0.99999998  0.24999947
   0.00000000  0.49999988  0.74999940
   0.50000000  0.00000008  0.75000085
   0.50000000  0.50000001  0.25000003
