 vasp.5.4.4.18Apr17-6-g9f103f2a35 (build Jul 16 2019 12:12:28) complex          
  
 executed on             LinuxIFC date 2020.01.06  13:22:16
 running on   96 total cores
 distrk:  each k-point on   96 cores,    1 groups
 distr:  one band on NCORES_PER_BAND=   8 cores,   12 groups


--------------------------------------------------------------------------------------------------------


 INCAR:
 POTCAR:    PAW_PBE Li_sv 10Sep2004               
 POTCAR:    PAW_PBE Ti_pv 07Sep2000               
 POTCAR:    PAW_PBE O 08Apr2002                   
 POTCAR:    PAW_PBE F 08Apr2002                   
 POTCAR:    PAW_PBE Li_sv 10Sep2004               
   VRHFIN =Li: 1s2s2p                                                           
   LEXCH  = PE                                                                  
   EATOM  =   202.7858 eV,   14.9043 Ry                                         
                                                                                
   TITEL  = PAW_PBE Li_sv 10Sep2004                                             
   LULTRA =        F    use ultrasoft PP ?                                      
   IUNSCR =        0    unscreen: 0-lin 1-nonlin 2-no                           
   RPACOR =    0.000    partial core radius                                     
   POMASS =    7.010; ZVAL   =    3.000    mass and valenz                      
   RCORE  =    1.700    outmost cutoff radius                                   
   RWIGS  =    2.050; RWIGS  =    1.085    wigner-seitz radius (au A)           
   ENMAX  =  499.034; ENMIN  =  374.276 eV                                      
   ICORE  =        2    local potential                                         
   LCOR   =        T    correct aug charges                                     
   LPAW   =        T    paw PP                                                  
   EAUG   =  628.945                                                            
   RMAX   =    1.732    core radius for proj-oper                               
   RAUG   =    1.300    factor for augmentation sphere                          
   RDEP   =    1.728    radius for radial grids                                 
   RDEPT  =    1.329    core radius for aug-charge                              
                                                                                
   Atomic configuration                                                         
    4 entries                                                                   
     n  l   j            E        occ.                                          
     1  0  0.50       -51.8549   2.0000                                         
     2  0  0.50        -2.8742   1.0000                                         
     2  1  0.50        -1.3606   0.0000                                         
     3  2  1.50        -1.3606   0.0000                                         
   Description                                                                  
     l       E           TYP  RCUT    TYP  RCUT                                 
     0    -51.8548813     23  1.400                                             
     0     -2.8742052     23  1.700                                             
     1     -1.3605826     23  1.400                                             
     2     -1.3605826     23  1.400                                             
  local pseudopotential read in
  atomic valenz-charges read in
  non local Contribution for L=           0  read in
    real space projection operators read in
  non local Contribution for L=           0  read in
    real space projection operators read in
  non local Contribution for L=           1  read in
    real space projection operators read in
    PAW grid and wavefunctions read in
 
   number of l-projection  operators is LMAX  =           3
   number of lm-projection operators is LMMAX =           5
 
 POTCAR:    PAW_PBE Ti_pv 07Sep2000               
   VRHFIN =Ti: d3 s1                                                            
   LEXCH  = PE                                                                  
   EATOM  =  1042.5995 eV,   76.6289 Ry                                         
                                                                                
   TITEL  = PAW_PBE Ti_pv 07Sep2000                                             
   LULTRA =        F    use ultrasoft PP ?                                      
   IUNSCR =        1    unscreen: 0-lin 1-nonlin 2-no                           
   RPACOR =    2.200    partial core radius                                     
   POMASS =   47.880; ZVAL   =   10.000    mass and valenz                      
   RCORE  =    2.500    outmost cutoff radius                                   
   RWIGS  =    2.500; RWIGS  =    1.323    wigner-seitz radius (au A)           
   ENMAX  =  222.335; ENMIN  =  166.751 eV                                      
   RCLOC  =    1.701    cutoff for local pot                                    
   LCOR   =        T    correct aug charges                                     
   LPAW   =        T    paw PP                                                  
   EAUG   =  482.848                                                            
   DEXC   =    0.000                                                            
   RMAX   =    2.564    core radius for proj-oper                               
   RAUG   =    1.300    factor for augmentation sphere                          
   RDEP   =    2.538    radius for radial grids                                 
   RDEPT  =    1.952    core radius for aug-charge                              
                                                                                
   Atomic configuration                                                         
    8 entries                                                                   
     n  l   j            E        occ.                                          
     1  0  0.50     -4865.3608   2.0000                                         
     2  0  0.50      -533.1368   2.0000                                         
     2  1  1.50      -440.5031   6.0000                                         
     3  0  0.50       -59.3186   2.0000                                         
     3  1  1.50       -35.7012   6.0000                                         
     3  2  2.50        -1.9157   3.0000                                         
     4  0  0.50        -3.7291   1.0000                                         
     4  3  2.50        -1.3606   0.0000                                         
   Description                                                                  
     l       E           TYP  RCUT    TYP  RCUT                                 
     1    -35.7012140     23  2.300                                             
     1     -1.3605826     23  2.300                                             
     2     -1.9156996     23  2.500                                             
     2     -0.4063033     23  2.500                                             
     0     -3.7290856     23  2.500                                             
     0     20.4087390     23  2.500                                             
  local pseudopotential read in
  partial core-charges read in
  partial kinetic energy density read in
  atomic valenz-charges read in
  non local Contribution for L=           1  read in
    real space projection operators read in
  non local Contribution for L=           1  read in
    real space projection operators read in
  non local Contribution for L=           2  read in
    real space projection operators read in
  non local Contribution for L=           2  read in
    real space projection operators read in
  non local Contribution for L=           0  read in
    real space projection operators read in
  non local Contribution for L=           0  read in
    real space projection operators read in
    PAW grid and wavefunctions read in
 
   number of l-projection  operators is LMAX  =           6
   number of lm-projection operators is LMMAX =          18
 
 POTCAR:    PAW_PBE O 08Apr2002                   
   VRHFIN =O: s2p4                                                              
   LEXCH  = PE                                                                  
   EATOM  =   432.3788 eV,   31.7789 Ry                                         
                                                                                
   TITEL  = PAW_PBE O 08Apr2002                                                 
   LULTRA =        F    use ultrasoft PP ?                                      
   IUNSCR =        1    unscreen: 0-lin 1-nonlin 2-no                           
   RPACOR =    1.200    partial core radius                                     
   POMASS =   16.000; ZVAL   =    6.000    mass and valenz                      
   RCORE  =    1.520    outmost cutoff radius                                   
   RWIGS  =    1.550; RWIGS  =    0.820    wigner-seitz radius (au A)           
   ENMAX  =  400.000; ENMIN  =  300.000 eV                                      
   ICORE  =        2    local potential                                         
   LCOR   =        T    correct aug charges                                     
   LPAW   =        T    paw PP                                                  
   EAUG   =  605.392                                                            
   DEXC   =    0.000                                                            
   RMAX   =    1.553    core radius for proj-oper                               
   RAUG   =    1.300    factor for augmentation sphere                          
   RDEP   =    1.550    radius for radial grids                                 
   RDEPT  =    1.329    core radius for aug-charge                              
                                                                                
   Atomic configuration                                                         
    4 entries                                                                   
     n  l   j            E        occ.                                          
     1  0  0.50      -514.6923   2.0000                                         
     2  0  0.50       -23.9615   2.0000                                         
     2  1  0.50        -9.0305   4.0000                                         
     3  2  1.50        -9.5241   0.0000                                         
   Description                                                                  
     l       E           TYP  RCUT    TYP  RCUT                                 
     0    -23.9615318     23  1.200                                             
     0     -9.5240782     23  1.200                                             
     1     -9.0304911     23  1.520                                             
     1      8.1634956     23  1.520                                             
     2     -9.5240782      7  1.500                                             
  local pseudopotential read in
  partial core-charges read in
  partial kinetic energy density read in
  kinetic energy density of atom read in
  atomic valenz-charges read in
  non local Contribution for L=           0  read in
    real space projection operators read in
  non local Contribution for L=           0  read in
    real space projection operators read in
  non local Contribution for L=           1  read in
    real space projection operators read in
  non local Contribution for L=           1  read in
    real space projection operators read in
    PAW grid and wavefunctions read in
 
   number of l-projection  operators is LMAX  =           4
   number of lm-projection operators is LMMAX =           8
 
 POTCAR:    PAW_PBE F 08Apr2002                   
   VRHFIN =F: s2p5                                                              
   LEXCH  = PE                                                                  
   EATOM  =   659.6475 eV,   48.4827 Ry                                         
                                                                                
   TITEL  = PAW_PBE F 08Apr2002                                                 
   LULTRA =        F    use ultrasoft PP ?                                      
   IUNSCR =        1    unscreen: 0-lin 1-nonlin 2-no                           
   RPACOR =    1.200    partial core radius                                     
   POMASS =   18.998; ZVAL   =    7.000    mass and valenz                      
   RCORE  =    1.520    outmost cutoff radius                                   
   RWIGS  =    1.500; RWIGS  =    0.794    wigner-seitz radius (au A)           
   ENMAX  =  400.000; ENMIN  =  300.000 eV                                      
   ICORE  =        2    local potential                                         
   LCOR   =        T    correct aug charges                                     
   LPAW   =        T    paw PP                                                  
   EAUG   =  613.614                                                            
   RMAX   =    1.555    core radius for proj-oper                               
   RAUG   =    1.300    factor for augmentation sphere                          
   RDEP   =    1.539    radius for radial grids                                 
   RDEPT  =    1.299    core radius for aug-charge                              
                                                                                
   Atomic configuration                                                         
    4 entries                                                                   
     n  l   j            E        occ.                                          
     1  0  0.50      -663.3661   2.0000                                         
     2  0  0.50       -29.8995   2.0000                                         
     2  1  0.50       -11.1114   5.0000                                         
     3  2  1.50       -10.8847   0.0000                                         
   Description                                                                  
     l       E           TYP  RCUT    TYP  RCUT                                 
     0    -29.8995018     23  1.200                                             
     0     -9.5240782     23  1.200                                             
     1    -11.1113914     23  1.520                                             
     1      1.3605826     23  1.520                                             
     2    -10.8846608      7  1.500                                             
  local pseudopotential read in
  partial core-charges read in
  partial kinetic energy density read in
  atomic valenz-charges read in
  non local Contribution for L=           0  read in
    real space projection operators read in
  non local Contribution for L=           0  read in
    real space projection operators read in
  non local Contribution for L=           1  read in
    real space projection operators read in
  non local Contribution for L=           1  read in
    real space projection operators read in
    PAW grid and wavefunctions read in
 
   number of l-projection  operators is LMAX  =           4
   number of lm-projection operators is LMMAX =           8
 
 Optimization of the real space projectors (new method)

 maximal supplied QI-value         = 22.11
 optimisation between [QCUT,QGAM] = [ 11.28, 22.77] = [ 35.61,145.23] Ry 
 Optimized for a Real-space Cutoff    1.31 Angstroem

   l    n(q)    QCUT    max X(q) W(low)/X(q) W(high)/X(q)  e(spline) 
   0      9    11.276    10.506    0.19E-04    0.17E-04    0.32E-07
   0      9    11.276     8.367    0.38E-04    0.40E-04    0.65E-07
   1      8    11.276     8.983    0.55E-04    0.98E-04    0.20E-06
 Optimization of the real space projectors (new method)

 maximal supplied QI-value         = 15.12
 optimisation between [QCUT,QGAM] = [ 11.34, 22.83] = [ 36.00,145.93] Ry 
 Optimized for a Real-space Cutoff    1.56 Angstroem

   l    n(q)    QCUT    max X(q) W(low)/X(q) W(high)/X(q)  e(spline) 
   1     10    11.338     4.216    0.27E-04    0.12E-04    0.66E-07
   1     10    11.338     5.422    0.81E-04    0.24E-04    0.19E-06
   2     10    11.338    72.084    0.64E-04    0.21E-03    0.51E-06
   2     10    11.338    65.965    0.63E-04    0.21E-03    0.50E-06
   0     11    11.338    41.531    0.33E-04    0.54E-04    0.13E-06
   0     11    11.338    16.290    0.26E-04    0.41E-04    0.11E-06
 Optimization of the real space projectors (new method)

 maximal supplied QI-value         = 24.76
 optimisation between [QCUT,QGAM] = [ 11.39, 22.77] = [ 36.31,145.25] Ry 
 Optimized for a Real-space Cutoff    1.20 Angstroem

   l    n(q)    QCUT    max X(q) W(low)/X(q) W(high)/X(q)  e(spline) 
   0      8    11.387    20.381    0.89E-04    0.31E-03    0.27E-06
   0      8    11.387    15.268    0.93E-04    0.32E-03    0.29E-06
   1      8    11.387     5.964    0.53E-04    0.28E-03    0.29E-06
   1      8    11.387     5.382    0.37E-04    0.22E-03    0.26E-06
 Optimization of the real space projectors (new method)

 maximal supplied QI-value         = 24.76
 optimisation between [QCUT,QGAM] = [ 11.39, 22.77] = [ 36.31,145.25] Ry 
 Optimized for a Real-space Cutoff    1.20 Angstroem

   l    n(q)    QCUT    max X(q) W(low)/X(q) W(high)/X(q)  e(spline) 
   0      8    11.387    14.049    0.69E-04    0.23E-03    0.18E-06
   0      8    11.387     8.945    0.88E-04    0.30E-03    0.26E-06
   1      8    11.387     7.086    0.62E-04    0.27E-03    0.27E-06
   1      8    11.387     6.747    0.46E-04    0.23E-03    0.25E-06

 ----------------------------------------------------------------------------- 
|                                                                             |
|  ADVICE TO THIS USER RUNNING 'VASP/VAMP'   (HEAR YOUR MASTER'S VOICE ...):  |
|                                                                             |
|      You enforced a specific xc-type in the INCAR file,                     |
|      a different type was found on the POTCAR file                          |
|          I HOPE YOU KNOW, WHAT YOU ARE  DOING                               |
|                                                                             |
 ----------------------------------------------------------------------------- 

  PAW_PBE Li_sv 10Sep2004               :
 energy of atom  1       EATOM= -202.7858
 kinetic energy error for atom=    0.0143 (will be added to EATOM!!)
  PAW_PBE Ti_pv 07Sep2000               :
 energy of atom  2       EATOM=-1042.5995
 kinetic energy error for atom=    0.0024 (will be added to EATOM!!)
  PAW_PBE O 08Apr2002                   :
 energy of atom  3       EATOM= -432.3788
 kinetic energy error for atom=    0.0224 (will be added to EATOM!!)
  PAW_PBE F 08Apr2002                   :
 energy of atom  4       EATOM= -659.6475
 kinetic energy error for atom=    0.0354 (will be added to EATOM!!)
 
 
 POSCAR: config 25                               
  positions in direct lattice
  velocities in cartesian coordinates
 exchange correlation table for  LEXCH =       14
   RHO(1)=    0.500       N(1)  =     2000
   RHO(2)=  100.500       N(2)  =     4000

 VTST: version 3.2, (02/03/18)

 CHAIN: initializing optimizer
 
 OPT: Using VASP QUASI-newton optimizer
 CHAIN: Read ICHAIN            0
 
 POSCAR: config 25                               
  positions in direct lattice
  velocities in cartesian coordinates
 


--------------------------------------------------------------------------------------------------------


 ion  position               nearest neighbor table
   1  0.393  0.601  0.088- 217 1.99 192 2.02 135 2.12 123 2.16   8 2.86
   2  0.996  0.994  0.995- 118 1.87  68 1.88 103 1.90 171 2.03 130 2.04 212 2.06
   3  0.998  0.992  0.494- 119 1.81  67 1.83 172 1.95 193 1.97 131 2.01 213 2.09
   4  0.006  0.496  0.997- 117 1.85  89 1.87 138 1.93 132 1.98 214 2.01 194 2.01
   5  0.994  0.504  0.507-  66 1.83 104 1.84 215 1.93 223 2.00 137 2.03 173 2.03
   6  0.495  0.994  0.001- 101 1.83 121 1.86 140 1.96 133 1.97 174 2.03 216 2.04
   7  0.502  0.009  0.499- 112 1.78 191 1.92 139 1.93 134 1.93 175 1.94 225 2.02
   8  0.508  0.491  0.993-  70 1.86 120 1.86  90 1.87 135 2.09 192 2.09 217 2.12   1 2.86
   9  0.491  0.498  0.496- 102 1.81  69 1.87 218 1.99 224 2.00 136 2.01 176 2.07
  10  0.007  0.003  0.256-  91 1.83  67 1.86 219 1.95 227 1.97 130 2.01 197 2.05
  11  0.002  0.008  0.757-  68 1.79 113 1.84 177 1.95 198 1.98 228 2.04 131 2.06
  12  0.993  0.495  0.251- 107 1.82 122 1.86 137 1.93 132 1.97 220 2.00 178 2.03
  13  0.993  0.500  0.741- 108 1.82  66 1.83 226 1.93 221 1.96 138 2.04 179 2.06
  14  0.506  0.008  0.250-  92 1.84 114 1.85 133 1.95 231 1.96 139 2.00 195 2.01
  15  0.494  0.006  0.754- 105 1.81 115 1.84 140 1.95 134 2.01 232 2.02 180 2.03
  16  0.492  0.497  0.259-  69 1.82 106 1.87 222 1.94 229 1.97 181 2.03 135 2.11
  17  0.501  0.504  0.757-  70 1.82 116 1.85 182 1.95 196 1.98 230 2.05 136 2.06
  18  0.996  0.258  0.002- 117 1.84 110 1.87 141 1.96 146 1.97 212 2.02 183 2.02
  19  0.998  0.248  0.491-  74 1.78 213 1.91 202 1.94 184 1.94 223 1.95 142 2.02
  20  0.998  0.758  0.006- 118 1.81  71 1.85 203 1.95 185 2.00 148 2.04 214 2.07
  21  0.996  0.757  0.506- 119 1.83  72 1.84 204 1.94 186 1.97 147 2.01 215 2.03
  22  0.496  0.257  0.002- 120 1.82 109 1.84 150 1.97 143 1.98 187 2.04 216 2.05
  23  0.509  0.245  0.498-  93 1.81 112 1.90 144 1.94 149 1.95 224 1.98 199 2.01
  24  0.508  0.757  0.000-  94 1.83 121 1.84 152 1.94 145 1.96 200 2.06 217 2.10
  25  0.507  0.753  0.507-  95 1.82  73 1.83 151 1.98 225 1.99 218 1.99 201 2.04
  26  0.999  0.259  0.255- 122 1.79  74 1.88 209 1.94 188 1.96 141 2.00 219 2.02
  27  0.008  0.243  0.748- 113 1.80  96 1.83 142 1.96 146 1.98 210 2.05 226 2.05
  28  0.003  0.749  0.244-  71 1.82  97 1.85 220 1.95 227 1.98 211 2.00 147 2.05
  29  0.993  0.750  0.743- 111 1.83  72 1.84 228 1.93 221 1.98 148 2.03 189 2.03
  30  0.508  0.241  0.253- 114 1.81  98 1.83 143 1.95 149 1.98 205 2.02 229 2.05
  31  0.508  0.243  0.752-  99 1.84 115 1.84 150 1.94 144 1.99 206 2.02 230 2.02
  32  0.502  0.753  0.252- 100 1.92 207 2.01 151 2.02 231 2.04 222 2.05 145 2.06
  33  0.502  0.741  0.743-  73 1.82 116 1.83 190 1.93 208 1.97 152 2.06 232 2.07
  34  0.257  0.997  0.006-  75 1.84 101 1.86 246 1.95 233 1.98 171 2.02 157 2.04
  35  0.251  0.992  0.506- 128 1.82  76 1.85 172 1.95 191 1.99 156 2.02 234 2.04
  36  0.242  0.509  0.998-  89 1.81 123 1.87 159 1.93 153 1.99 245 2.03 192 2.09
  37  0.254  0.494  0.507-  77 1.86 102 1.88 127 1.88 173 2.04 235 2.06 158 2.07
  38  0.757  1.000  0.994- 103 1.79  81 1.87 249 1.97 236 1.97 154 2.04 174 2.06
  39  0.749  0.008  0.495-  80 1.83 124 1.85 193 1.94 155 1.99 175 2.00 250 2.03
  40  0.743  0.501  0.004-  90 1.81  78 1.86 237 1.96 247 1.97 161 2.03 194 2.05
  41  0.755  0.498  0.505-  79 1.84 104 1.86 248 1.97 238 1.98 176 2.03 160 2.03
  42  0.245  0.002  0.244-  75 1.84  91 1.85 239 1.94 252 1.97 195 2.04 156 2.04
  43  0.259  0.997  0.745- 105 1.84  76 1.84 253 1.93 240 1.98 177 2.02 157 2.03
  44  0.255  0.493  0.252- 129 1.83 106 1.84 158 1.93 153 1.99 178 2.03 241 2.05
  45  0.247  0.505  0.740-  77 1.79 125 1.84 179 1.95 196 1.98 251 2.02 159 2.11
  46  0.745  0.001  0.256-  92 1.85  80 1.86 256 1.93 242 1.96 197 2.00 154 2.00
  47  0.748  0.007  0.756-  81 1.82 126 1.84 180 1.95 198 1.97 257 2.04 155 2.06
  48  0.755  0.499  0.242-  78 1.82 107 1.85 243 1.94 254 1.97 181 2.03 160 2.05
  49  0.758  0.498  0.742- 108 1.83  79 1.84 255 1.94 244 1.97 182 2.04 161 2.05
  50  0.258  0.253  0.007- 109 1.84  82 1.85 245 1.96 233 1.98 168 2.02 183 2.05
  51  0.254  0.257  0.505- 127 1.81  83 1.85 199 1.96 184 2.02 167 2.04 234 2.05
  52  0.252  0.741  0.995-  86 1.82 123 1.87 200 1.95 185 1.96 162 2.04 246 2.04
  53  0.252  0.754  0.493-  85 1.83 128 1.87 201 1.94 186 1.98 235 2.02 163 2.06
  54  0.758  0.252  0.008- 110 1.82  84 1.85 236 1.94 247 1.95 170 2.04 187 2.04
  55  0.742  0.243  0.497- 124 1.82  93 1.84 169 1.94 164 1.96 248 2.03 202 2.05
  56  0.742  0.748  0.994-  88 1.83  94 1.83 249 1.96 237 1.96 165 2.02 203 2.03
  57  0.741  0.753  0.492-  87 1.81  95 1.84 250 1.96 238 1.98 204 2.04 166 2.05
  58  0.251  0.259  0.244- 129 1.82  82 1.83 205 1.96 188 1.99 167 2.04 239 2.04
  59  0.245  0.253  0.744-  83 1.84  96 1.84 251 1.95 240 1.98 206 2.04 168 2.05
  60  0.240  0.748  0.257-  97 1.82  85 1.85 241 1.96 252 1.98 207 2.04 162 2.05
  61  0.247  0.740  0.757- 125 1.81  86 1.86 189 1.93 208 1.97 163 2.03 253 2.05
  62  0.741  0.252  0.242-  84 1.81  98 1.82 254 1.94 242 1.95 209 2.05 169 2.07
  63  0.745  0.243  0.751- 126 1.82  99 1.84 170 1.94 164 2.00 210 2.02 255 2.05
  64  0.741  0.751  0.255- 100 1.78  87 1.87 243 1.96 256 1.97 165 2.03 211 2.05
  65  0.757  0.750  0.756- 111 1.82  88 1.85 257 1.94 244 1.98 166 2.02 190 2.03
  66  0.013  0.503  0.624-  13 1.83   5 1.83
  67  0.997  0.005  0.377-   3 1.83  10 1.86
  68  0.003  0.002  0.873-  11 1.79   2 1.88
  69  0.491  0.482  0.376-  16 1.82   9 1.87
  70  0.490  0.487  0.874-  17 1.82   8 1.86
  71  0.998  0.745  0.126-  28 1.82  20 1.85
  72  0.003  0.745  0.625-  21 1.84  29 1.84
  73  0.502  0.742  0.625-  33 1.82  25 1.83
  74  0.990  0.248  0.376-  19 1.78  26 1.88
  75  0.257  0.994  0.126-  42 1.84  34 1.84
  76  0.258  0.996  0.626-  43 1.84  35 1.85
  77  0.235  0.486  0.626-  45 1.79  37 1.86
  78  0.747  0.489  0.124-  48 1.82  40 1.86
  79  0.742  0.489  0.624-  49 1.84  41 1.84
  80  0.749  0.003  0.376-  39 1.83  46 1.86
  81  0.744  0.003  0.874-  47 1.82  38 1.87
  82  0.242  0.259  0.126-  58 1.83  50 1.85
  83  0.250  0.257  0.625-  59 1.84  51 1.85
  84  0.739  0.264  0.126-  62 1.81  54 1.85
  85  0.253  0.738  0.376-  53 1.83  60 1.85
  86  0.250  0.738  0.877-  52 1.82  61 1.86
  87  0.752  0.748  0.375-  57 1.81  64 1.87
  88  0.748  0.748  0.875-  56 1.83  65 1.85
  89  0.125  0.516  0.990-  36 1.81   4 1.87
  90  0.627  0.514  0.993-  40 1.81   8 1.87
  91  0.125  0.001  0.250-  10 1.83  42 1.85
  92  0.625  1.000  0.248-  14 1.84  46 1.85
  93  0.624  0.263  0.490-  23 1.81  55 1.84
  94  0.624  0.733  0.004-  24 1.83  56 1.83
  95  0.623  0.768  0.496-  25 1.82  57 1.84
  96  0.126  0.254  0.753-  27 1.83  59 1.84
  97  0.123  0.755  0.254-  60 1.82  28 1.85
  98  0.625  0.250  0.265-  62 1.82  30 1.83
  99  0.627  0.255  0.752-  31 1.84  63 1.84
 100  0.626  0.760  0.248-  64 1.78  32 1.92
 101  0.377  0.992  0.992-   6 1.83  34 1.86
 102  0.375  0.509  0.509-   9 1.81  37 1.88
 103  0.874  0.992  0.998-  38 1.79   2 1.90
 104  0.875  0.509  0.505-   5 1.84  41 1.86
 105  0.377  0.999  0.761-  15 1.81  43 1.84
 106  0.373  0.504  0.239-  44 1.84  16 1.87
 107  0.875  0.500  0.247-  12 1.82  48 1.85
 108  0.876  0.511  0.740-  13 1.82  49 1.83
 109  0.377  0.256  0.008-  50 1.84  22 1.84
 110  0.875  0.259  0.009-  54 1.82  18 1.87
 111  0.875  0.741  0.749-  65 1.82  29 1.83
 112  0.516  0.123  0.486-   7 1.78  23 1.90
 113  0.000  0.126  0.745-  27 1.80  11 1.84
 114  0.499  0.126  0.271-  30 1.81  14 1.85
 115  0.504  0.124  0.760-  15 1.84  31 1.84
 116  0.503  0.624  0.758-  33 1.83  17 1.85
 117  0.010  0.377  0.004-  18 1.84   4 1.85
 118  0.011  0.874  0.002-  20 1.81   2 1.87
 119  0.986  0.875  0.500-   3 1.81  21 1.83
 120  0.512  0.373  0.015-  22 1.82   8 1.86
 121  0.512  0.875  0.015-  24 1.84   6 1.86
 122  0.005  0.375  0.246-  26 1.79  12 1.86
 123  0.272  0.624  0.021-  52 1.87  36 1.87   1 2.16
 124  0.734  0.126  0.507-  55 1.82  39 1.85
 125  0.245  0.624  0.740-  61 1.81  45 1.84
 126  0.749  0.125  0.741-  63 1.82  47 1.84
 127  0.258  0.373  0.488-  51 1.81  37 1.88
 128  0.260  0.875  0.494-  35 1.82  53 1.87
 129  0.247  0.375  0.264-  58 1.82  44 1.83
 130  0.998  0.003  0.127-  10 2.01   2 2.04
 131  0.002  0.998  0.624-   3 2.01  11 2.06
 132  0.006  0.510  0.125-  12 1.97   4 1.98
 133  0.492  0.022  0.126-  14 1.95   6 1.97
 134  0.495  0.010  0.623-   7 1.93  15 2.01
 135  0.499  0.522  0.124-   8 2.09  16 2.11   1 2.12
 136  0.512  0.507  0.624-   9 2.01  17 2.06
 137  0.997  0.495  0.376-  12 1.93   5 2.03
 138  0.990  0.497  0.873-   4 1.93  13 2.04
 139  0.505  0.980  0.377-   7 1.93  14 2.00
 140  0.518  0.988  0.876-  15 1.95   6 1.96
 141  0.013  0.246  0.127-  18 1.96  26 2.00
 142  0.004  0.258  0.621-  27 1.96  19 2.02
 143  0.513  0.229  0.127-  30 1.95  22 1.98
 144  0.503  0.236  0.623-  23 1.94  31 1.99
 145  0.487  0.727  0.122-  24 1.96  32 2.06
 146  0.993  0.252  0.874-  18 1.97  27 1.98
 147  0.992  0.752  0.376-  21 2.01  28 2.05
 148  0.001  0.751  0.874-  29 2.03  20 2.04
 149  0.487  0.270  0.376-  23 1.95  30 1.98
 150  0.497  0.264  0.875-  31 1.94  22 1.97
 151  0.487  0.767  0.381-  25 1.98  32 2.02
 152  0.499  0.760  0.875-  24 1.94  33 2.06
 153  0.238  0.485  0.124-  36 1.99  44 1.99
 154  0.751  0.999  0.126-  46 2.00  38 2.04
 155  0.749  0.993  0.623-  39 1.99  47 2.06
 156  0.249  0.008  0.376-  35 2.02  42 2.04
 157  0.242  0.002  0.875-  43 2.03  34 2.04
 158  0.254  0.518  0.375-  44 1.93  37 2.07
 159  0.265  0.511  0.875-  36 1.93  45 2.11
 160  0.749  0.510  0.374-  41 2.03  48 2.05
 161  0.759  0.509  0.874-  40 2.03  49 2.05
 162  0.249  0.763  0.126-  52 2.04  60 2.05
 163  0.246  0.759  0.627-  61 2.03  53 2.06
 164  0.747  0.264  0.623-  55 1.96  63 2.00
 165  0.756  0.752  0.124-  56 2.02  64 2.03
 166  0.746  0.752  0.625-  65 2.02  57 2.05
 167  0.258  0.238  0.374-  58 2.04  51 2.04
 168  0.257  0.244  0.876-  50 2.02  59 2.05
 169  0.766  0.239  0.374-  55 1.94  62 2.07
 170  0.758  0.241  0.876-  63 1.94  54 2.04
 171  0.127  0.009  0.005-  34 2.02   2 2.03
 172  0.125  0.993  0.501-   3 1.95  35 1.95
 173  0.123  0.493  0.487-   5 2.03  37 2.04
 174  0.625  0.011  0.010-   6 2.03  38 2.06
 175  0.624  0.979  0.505-   7 1.94  39 2.00
 176  0.624  0.487  0.493-  41 2.03   9 2.07
 177  0.128  0.997  0.745-  11 1.95  43 2.02
 178  0.124  0.505  0.255-  44 2.03  12 2.03
 179  0.124  0.491  0.767-  45 1.95  13 2.06
 180  0.624  0.993  0.739-  47 1.95  15 2.03
 181  0.623  0.494  0.251-  16 2.03  48 2.03
 182  0.627  0.490  0.760-  17 1.95  49 2.04
 183  0.126  0.244  0.991-  18 2.02  50 2.05
 184  0.124  0.255  0.493-  19 1.94  51 2.02
 185  0.125  0.732  0.002-  52 1.96  20 2.00
 186  0.123  0.759  0.496-  21 1.97  53 1.98
 187  0.627  0.241  0.991-  54 2.04  22 2.04
 188  0.125  0.241  0.262-  26 1.96  58 1.99
 189  0.123  0.757  0.753-  61 1.93  29 2.03
 190  0.626  0.757  0.752-  33 1.93  65 2.03
 191  0.378  0.015  0.492-   7 1.92  35 1.99
 192  0.375  0.492  0.017-   1 2.02   8 2.09  36 2.09
 193  0.874  0.018  0.507-  39 1.94   3 1.97
 194  0.876  0.489  0.004-   4 2.01  40 2.05
 195  0.376  0.002  0.260-  14 2.01  42 2.04
 196  0.375  0.500  0.736-  45 1.98  17 1.98
 197  0.874  0.005  0.248-  46 2.00  10 2.05
 198  0.875  0.997  0.746-  47 1.97  11 1.98
 199  0.379  0.235  0.502-  51 1.96  23 2.01
 200  0.375  0.765  0.001-  52 1.95  24 2.06
 201  0.375  0.736  0.507-  53 1.94  25 2.04
 202  0.874  0.240  0.510-  19 1.94  55 2.05
 203  0.872  0.765  0.997-  20 1.95  56 2.03
 204  0.872  0.735  0.506-  21 1.94  57 2.04
 205  0.378  0.254  0.241-  58 1.96  30 2.02
 206  0.377  0.248  0.748-  31 2.02  59 2.04
 207  0.372  0.743  0.245-  32 2.01  60 2.04
 208  0.374  0.751  0.750-  61 1.97  33 1.97
 209  0.874  0.254  0.239-  26 1.94  62 2.05
 210  0.875  0.252  0.743-  63 2.02  27 2.05
 211  0.874  0.744  0.250-  28 2.00  64 2.05
 212  0.996  0.128  0.001-  18 2.02   2 2.06
 213  0.008  0.126  0.508-  19 1.91   3 2.09
 214  0.984  0.625  0.993-   4 2.01  20 2.07
 215  0.009  0.627  0.491-   5 1.93  21 2.03
 216  0.497  0.125  0.986-   6 2.04  22 2.05
 217  0.477  0.625  0.993-   1 1.99  24 2.10   8 2.12
 218  0.512  0.626  0.488-   9 1.99  25 1.99
 219  0.995  0.128  0.247-  10 1.95  26 2.02
 220  0.002  0.623  0.259-  28 1.95  12 2.00
 221  0.014  0.624  0.757-  13 1.96  29 1.98
 222  0.505  0.621  0.268-  16 1.94  32 2.05
 223  0.993  0.374  0.500-  19 1.95   5 2.00
 224  0.487  0.371  0.516-  23 1.98   9 2.00
 225  0.482  0.880  0.513-  25 1.99   7 2.02
 226  0.994  0.375  0.750-  13 1.93  27 2.05
 227  0.991  0.877  0.250-  10 1.97  28 1.98
 228  0.997  0.876  0.748-  29 1.93  11 2.04
 229  0.500  0.372  0.231-  16 1.97  30 2.05
 230  0.496  0.373  0.735-  31 2.02  17 2.05
 231  0.491  0.883  0.232-  14 1.96  32 2.04
 232  0.500  0.875  0.744-  15 2.02  33 2.07
 233  0.256  0.125  0.003-  50 1.98  34 1.98
 234  0.242  0.124  0.504-  35 2.04  51 2.05
 235  0.238  0.626  0.513-  53 2.02  37 2.06
 236  0.756  0.126  0.008-  54 1.94  38 1.97
 237  0.769  0.625  0.006-  40 1.96  56 1.96
 238  0.735  0.625  0.505-  41 1.98  57 1.98
 239  0.255  0.127  0.244-  42 1.94  58 2.04
 240  0.250  0.125  0.750-  43 1.98  59 1.98
 241  0.245  0.624  0.232-  60 1.96  44 2.05
 242  0.754  0.127  0.243-  62 1.95  46 1.96
 243  0.743  0.624  0.242-  48 1.94  64 1.96
 244  0.736  0.624  0.744-  49 1.97  65 1.98
 245  0.244  0.378  0.988-  50 1.96  36 2.03
 246  0.237  0.872  0.994-  34 1.95  52 2.04
 247  0.739  0.375  0.983-  54 1.95  40 1.97
 248  0.763  0.373  0.486-  41 1.97  55 2.03
 249  0.734  0.875  0.003-  56 1.96  38 1.97
 250  0.768  0.877  0.500-  57 1.96  39 2.03
 251  0.257  0.376  0.766-  59 1.95  45 2.02
 252  0.256  0.876  0.261-  42 1.97  60 1.98
 253  0.250  0.873  0.758-  43 1.93  61 2.05
 254  0.752  0.375  0.268-  62 1.94  48 1.97
 255  0.759  0.374  0.762-  49 1.94  63 2.05
 256  0.761  0.877  0.248-  46 1.93  64 1.97
 257  0.754  0.875  0.749-  65 1.94  47 2.04
 

IMPORTANT INFORMATION: All symmetrisations will be switched off!
NOSYMM: (Re-)initialisation of all symmetry stuff for point group C_1.

 
 
 KPOINTS: Title                                   

Automatic generation of k-mesh.
Space group operators:
 irot       det(A)        alpha          n_x          n_y          n_z        tau_x        tau_y        tau_z
    1     1.000000     0.000001     1.000000     0.000000     0.000000     0.000000     0.000000     0.000000
 
 Subroutine IBZKPT returns following result:
 ===========================================
 
 Found      4 irreducible k-points:
 
 Following reciprocal coordinates:
            Coordinates               Weight
  0.250000  0.250000  0.250000      2.000000
 -0.250000  0.250000  0.250000      2.000000
  0.250000 -0.250000  0.250000      2.000000
 -0.250000 -0.250000  0.250000      2.000000
 
 Following cartesian coordinates:
            Coordinates               Weight
  0.016206  0.016206  0.016206      2.000000
 -0.016206  0.016206  0.016206      2.000000
  0.016206 -0.016206  0.016206      2.000000
 -0.016206 -0.016206  0.016206      2.000000
 


--------------------------------------------------------------------------------------------------------




 Dimension of arrays:
   k-points           NKPTS =      4   k-points in BZ     NKDIM =      4   number of bands    NBANDS=   1164
   number of dos      NEDOS =   3001   number of ions     NIONS =    257
   non local maximal  LDIM  =      6   non local SUM 2l+1 LMDIM =     18
   total plane-waves  NPLWV = ******
   max r-space proj   IRMAX =   7595   max aug-charges    IRDMAX= 146383
   dimension x,y,z NGX =   120 NGY =  120 NGZ =  120
   dimension x,y,z NGXF=   240 NGYF=  240 NGZF=  240
   support grid    NGXF=   480 NGYF=  480 NGZF=  480
   ions per type =               1  64  64 128
   NGX,Y,Z   is equivalent  to a cutoff of  12.93, 12.93, 12.93 a.u.
   NGXF,Y,Z  is equivalent  to a cutoff of  25.86, 25.86, 25.86 a.u.

 SYSTEM =  LTO                                     
 POSCAR =  config 25                               

 Startparameter for this run:
   NWRITE =      2    write-flag & timer
   PREC   = accura    normal or accurate (medium, high low for compatibility)
   ISTART =      0    job   : 0-new  1-cont  2-samecut
   ICHARG =      2    charge: 1-file 2-atom 10-const
   ISPIN  =      2    spin polarized calculation?
   LNONCOLLINEAR =      F non collinear calculations
   LSORBIT =      F    spin-orbit coupling
   INIWAV =      1    electr: 0-lowe 1-rand  2-diag
   LASPH  =      T    aspherical Exc in radial PAW
   METAGGA=      F    non-selfconsistent MetaGGA calc.

 Electronic Relaxation 1
   ENCUT  =  500.0 eV  36.75 Ry    6.06 a.u.  28.13 28.13 28.13*2*pi/ulx,y,z
   ENINI  =  500.0     initial cutoff
   ENAUG  =  628.9 eV  augmentation charge cutoff
   NELM   =     60;   NELMIN=  2; NELMDL=  0     # of ELM steps 
   EDIFF  = 0.1E-05   stopping-criterion for ELM
   LREAL  =      T    real-space projection
   NLSPLINE    = F    spline interpolate recip. space projectors
   LCOMPAT=      F    compatible to vasp.4.4
   GGA_COMPAT  = T    GGA compatible to vasp.4.4-vasp.4.6
   LMAXPAW     = -100 max onsite density
   LMAXMIX     =    4 max onsite mixed and CHGCAR
   VOSKOWN=      0    Vosko Wilk Nusair interpolation
   ROPT   =   -0.00010  -0.00010  -0.00010  -0.00010
 Ionic relaxation
   EDIFFG = -.5E-01   stopping-criterion for IOM
   NSW    =    100    number of steps for IOM
   NBLOCK =      1;   KBLOCK =    100    inner block; outer block 
   IBRION =      1    ionic relax: 0-MD 1-quasi-New 2-CG
   NFREE  =      0    steps in history (QN), initial steepest desc. (CG)
   ISIF   =      2    stress and relaxation
   IWAVPR =     11    prediction:  0-non 1-charg 2-wave 3-comb
   ISYM   =      0    0-nonsym 1-usesym 2-fastsym
   LCORR  =      T    Harris-Foulkes like correction to forces

   POTIM  = 0.5000    time-step for ionic-motion
   TEIN   =    0.0    initial temperature
   TEBEG  =    0.0;   TEEND  =   0.0 temperature during run
   SMASS  =  -3.00    Nose mass-parameter (am)
   estimated Nose-frequenzy (Omega)   =  0.10E-29 period in steps =****** mass=  -0.544E-26a.u.
   SCALEE = 1.0000    scale energy and forces
   NPACO  =    256;   APACO  = 16.0  distance and # of slots for P.C.
   PSTRESS=    0.0 pullay stress

  Mass of Ions in am
   POMASS =   7.01 47.88 16.00 19.00
  Ionic Valenz
   ZVAL   =   3.00 10.00  6.00  7.00
  Atomic Wigner-Seitz radii
   RWIGS  =  -1.00 -1.00 -1.00 -1.00
  virtual crystal weights 
   VCA    =   1.00  1.00  1.00  1.00
   NELECT =    1923.0000    total number of electrons
   NUPDOWN=       1.0000    fix difference up-down

 DOS related values:
   EMIN   =  10.00;   EMAX   =-10.00  energy-range for DOS
   EFERMI =   0.00
   ISMEAR =     0;   SIGMA  =   0.01  broadening in eV -4-tet -1-fermi 0-gaus

 Electronic relaxation 2 (details)
   IALGO  =     38    algorithm
   LDIAG  =      T    sub-space diagonalisation (order eigenvalues)
   LSUBROT=      F    optimize rotation matrix (better conditioning)
   TURBO    =      0    0=normal 1=particle mesh
   IRESTART =      0    0=no restart 2=restart with 2 vectors
   NREBOOT  =      0    no. of reboots
   NMIN     =      0    reboot dimension
   EREF     =   0.00    reference energy to select bands
   IMIX   =      4    mixing-type and parameters
     AMIX     =   0.40;   BMIX     =  1.00
     AMIX_MAG =   1.60;   BMIX_MAG =  1.00
     AMIN     =   0.10
     WC   =   100.;   INIMIX=   1;  MIXPRE=   1;  MAXMIX= -45

 Intra band minimization:
   WEIMIN = 0.0010     energy-eigenvalue tresh-hold
   EBREAK =  0.21E-09  absolut break condition
   DEPER  =   0.30     relativ break condition  

   TIME   =   0.40     timestep for ELM

  volume/ion in A,a.u.               =      14.28        96.39
  Fermi-wavevector in a.u.,A,eV,Ry     =   1.319690  2.493853 23.695660  1.741582
  Thomas-Fermi vector in A             =   2.449570
 
 Write flags
   LWAVE        =      T    write WAVECAR
   LDOWNSAMPLE  =      F    k-point downsampling of WAVECAR
   LCHARG       =      T    write CHGCAR
   LVTOT        =      F    write LOCPOT, total local potential
   LVHAR        =      F    write LOCPOT, Hartree potential only
   LELF         =      F    write electronic localiz. function (ELF)
   LORBIT       =     11    0 simple, 1 ext, 2 COOP (PROOUT), +10 PAW based schemes


 Dipole corrections
   LMONO  =      F    monopole corrections only (constant potential shift)
   LDIPOL =      F    correct potential (dipole corrections)
   IDIPOL =      0    1-x, 2-y, 3-z, 4-all directions 
   EPSILON=  1.0000000 bulk dielectric constant

 LDA+U is selected, type is set to LDAUTYPE =  2
   angular momentum for each species LDAUL =    -1    2   -1   -1
   U (eV)           for each species LDAUU =   0.0  4.2  0.0  0.0
   J (eV)           for each species LDAUJ =   0.0  0.0  0.0  0.0
 Exchange correlation treatment:
   GGA     =    PS    GGA type
   LEXCH   =    14    internal setting for exchange type
   VOSKOWN=      0    Vosko Wilk Nusair interpolation
   LHFCALC =     F    Hartree Fock is set to
   LHFONE  =     F    Hartree Fock one center treatment
   AEXX    =    0.0000 exact exchange contribution

 Linear response parameters
   LEPSILON=     F    determine dielectric tensor
   LRPA    =     F    only Hartree local field effects (RPA)
   LNABLA  =     F    use nabla operator in PAW spheres
   LVEL    =     F    velocity operator in full k-point grid
   LINTERFAST=   F  fast interpolation
   KINTER  =     0    interpolate to denser k-point grid
   CSHIFT  =0.1000    complex shift for real part using Kramers Kronig
   OMEGAMAX=  -1.0    maximum frequency
   DEG_THRESHOLD= 0.2000000E-02 threshold for treating states as degnerate
   RTIME   =   -0.100 relaxation time in fs
  (WPLASMAI=    0.000 imaginary part of plasma frequency in eV, 0.658/RTIME)
   DFIELD  = 0.0000000 0.0000000 0.0000000 field for delta impulse in time
 
 Orbital magnetization related:
   ORBITALMAG=     F  switch on orbital magnetization
   LCHIMAG   =     F  perturbation theory with respect to B field
   DQ        =  0.001000  dq finite difference perturbation B field
   LLRAUG    =     F  two centre corrections for induced B field



--------------------------------------------------------------------------------------------------------


 quasi-Newton-method for relaxation of ions
 charge density and potential will be updated during run
 spin polarized calculation
 Variant of blocked Davidson
 Davidson routine will perform the subspace rotation
 perform sub-space diagonalisation
    after iterative eigenvector-optimisation
 modified Broyden-mixing scheme, WC =      100.0
 initial mixing is a Kerker type mixing with AMIX =  0.4000 and BMIX =      1.0000
 Hartree-type preconditioning will be used
 using additional bands          202
 real space projection scheme for non local part
 use partial core corrections
 calculate Harris-corrections to forces 
   (improved forces if not selfconsistent)
 use gradient corrections 
 use of overlap-Matrix (Vanderbilt PP)
 Gauss-broadening in eV      SIGMA  =   0.01


--------------------------------------------------------------------------------------------------------


  energy-cutoff  :      500.00
  volume of cell :     3671.03
      direct lattice vectors                 reciprocal lattice vectors
    15.426331000  0.000000000  0.000000000     0.064824228  0.000000000  0.000000000
     0.000000000 15.426331000  0.000000000     0.000000000  0.064824228  0.000000000
     0.000000000  0.000000000 15.426331000     0.000000000  0.000000000  0.064824228

  length of vectors
    15.426331000 15.426331000 15.426331000     0.064824228  0.064824228  0.064824228


 
 k-points in units of 2pi/SCALE and weight: Title                                   
   0.01620606  0.01620606  0.01620606       0.250
  -0.01620606  0.01620606  0.01620606       0.250
   0.01620606 -0.01620606  0.01620606       0.250
  -0.01620606 -0.01620606  0.01620606       0.250
 
 k-points in reciprocal lattice and weights: Title                                   
   0.25000000  0.25000000  0.25000000       0.250
  -0.25000000  0.25000000  0.25000000       0.250
   0.25000000 -0.25000000  0.25000000       0.250
  -0.25000000 -0.25000000  0.25000000       0.250
 
 position of ions in fractional coordinates (direct lattice) 
   0.39282137  0.60098269  0.08812247
   0.99641220  0.99421306  0.99490719
   0.99840602  0.99166249  0.49407113
   0.00569691  0.49630655  0.99694587
   0.99379587  0.50373325  0.50736215
   0.49525340  0.99358495  0.00135387
   0.50158889  0.00867362  0.49865048
   0.50828545  0.49110053  0.99280792
   0.49081179  0.49849730  0.49581947
   0.00659840  0.00301557  0.25632138
   0.00234010  0.00760159  0.75716705
   0.99280769  0.49458031  0.25094943
   0.99324149  0.49987437  0.74090474
   0.50614661  0.00764961  0.25049339
   0.49352826  0.00557036  0.75364073
   0.49214824  0.49652812  0.25886384
   0.50120258  0.50360516  0.75744064
   0.99646360  0.25842567  0.00173602
   0.99828963  0.24826426  0.49117995
   0.99821387  0.75778275  0.00639428
   0.99590286  0.75694265  0.50643708
   0.49632590  0.25667096  0.00239629
   0.50908178  0.24539267  0.49769679
   0.50841130  0.75736060  0.00026115
   0.50675648  0.75322913  0.50713293
   0.99887938  0.25885098  0.25505294
   0.00760064  0.24302814  0.74758355
   0.00314003  0.74901347  0.24352010
   0.99256875  0.75030739  0.74349472
   0.50776513  0.24142240  0.25252258
   0.50793043  0.24340698  0.75150745
   0.50185210  0.75268454  0.25199101
   0.50175137  0.74124260  0.74265898
   0.25700758  0.99663090  0.00632832
   0.25130627  0.99234060  0.50619214
   0.24214699  0.50923213  0.99788892
   0.25401658  0.49357684  0.50670441
   0.75748250  0.99970241  0.99423241
   0.74948645  0.00752900  0.49484186
   0.74313399  0.50101876  0.00415575
   0.75467908  0.49822157  0.50526627
   0.24477600  0.00153958  0.24401630
   0.25865272  0.99704483  0.74490568
   0.25483029  0.49313988  0.25222865
   0.24667819  0.50454562  0.73984824
   0.74454307  0.00069323  0.25572951
   0.74808665  0.00717251  0.75602983
   0.75481074  0.49945400  0.24167935
   0.75753807  0.49803317  0.74150194
   0.25781848  0.25300091  0.00651259
   0.25387868  0.25703225  0.50503816
   0.25164711  0.74070555  0.99517821
   0.25167673  0.75414542  0.49331100
   0.75768607  0.25249198  0.00790149
   0.74201428  0.24281059  0.49736973
   0.74157769  0.74843508  0.99372383
   0.74131919  0.75269027  0.49227066
   0.25111736  0.25894396  0.24412437
   0.24482732  0.25257089  0.74406508
   0.24031376  0.74829600  0.25710509
   0.24734472  0.73969990  0.75653223
   0.74122971  0.25243744  0.24244465
   0.74505024  0.24252109  0.75079541
   0.74110170  0.75097995  0.25502190
   0.75708864  0.75000579  0.75593985
   0.01343898  0.50317898  0.62429349
   0.99714844  0.00544043  0.37655345
   0.00283250  0.00202090  0.87335261
   0.49132533  0.48236948  0.37575941
   0.49048525  0.48666909  0.87391529
   0.99806667  0.74488951  0.12559955
   0.00277566  0.74500129  0.62477579
   0.50180426  0.74220356  0.62496373
   0.98980467  0.24800000  0.37629232
   0.25658905  0.99362346  0.12568149
   0.25847000  0.99589812  0.62571996
   0.23532463  0.48566985  0.62577145
   0.74654988  0.48855344  0.12426892
   0.74178322  0.48946876  0.62382413
   0.74891204  0.00327272  0.37641864
   0.74426539  0.00325093  0.87382198
   0.24200508  0.25922964  0.12554814
   0.25009897  0.25735509  0.62511714
   0.73858862  0.26352962  0.12581911
   0.25301717  0.73836695  0.37579677
   0.25046338  0.73767534  0.87714273
   0.75211622  0.74828914  0.37540893
   0.74794262  0.74775550  0.87526984
   0.12516859  0.51592107  0.98963490
   0.62695034  0.51427278  0.99339192
   0.12515347  0.00052965  0.25043325
   0.62504644  0.99970594  0.24840146
   0.62446679  0.26331232  0.48963990
   0.62418366  0.73309962  0.00387190
   0.62325839  0.76770512  0.49643504
   0.12572830  0.25437716  0.75299132
   0.12264988  0.75509542  0.25363139
   0.62533705  0.25037597  0.26494947
   0.62651066  0.25512369  0.75211401
   0.62592867  0.75954830  0.24798821
   0.37681496  0.99173754  0.99185068
   0.37487807  0.50942227  0.50933890
   0.87352243  0.99217689  0.99796193
   0.87473767  0.50869572  0.50455814
   0.37674163  0.99908191  0.76062656
   0.37274493  0.50384368  0.23897117
   0.87490675  0.50027850  0.24682892
   0.87569233  0.51058459  0.73997158
   0.37696860  0.25563619  0.00841120
   0.87548807  0.25875619  0.00925874
   0.87468943  0.74098208  0.74908067
   0.51606012  0.12267546  0.48581639
   0.00004766  0.12639188  0.74484004
   0.49857460  0.12574364  0.27107394
   0.50428930  0.12418997  0.75992902
   0.50337146  0.62371445  0.75834826
   0.01023970  0.37692672  0.00426000
   0.01146709  0.87434243  0.00213650
   0.98580639  0.87511386  0.49992773
   0.51223186  0.37264624  0.01546027
   0.51194828  0.87531822  0.01534793
   0.00462292  0.37464140  0.24625807
   0.27210005  0.62434022  0.02084580
   0.73417761  0.12552158  0.50703831
   0.24451579  0.62368123  0.73978599
   0.74945303  0.12519664  0.74071505
   0.25846854  0.37315520  0.48774264
   0.25980826  0.87511016  0.49355796
   0.24680871  0.37541689  0.26397220
   0.99845155  0.00305432  0.12659098
   0.00178869  0.99811759  0.62409901
   0.00572251  0.51049993  0.12467164
   0.49192080  0.02208765  0.12599126
   0.49454897  0.00991881  0.62345559
   0.49905243  0.52167556  0.12428700
   0.51226272  0.50656443  0.62424010
   0.99678265  0.49456307  0.37608857
   0.99049492  0.49673480  0.87277907
   0.50517539  0.98011669  0.37704841
   0.51755930  0.98753051  0.87610621
   0.01289600  0.24598811  0.12701080
   0.00429708  0.25807352  0.62133184
   0.51263008  0.22902179  0.12685795
   0.50339084  0.23577696  0.62272724
   0.48746442  0.72694575  0.12156964
   0.99255517  0.25205635  0.87447853
   0.99232124  0.75157939  0.37620836
   0.00146209  0.75106195  0.87446951
   0.48709460  0.27026113  0.37566360
   0.49675509  0.26419035  0.87516817
   0.48680165  0.76716346  0.38138047
   0.49891303  0.75997663  0.87499721
   0.23763892  0.48520462  0.12437755
   0.75094805  0.99901107  0.12610695
   0.74917171  0.99273372  0.62330276
   0.24916877  0.00842324  0.37618313
   0.24156830  0.00243513  0.87530638
   0.25437846  0.51829679  0.37503902
   0.26495756  0.51128696  0.87501865
   0.74885105  0.50970751  0.37409554
   0.75852115  0.50875423  0.87384111
   0.24909587  0.76307626  0.12556342
   0.24645510  0.75874033  0.62657399
   0.74738299  0.26447884  0.62271316
   0.75571902  0.75189098  0.12402067
   0.74598759  0.75194574  0.62523721
   0.25760089  0.23751573  0.37413817
   0.25657987  0.24444949  0.87594321
   0.76559860  0.23914392  0.37394126
   0.75786474  0.24096809  0.87620014
   0.12685046  0.00916627  0.00479693
   0.12478786  0.99309500  0.50148519
   0.12345265  0.49337105  0.48709979
   0.62509896  0.01102855  0.00958605
   0.62366453  0.97908487  0.50490893
   0.62443026  0.48673476  0.49291485
   0.12753518  0.99725697  0.74468666
   0.12390638  0.50506252  0.25474554
   0.12404337  0.49106412  0.76730014
   0.62383863  0.99336849  0.73879432
   0.62339092  0.49395818  0.25103863
   0.62690211  0.48994878  0.76008430
   0.12609866  0.24437115  0.99104770
   0.12379784  0.25480634  0.49301617
   0.12510161  0.73174666  0.00179609
   0.12323739  0.75924918  0.49557496
   0.62713784  0.24062353  0.99061585
   0.12465988  0.24119734  0.26151583
   0.12342440  0.75677473  0.75348819
   0.62580196  0.75652711  0.75166613
   0.37769854  0.01537834  0.49185247
   0.37509071  0.49206230  0.01727605
   0.87431578  0.01778932  0.50688887
   0.87550075  0.48944045  0.00364986
   0.37598066  0.00223252  0.25958550
   0.37479089  0.50045139  0.73587263
   0.87398757  0.00500615  0.24842817
   0.87465220  0.99674408  0.74581036
   0.37920905  0.23479094  0.50180217
   0.37536922  0.76532858  0.00073796
   0.37530170  0.73617742  0.50688042
   0.87426088  0.24045327  0.50969095
   0.87232111  0.76471952  0.99723869
   0.87182534  0.73476026  0.50639663
   0.37779653  0.25366190  0.24147886
   0.37716997  0.24777303  0.74838133
   0.37186845  0.74259336  0.24528473
   0.37438939  0.75125317  0.75010283
   0.87405458  0.25387617  0.23904918
   0.87522417  0.25212470  0.74297855
   0.87398380  0.74356389  0.24977133
   0.99633398  0.12774031  0.00083488
   0.00818708  0.12596191  0.50849990
   0.98443589  0.62504098  0.99347714
   0.00947757  0.62664542  0.49127589
   0.49699773  0.12467421  0.98605958
   0.47667391  0.62495217  0.99265143
   0.51242371  0.62555472  0.48757975
   0.99519442  0.12834179  0.24657399
   0.00157897  0.62341752  0.25913969
   0.01363739  0.62442376  0.75715000
   0.50466327  0.62110017  0.26802834
   0.99308197  0.37412706  0.49952237
   0.48708090  0.37075655  0.51625330
   0.48211342  0.87966626  0.51291025
   0.99377191  0.37513944  0.74950401
   0.99112148  0.87659824  0.25031496
   0.99703998  0.87553329  0.74750156
   0.49953122  0.37208617  0.23117248
   0.49555392  0.37285480  0.73513478
   0.49122141  0.88279140  0.23177551
   0.49967992  0.87527302  0.74370150
   0.25566368  0.12494629  0.00349040
   0.24177215  0.12440268  0.50437237
   0.23812147  0.62570994  0.51292740
   0.75602345  0.12648937  0.00831023
   0.76935653  0.62516600  0.00645147
   0.73480247  0.62496434  0.50546857
   0.25526524  0.12697858  0.24399110
   0.24961915  0.12469114  0.74983209
   0.24520103  0.62420157  0.23161496
   0.75417912  0.12701382  0.24258183
   0.74272900  0.62436761  0.24208629
   0.73645202  0.62419213  0.74379904
   0.24405045  0.37824329  0.98840158
   0.23728692  0.87224331  0.99389870
   0.73943083  0.37527965  0.98323084
   0.76257290  0.37250120  0.48610106
   0.73376600  0.87479960  0.00262244
   0.76765567  0.87700887  0.50008077
   0.25746743  0.37646066  0.76589347
   0.25633546  0.87554223  0.26126390
   0.25000138  0.87256713  0.75769174
   0.75187242  0.37490101  0.26829332
   0.75887991  0.37415979  0.76155527
   0.76113294  0.87662396  0.24810545
   0.75352544  0.87527343  0.74895942
 
 position of ions in cartesian coordinates  (Angst):
   6.05979251  9.27095793  1.35940634
  15.37098444 15.33705977 15.34776760
  15.40174180 15.29771375  7.62170478
   0.08788242  7.65618907 15.37921703
  15.33062406  7.77075582  7.82673653
   7.63994291 15.32737036  0.02088525
   7.73767619  0.13380218  7.69234734
   7.84097954  7.57587927 15.31538365
   7.57142506  7.68998437  7.64867520
   0.10178914  0.04651925  3.95409845
   0.03609911  0.11726460 11.68030960
  15.31537998  7.62955950  3.87122898
  15.32207197  7.71122755 11.42944170
   7.80798510  0.11800536  3.86419390
   7.61333034  0.08593020 11.62591133
   7.59204158  7.65960710  3.99331933
   7.73171688  7.76877994 11.68453009
  15.37177740  3.98655988  0.02678046
  15.39994632  3.82980667  7.57710447
  15.39877752 11.68980750  0.09864026
  15.36312718 11.67684783  7.81246608
   7.65648758  3.95949126  0.03696595
   7.85326408  3.78550860  7.67763535
   7.84292106 11.68329532  0.00402864
   7.81739319 11.61956188  7.82320047
  15.40904401  3.99312090  3.93453104
   0.11725002  3.74903246 11.53247132
   0.04843914 11.55452979  3.75662166
  15.31169412 11.57449018 11.46939569
   7.83295298  3.72426184  3.89549685
   7.83550296  3.75487667 11.59300265
   7.74173659 11.61116084  3.88729670
   7.74018277 11.43465365 11.45650326
   3.96468392 15.37435821  0.09762283
   3.87673368 15.30817464  7.80868746
   3.73543955  7.85558332 15.39376481
   3.91854388  7.61407968  7.81658997
  11.68517580 15.42174025 15.33735824
  11.56182611  0.11614489  7.63359440
  11.46383098  7.72888126  0.06410803
  11.64192924  7.68573081  7.79440479
   3.77599558  0.02375000  3.76427617
   3.99006242 15.38074356 11.49116156
   3.93109635  7.60733902  3.89096265
   3.80533934  7.78328778 11.41314378
  11.48556776  0.01069404  3.94496809
  11.54023227  0.11064557 11.66276644
  11.64396030  7.70474268  3.72822558
  11.68603306  7.68282452 11.43865435
   3.97719318  3.90287584  0.10046534
   3.91641651  3.96506463  7.79088578
   3.88199161 11.42636892 15.35194850
   3.88244859 11.63369684  7.60997877
  11.68831611  3.89502491  0.12189104
  11.44655783  3.74567647  7.67259005
  11.43982294 11.54560723 15.32951271
  11.43583521 11.61124924  7.59393016
   3.87381944  3.99455530  3.76594336
   3.77678730  3.89624222 11.47819420
   3.70715958 11.54346180  3.96618826
   3.81562145 11.41085548 11.67051658
  11.43445493  3.89418357  3.74003135
  11.49339157  3.74121056 11.58201854
  11.43248007 11.58486529  3.93405224
  11.67909999 11.56983751 11.66137841
   0.20731415  7.76220545  9.63055809
  15.38234189  0.08392586  5.80883816
   0.04369510  0.03117504 13.47262651
   7.57934718  7.44119133  5.79658909
   7.56638775  7.50751853 13.48130647
  15.39650687 11.49091218  1.93754029
   0.04281823 11.49263653  9.63799812
   7.74099867 11.44947772  9.64089741
  15.26905443  3.82573008  5.80480991
   3.95822755 15.32796442  1.93880424
   3.98724376 15.36305408  9.65256316
   3.63019567  7.49210379  9.65335747
  11.51652551  7.53658705  1.91701347
  11.44299352  7.55070718  9.62331746
  11.55296506  0.05048613  5.80675857
  11.48128419  0.05014990 13.47986709
   3.73325040  3.99896229  1.93674715
   3.85810944  3.97004473  9.64326388
  11.39371250  4.06529518  1.94092719
   3.90312658 11.39029296  5.79716540
   3.86373107 11.37962391 13.53109412
  11.60239378 11.54335598  5.79118248
  11.53801038 11.53512390 13.50220233
   1.93089217  7.95876922 15.26643549
   9.67154349  7.93334219 15.32439259
   1.93065886  0.00817061  3.86326622
   9.64217329 15.42179476  3.83192309
   9.63323133  4.06194300  7.55334719
   9.62886379 11.30903746  0.05972923
   9.61459015 11.84287327  7.65817124
   1.93952634  3.92410622 11.61589334
   1.89203758 11.64835184  3.91260185
   9.64665639  3.86238264  4.08719817
   9.66476074  3.93562253 11.60235961
   9.65578286 11.71704342  3.82554816
   5.81287237 15.29887160 15.30061683
   5.78299314  7.85851650  7.85723049
  13.47524618 15.30564907 15.39489104
  13.49399289  7.84730851  7.78348095
   5.81174106 15.41216825 11.73367710
   5.75008663  7.77245935  3.68644838
  13.49660119  7.71746179  3.80766455
  13.50871967  7.87644691 11.41504646
   5.81524235  3.94352842  0.12975400
  13.50556879  3.99165864  0.14282844
  13.49324865 11.43063488 11.55556634
   7.96091429  1.89243220  7.49436451
   0.00073517  1.94976304 11.49014898
   7.69117675  1.93976294  4.18167625
   7.77933368  1.91579557 11.72291664
   7.76517479  9.62162562 11.69853128
   0.15796107  5.81459641  0.06571618
   0.17689506 13.48789573  0.03295833
  15.20737566 13.49979609  7.71205069
   7.90185820  5.74856417  0.23849523
   7.89748355 13.50294862  0.23676220
   0.07131463  5.77934231  3.79885850
   4.19750546  9.63127896  0.32157425
  11.32566686  1.93633750  7.82174073
   3.77198154  9.62111311 11.41218355
  11.56131052  1.93132485 11.42651548
   3.98722118  5.75641559  7.52407938
   4.00788815 13.49973903  7.61378846
   3.80735281  5.79130526  4.07212256
  15.40244404  0.04711695  1.95283434
   0.02759291 15.39729234  9.62755796
   0.08827726  7.87514093  1.92322595
   7.58853307  0.34073144  1.94358295
   7.62907616  0.15301082  9.61763237
   7.69854802  8.04753991  1.91729247
   7.90233428  7.81443064  9.62973440
  15.37669902  7.62929366  5.80166676
  15.27970249  7.66279547 13.46377888
   7.79300271 15.11960441  5.81647360
   7.98404108 15.23397246 13.51510437
   0.19893794  3.79469408  1.95931070
   0.06628816  3.98112757  9.58487058
   7.90800135  3.53296587  1.95695267
   7.76547364  3.63717349  9.60639653
   7.51978744 11.21410578  1.87537348
  15.31148453  3.88830473 13.48999531
  15.30787594 11.59411239  5.80351471
   0.02255475 11.58613025 13.48985611
   7.51408256  4.16913771  5.79511099
   7.66310837  4.07548781 13.50063393
   7.50956337 11.83451747  5.88330136
   7.69639746 11.72365109 13.49799656
   3.66589666  7.48492703  1.91868932
  11.58437319 15.41107545  1.94536752
  11.55697084 15.31423890  9.61527472
   3.84375988  0.12993965  5.80312549
   3.72651260  0.03756506 13.50276591
   3.92412635  7.99541781  5.78547612
   4.08732300  7.88728189 13.49832739
  11.55202422  7.86291681  5.77092169
  11.70119835  7.84821109 13.48016218
   3.84263539 11.77146700  1.93698293
   3.80189796 11.70457955  9.66573773
  11.52937744  4.07993820  9.60617933
  11.65797168 11.59891921  1.91318395
  11.50785155 11.59976387  9.64511619
   3.97383666  3.66399621  5.77157925
   3.95808605  3.77095878 13.51258990
  11.81037741  3.68911323  5.76854165
  11.69107238  3.71725353 13.51655341
   1.95683711  0.14140192  0.07399899
   1.92501890 15.31981217  7.73607652
   1.90442137  7.61090506  7.51416258
   9.64298342  0.17013004  0.14787763
   9.62085545 15.10368726  7.78889235
   9.63266784  7.50853145  7.60386765
   1.96739993 15.38401608 11.48778292
   1.91142079  7.79126157  3.92978900
   1.91353411  7.57531769 11.83662597
   9.62354117 15.32403113 11.39688567
   9.61663469  7.61996234  3.87260498
   9.67079939  7.55811213 11.72531199
   1.94523973  3.76975026 15.28822982
   1.90974638  3.93072693  7.60543056
   1.92985888 11.28816623  0.02770702
   1.90110084 11.71242912  7.64490331
   9.67443593  3.71193827 15.28156795
   1.92304454  3.72079006  4.03422979
   1.90398567 11.67425749 11.62355823
   9.65382822 11.67043767 11.59545048
   5.82650269  0.23723137  7.58747903
   5.78627345  7.59071589  0.26650613
  13.48748464  0.27442392  7.81943554
  13.50576439  7.55027038  0.05630401
   5.80000209  0.03443963  4.00445184
   5.78164831  7.72012878 11.35181479
  13.48242160  0.07722654  3.83233520
  13.49267439 15.37610405 11.50511754
   5.84980433  3.62196272  7.74096643
   5.79056979 11.80621207  0.01138405
   5.78952831 11.35651657  7.81930515
  13.48663769  3.70931171  7.86266132
  13.45671419 11.79681638 15.38373418
  13.44906625 11.33465503  7.81184200
   5.82801430  3.91307251  3.72513289
   5.81834883  3.82222879 11.54477808
   5.73656574 11.45549095  3.78384337
   5.77545471 11.58908009 11.57133462
  13.48345524  3.91637777  3.68765171
  13.50149778  3.88935907 11.46143307
  13.48236341 11.47046262  3.85305525
  15.36977773  1.97056427  0.01287919
   0.12629665  1.94313008  7.84428774
  15.18623393  9.64208898 15.32570717
   0.14620415  9.66683967  7.57858442
   7.66685152  1.92326559 15.21128154
   7.35332945  9.64071901 15.31296957
   7.90481783  9.65001411  7.52156654
  15.35219855  1.97984289  3.80373205
   0.02435777  9.61704499  3.99757462
   0.21037493  9.63256761 11.68004657
   7.78510263  9.58129681  4.13469392
  15.31961118  5.77140790  7.70579745
   7.51387123  5.71941323  7.96389422
   7.43724114 13.57002293  7.91232331
  15.33025435  5.78702511 11.56209688
  15.28936804 13.52269459  3.86144135
  15.38066873 13.50626637 11.53120654
   7.70593400  5.73992436  3.56614321
   7.64457882  5.75178155 11.34043240
   7.57774409 13.61823239  3.57544571
   7.70822785 13.50225134 11.47258556
   3.94395253  1.92746287  0.05384402
   3.72965715  1.91907692  7.78061513
   3.67334055  9.65240862  7.91258788
  11.66266799  1.95126684  0.12819637
  11.86834855  9.64401759  0.09952256
  11.33530616  9.64090684  7.79752551
   3.93780608  1.95881353  3.76388750
   3.85070761  1.92352685 11.56715806
   3.78255227  9.62914000  3.57296911
  11.63421666  1.95935726  3.74214758
  11.45758344  9.63170146  3.73450317
  11.36075266  9.62899443 11.47409019
   3.76480305  5.83490623 15.24740997
   3.66046652 13.45551400 15.33221034
  11.40670479  5.78918807 15.16764439
  11.76370203  5.74632679  7.49875580
  11.31931714 13.49494823  0.04045461
  11.84211040 13.52902909  7.71441155
   3.97177783  5.80740668 11.81492621
   3.95431572 13.50640429  4.03034341
   3.85660404 13.46050932 11.68840355
  11.59863280  5.78334710  4.13878160
  11.70673263  5.77191283 11.74800364
  11.74148868 13.52309130  3.82735674
  11.62413289 13.50225767 11.55369596
 


--------------------------------------------------------------------------------------------------------


 k-point  1 :   0.2500 0.2500 0.2500  plane waves:   93161
 k-point  2 :  -0.2500 0.2500 0.2500  plane waves:   93161
 k-point  3 :   0.2500-0.2500 0.2500  plane waves:   93161
 k-point  4 :  -0.2500-0.2500 0.2500  plane waves:   93161

 maximum and minimum number of plane-waves per node :     11686    11606

 maximum number of plane-waves:     93161
 maximum index in each direction: 
   IXMAX=   28   IYMAX=   28   IZMAX=   27
   IXMIN=  -28   IYMIN=  -28   IZMIN=  -28


 real space projection operators:
  total allocation   :     105559.04 KBytes
  max/ min on nodes  :      13242.80      13154.98


 parallel 3D FFT for wavefunctions:
    minimum data exchange during FFTs selected (reduces bandwidth)
 parallel 3D FFT for charge:
    minimum data exchange during FFTs selected (reduces bandwidth)


 total amount of memory used by VASP MPI-rank0   291485. kBytes
=======================================================================

   base      :      30000. kBytes
   nonlr-proj:      49450. kBytes
   fftplans  :      27976. kBytes
   grid      :      34041. kBytes
   one-center:       1026. kBytes
   wavefun   :     148992. kBytes
 
     INWAV:  cpu time    0.0000: real time    0.0000
 Broyden mixing: mesh for mixing (old mesh)
   NGX = 57   NGY = 57   NGZ = 57
  (NGX  =240   NGY  =240   NGZ  =240)
  gives a total of 185193 points

 initial charge density was supplied:
 charge density of overlapping atoms calculated
 number of electron    1923.0000000 magnetization       1.0000000
 keeping initial charge density in first step


--------------------------------------------------------------------------------------------------------


 Maximum index for non-local projection operator          968
 Maximum index for augmentation-charges         3291 (set IRDMAX)


--------------------------------------------------------------------------------------------------------


 First call to EWALD:  gamma=   0.115
 Maximum number of real-space cells 3x 3x 3
 Maximum number of reciprocal cells 3x 3x 3

    FEWALD:  cpu time    0.0349: real time    0.0349


--------------------------------------- Iteration      1(   1)  ---------------------------------------


    POTLOK:  cpu time    0.3269: real time    0.3395
    SETDIJ:  cpu time    1.3956: real time    1.3962
     EDDAV:  cpu time  110.2820: real time  110.7559
       DOS:  cpu time    0.0032: real time    0.0032
    --------------------------------------------
      LOOP:  cpu time  112.0077: real time  112.4948

 eigenvalue-minimisations  : 18648
 total energy-change (2. order) : 0.2838830E+05  (-0.9388776E+05)
 number of electron    1923.0000000 magnetization       1.0000000
 augmentation part     1923.0000000 magnetization       1.0000000

 Free energy of the ion-electron system (eV)
  ---------------------------------------------------
  alpha Z        PSCENC =      6118.73324990
  Ewald energy   TEWEN  =   -103801.21196571
  -Hartree energ DENC   =    -64876.35945077
  -exchange      EXHF   =         0.00000000
  -V(xc)+E(xc)   XCENC  =      8893.08355231
  PAW double counting   =    143584.62052475  -144174.89622836
  entropy T*S    EENTRO =        -0.00476013
  eigenvalues    EBANDS =      4067.08490382
  atomic energy  EATOM  =    178577.25249613
  Solvation  Ediel_sol  =         0.00000000
  ---------------------------------------------------
  free energy    TOTEN  =     28388.30232195 eV

  energy without entropy =    28388.30708208  energy(sigma->0) =    28388.30470202


--------------------------------------------------------------------------------------------------------




--------------------------------------- Iteration      1(   2)  ---------------------------------------


     EDDAV:  cpu time  108.7546: real time  109.5389
       DOS:  cpu time    0.0032: real time    0.0032
    --------------------------------------------
      LOOP:  cpu time  108.7578: real time  109.5421

 eigenvalue-minimisations  : 18624
 total energy-change (2. order) :-0.2430339E+05  (-0.2323762E+05)
 number of electron    1923.0000000 magnetization       1.0000000
 augmentation part     1923.0000000 magnetization       1.0000000

 Free energy of the ion-electron system (eV)
  ---------------------------------------------------
  alpha Z        PSCENC =      6118.73324990
  Ewald energy   TEWEN  =   -103801.21196571
  -Hartree energ DENC   =    -64876.35945077
  -exchange      EXHF   =         0.00000000
  -V(xc)+E(xc)   XCENC  =      8893.08355231
  PAW double counting   =    143584.62052475  -144174.89622836
  entropy T*S    EENTRO =        -0.00496516
  eigenvalues    EBANDS =    -20236.30779200
  atomic energy  EATOM  =    178577.25249613
  Solvation  Ediel_sol  =         0.00000000
  ---------------------------------------------------
  free energy    TOTEN  =      4084.90942109 eV

  energy without entropy =     4084.91438626  energy(sigma->0) =     4084.91190367


--------------------------------------------------------------------------------------------------------




--------------------------------------- Iteration      1(   3)  ---------------------------------------


     EDDAV:  cpu time  118.9224: real time  119.3014
       DOS:  cpu time    0.0026: real time    0.0026
    --------------------------------------------
      LOOP:  cpu time  118.9251: real time  119.3040

 eigenvalue-minimisations  : 20640
 total energy-change (2. order) :-0.5986806E+04  (-0.5836150E+04)
 number of electron    1923.0000000 magnetization       1.0000000
 augmentation part     1923.0000000 magnetization       1.0000000

 Free energy of the ion-electron system (eV)
  ---------------------------------------------------
  alpha Z        PSCENC =      6118.73324990
  Ewald energy   TEWEN  =   -103801.21196571
  -Hartree energ DENC   =    -64876.35945077
  -exchange      EXHF   =         0.00000000
  -V(xc)+E(xc)   XCENC  =      8893.08355231
  PAW double counting   =    143584.62052475  -144174.89622836
  entropy T*S    EENTRO =        -0.00147219
  eigenvalues    EBANDS =    -26223.11705507
  atomic energy  EATOM  =    178577.25249613
  Solvation  Ediel_sol  =         0.00000000
  ---------------------------------------------------
  free energy    TOTEN  =     -1901.89634900 eV

  energy without entropy =    -1901.89487681  energy(sigma->0) =    -1901.89561290


--------------------------------------------------------------------------------------------------------




--------------------------------------- Iteration      1(   4)  ---------------------------------------


     EDDAV:  cpu time  137.9298: real time  138.7306
       DOS:  cpu time    0.0020: real time    0.0020
    --------------------------------------------
      LOOP:  cpu time  137.9318: real time  138.7326

 eigenvalue-minimisations  : 25164
 total energy-change (2. order) :-0.4302809E+03  (-0.4267027E+03)
 number of electron    1923.0000000 magnetization       1.0000000
 augmentation part     1923.0000000 magnetization       1.0000000

 Free energy of the ion-electron system (eV)
  ---------------------------------------------------
  alpha Z        PSCENC =      6118.73324990
  Ewald energy   TEWEN  =   -103801.21196571
  -Hartree energ DENC   =    -64876.35945077
  -exchange      EXHF   =         0.00000000
  -V(xc)+E(xc)   XCENC  =      8893.08355231
  PAW double counting   =    143584.62052475  -144174.89622836
  entropy T*S    EENTRO =        -0.00000000
  eigenvalues    EBANDS =    -26653.39947137
  atomic energy  EATOM  =    178577.25249613
  Solvation  Ediel_sol  =         0.00000000
  ---------------------------------------------------
  free energy    TOTEN  =     -2332.17729311 eV

  energy without entropy =    -2332.17729311  energy(sigma->0) =    -2332.17729311


--------------------------------------------------------------------------------------------------------




--------------------------------------- Iteration      1(   5)  ---------------------------------------


     EDDAV:  cpu time  145.2471: real time  146.3094
       DOS:  cpu time    0.0020: real time    0.0020
    CHARGE:  cpu time    5.2417: real time    5.2459
    MIXING:  cpu time    0.0106: real time    0.0107
    --------------------------------------------
      LOOP:  cpu time  150.5015: real time  151.5682

 eigenvalue-minimisations  : 26904
 total energy-change (2. order) :-0.1354700E+02  (-0.1348808E+02)
 number of electron    1923.0000026 magnetization       1.0000000
 augmentation part      488.2793346 magnetization      -0.0154953

 Broyden mixing:
  rms(total) = 0.22295E+02    rms(broyden)= 0.22293E+02
  rms(prec ) = 0.23781E+02
  weight for this iteration     100.00

 Free energy of the ion-electron system (eV)
  ---------------------------------------------------
  alpha Z        PSCENC =      6118.73324990
  Ewald energy   TEWEN  =   -103801.21196571
  -Hartree energ DENC   =    -64876.35945077
  -exchange      EXHF   =         0.00000000
  -V(xc)+E(xc)   XCENC  =      8893.08355231
  PAW double counting   =    143584.62052475  -144174.89622836
  entropy T*S    EENTRO =        -0.00000000
  eigenvalues    EBANDS =    -26666.94646652
  atomic energy  EATOM  =    178577.25249613
  Solvation  Ediel_sol  =         0.00000000
  ---------------------------------------------------
  free energy    TOTEN  =     -2345.72428826 eV

  energy without entropy =    -2345.72428826  energy(sigma->0) =    -2345.72428826


--------------------------------------------------------------------------------------------------------




--------------------------------------- Iteration      1(   6)  ---------------------------------------


    POTLOK:  cpu time    0.2670: real time    0.2698
    SETDIJ:  cpu time    1.4360: real time    1.4365
     EDDAV:  cpu time  143.1772: real time  143.9608
       DOS:  cpu time    0.0020: real time    0.0020
    CHARGE:  cpu time    5.2900: real time    5.2938
    MIXING:  cpu time    0.0080: real time    0.0080
    --------------------------------------------
      LOOP:  cpu time  150.1801: real time  150.9710

 eigenvalue-minimisations  : 26364
 total energy-change (2. order) : 0.5919254E+03  (-0.2676054E+03)
 number of electron    1923.0000026 magnetization       1.0000000
 augmentation part      494.6854838 magnetization       0.5489888

 Broyden mixing:
  rms(total) = 0.71002E+01    rms(broyden)= 0.70959E+01
  rms(prec ) = 0.73266E+01
  weight for this iteration     100.00

 eigenvalues of (default mixing * dielectric matrix)
  average eigenvalue GAMMA=   1.0360
  1.0360

 Free energy of the ion-electron system (eV)
  ---------------------------------------------------
  alpha Z        PSCENC =      6118.73324990
  Ewald energy   TEWEN  =   -103801.21196571
  -Hartree energ DENC   =    -65824.81999106
  -exchange      EXHF   =         0.00000000
  -V(xc)+E(xc)   XCENC  =      9025.85301809
  PAW double counting   =    166281.85802894  -167183.20575141
  entropy T*S    EENTRO =        -0.00000000
  eigenvalues    EBANDS =    -24948.25798415
  atomic energy  EATOM  =    178577.25249613
  Solvation  Ediel_sol  =         0.00000000
  ---------------------------------------------------
  free energy    TOTEN  =     -1753.79889927 eV

  energy without entropy =    -1753.79889927  energy(sigma->0) =    -1753.79889927


--------------------------------------------------------------------------------------------------------




--------------------------------------- Iteration      1(   7)  ---------------------------------------


    POTLOK:  cpu time    0.2611: real time    0.2636
    SETDIJ:  cpu time    1.3739: real time    1.3750
     EDDAV:  cpu time  140.5336: real time  141.4009
       DOS:  cpu time    0.0020: real time    0.0020
    CHARGE:  cpu time    5.3384: real time    5.3422
    MIXING:  cpu time    0.0191: real time    0.0191
    --------------------------------------------
      LOOP:  cpu time  147.5282: real time  148.4027

 eigenvalue-minimisations  : 25896
 total energy-change (2. order) :-0.9548994E+01  (-0.3602755E+02)
 number of electron    1923.0000026 magnetization       1.0000000
 augmentation part      490.0749524 magnetization       0.6096432

 Broyden mixing:
  rms(total) = 0.42584E+01    rms(broyden)= 0.42582E+01
  rms(prec ) = 0.43990E+01
  weight for this iteration     100.00

 eigenvalues of (default mixing * dielectric matrix)
  average eigenvalue GAMMA=   1.2887
  0.8049  1.7724

 Free energy of the ion-electron system (eV)
  ---------------------------------------------------
  alpha Z        PSCENC =      6118.73324990
  Ewald energy   TEWEN  =   -103801.21196571
  -Hartree energ DENC   =    -65367.70143409
  -exchange      EXHF   =         0.00000000
  -V(xc)+E(xc)   XCENC  =      8989.18597736
  PAW double counting   =    178190.61069762  -179108.66057787
  entropy T*S    EENTRO =        -0.00000000
  eigenvalues    EBANDS =    -25361.55633627
  atomic energy  EATOM  =    178577.25249613
  Solvation  Ediel_sol  =         0.00000000
  ---------------------------------------------------
  free energy    TOTEN  =     -1763.34789293 eV

  energy without entropy =    -1763.34789293  energy(sigma->0) =    -1763.34789293


--------------------------------------------------------------------------------------------------------




--------------------------------------- Iteration      1(   8)  ---------------------------------------


    POTLOK:  cpu time    0.3198: real time    0.3361
    SETDIJ:  cpu time    1.4582: real time    1.4745
     EDDAV:  cpu time  136.2987: real time  137.2017
       DOS:  cpu time    0.0026: real time    0.0026
    CHARGE:  cpu time    5.2999: real time    5.3040
    MIXING:  cpu time    0.0214: real time    0.0214
    --------------------------------------------
      LOOP:  cpu time  143.4006: real time  144.3404

 eigenvalue-minimisations  : 24900
 total energy-change (2. order) : 0.4691887E+01  (-0.5980514E+01)
 number of electron    1923.0000026 magnetization       1.0000000
 augmentation part      498.2820956 magnetization       0.5792838

 Broyden mixing:
  rms(total) = 0.14320E+01    rms(broyden)= 0.14316E+01
  rms(prec ) = 0.16118E+01
  weight for this iteration     100.00

 eigenvalues of (default mixing * dielectric matrix)
  average eigenvalue GAMMA=   1.1347
  1.6873  1.0046  0.7124

 Free energy of the ion-electron system (eV)
  ---------------------------------------------------
  alpha Z        PSCENC =      6118.73324990
  Ewald energy   TEWEN  =   -103801.21196571
  -Hartree energ DENC   =    -64669.55951969
  -exchange      EXHF   =         0.00000000
  -V(xc)+E(xc)   XCENC  =      8957.84346232
  PAW double counting   =    192142.12010783  -193124.12079223
  entropy T*S    EENTRO =        -0.00485416
  eigenvalues    EBANDS =    -25959.70819042
  atomic energy  EATOM  =    178577.25249613
  Solvation  Ediel_sol  =         0.00000000
  ---------------------------------------------------
  free energy    TOTEN  =     -1758.65600603 eV

  energy without entropy =    -1758.65115187  energy(sigma->0) =    -1758.65357895


--------------------------------------------------------------------------------------------------------




--------------------------------------- Iteration      1(   9)  ---------------------------------------


    POTLOK:  cpu time    0.3023: real time    0.3048
    SETDIJ:  cpu time    1.4065: real time    1.4073
     EDDAV:  cpu time  143.1836: real time  143.9694
       DOS:  cpu time    0.0022: real time    0.0022
    CHARGE:  cpu time    5.2939: real time    5.2976
    MIXING:  cpu time    0.0079: real time    0.0079
    --------------------------------------------
      LOOP:  cpu time  150.1964: real time  150.9893

 eigenvalue-minimisations  : 26388
 total energy-change (2. order) : 0.1343540E+01  (-0.2041085E+01)
 number of electron    1923.0000026 magnetization       1.0000000
 augmentation part      496.7493852 magnetization       0.6289964

 Broyden mixing:
  rms(total) = 0.11155E+01    rms(broyden)= 0.11152E+01
  rms(prec ) = 0.12032E+01
  weight for this iteration     100.00

 eigenvalues of (default mixing * dielectric matrix)
  average eigenvalue GAMMA=   1.0161
  1.9168  0.9895  0.6328  0.5251

 Free energy of the ion-electron system (eV)
[...]
   81        1.574   3.460   0.000   5.033
   82        1.574   3.457   0.000   5.032
   83        1.574   3.457   0.000   5.030
   84        1.576   3.467   0.000   5.043
   85        1.575   3.459   0.000   5.034
   86        1.574   3.461   0.000   5.035
   87        1.575   3.463   0.000   5.038
   88        1.575   3.463   0.000   5.038
   89        1.575   3.458   0.000   5.033
   90        1.575   3.459   0.000   5.034
   91        1.574   3.460   0.000   5.034
   92        1.575   3.459   0.000   5.034
   93        1.578   3.466   0.000   5.043
   94        1.576   3.465   0.000   5.042
   95        1.576   3.469   0.000   5.045
   96        1.575   3.462   0.000   5.037
   97        1.575   3.464   0.000   5.040
   98        1.576   3.471   0.000   5.048
   99        1.575   3.462   0.000   5.037
  100        1.574   3.468   0.000   5.042
  101        1.574   3.454   0.000   5.028
  102        1.575   3.455   0.000   5.030
  103        1.575   3.455   0.000   5.030
  104        1.574   3.456   0.000   5.030
  105        1.577   3.470   0.000   5.047
  106        1.572   3.463   0.000   5.035
  107        1.575   3.462   0.000   5.036
  108        1.576   3.469   0.000   5.045
  109        1.574   3.459   0.000   5.033
  110        1.574   3.456   0.000   5.031
  111        1.576   3.470   0.000   5.046
  112        1.577   3.455   0.000   5.032
  113        1.576   3.472   0.000   5.048
  114        1.576   3.466   0.000   5.043
  115        1.574   3.461   0.000   5.035
  116        1.574   3.460   0.000   5.034
  117        1.575   3.457   0.000   5.032
  118        1.575   3.459   0.000   5.034
  119        1.576   3.472   0.000   5.049
  120        1.575   3.459   0.000   5.034
  121        1.574   3.457   0.000   5.031
  122        1.577   3.468   0.000   5.045
  123        1.569   3.477   0.000   5.046
  124        1.576   3.465   0.000   5.040
  125        1.576   3.472   0.000   5.048
  126        1.576   3.469   0.000   5.045
  127        1.575   3.454   0.000   5.028
  128        1.574   3.456   0.000   5.031
  129        1.576   3.467   0.000   5.044
  130        1.737   4.369   0.000   6.106
  131        1.737   4.370   0.000   6.107
  132        1.737   4.377   0.000   6.114
  133        1.738   4.380   0.000   6.118
  134        1.738   4.380   0.000   6.118
  135        1.735   4.368   0.000   6.103
  136        1.736   4.365   0.000   6.101
  137        1.738   4.379   0.000   6.118
  138        1.738   4.378   0.000   6.116
  139        1.739   4.378   0.000   6.118
  140        1.739   4.381   0.000   6.120
  141        1.738   4.378   0.000   6.116
  142        1.738   4.379   0.000   6.116
  143        1.738   4.379   0.000   6.117
  144        1.738   4.381   0.000   6.119
  145        1.737   4.379   0.000   6.116
  146        1.737   4.379   0.000   6.116
  147        1.737   4.368   0.000   6.105
  148        1.736   4.368   0.000   6.105
  149        1.739   4.377   0.000   6.116
  150        1.738   4.382   0.000   6.120
  151        1.736   4.378   0.000   6.114
  152        1.737   4.374   0.000   6.111
  153        1.737   4.376   0.000   6.113
  154        1.737   4.371   0.000   6.108
  155        1.737   4.370   0.000   6.108
  156        1.737   4.368   0.000   6.104
  157        1.737   4.366   0.000   6.103
  158        1.738   4.370   0.000   6.108
  159        1.738   4.368   0.000   6.105
  160        1.736   4.365   0.000   6.101
  161        1.736   4.366   0.000   6.103
  162        1.736   4.366   0.000   6.102
  163        1.736   4.365   0.000   6.101
  164        1.737   4.375   0.000   6.112
  165        1.737   4.370   0.000   6.107
  166        1.736   4.367   0.000   6.104
  167        1.737   4.366   0.000   6.102
  168        1.737   4.367   0.000   6.104
  169        1.738   4.372   0.000   6.110
  170        1.737   4.375   0.000   6.113
  171        1.737   4.367   0.000   6.104
  172        1.737   4.385   0.000   6.123
  173        1.737   4.366   0.000   6.103
  174        1.737   4.365   0.000   6.102
  175        1.739   4.377   0.000   6.116
  176        1.736   4.362   0.000   6.099
  177        1.737   4.378   0.000   6.116
  178        1.737   4.369   0.000   6.106
  179        1.738   4.371   0.000   6.109
  180        1.738   4.378   0.000   6.116
  181        1.736   4.367   0.000   6.104
  182        1.737   4.374   0.000   6.111
  183        1.737   4.365   0.000   6.102
  184        1.737   4.377   0.000   6.114
  185        1.737   4.376   0.000   6.113
  186        1.737   4.378   0.000   6.115
  187        1.737   4.366   0.000   6.103
  188        1.738   4.378   0.000   6.115
  189        1.738   4.380   0.000   6.118
  190        1.738   4.380   0.000   6.118
  191        1.739   4.382   0.000   6.120
  192        1.736   4.374   0.000   6.109
  193        1.738   4.384   0.000   6.122
  194        1.737   4.367   0.000   6.104
  195        1.737   4.370   0.000   6.107
  196        1.737   4.378   0.000   6.115
  197        1.737   4.370   0.000   6.107
  198        1.737   4.380   0.000   6.117
  199        1.738   4.377   0.000   6.114
  200        1.738   4.375   0.000   6.113
  201        1.738   4.374   0.000   6.113
  202        1.738   4.375   0.000   6.113
  203        1.737   4.376   0.000   6.113
  204        1.738   4.374   0.000   6.112
  205        1.737   4.377   0.000   6.115
  206        1.736   4.368   0.000   6.104
  207        1.736   4.378   0.000   6.114
  208        1.737   4.380   0.000   6.117
  209        1.737   4.375   0.000   6.113
  210        1.737   4.369   0.000   6.106
  211        1.737   4.371   0.000   6.108
  212        1.736   4.364   0.000   6.101
  213        1.739   4.372   0.000   6.111
  214        1.737   4.365   0.000   6.101
  215        1.739   4.377   0.000   6.115
  216        1.736   4.365   0.000   6.101
  217        1.735   4.371   0.000   6.106
  218        1.736   4.372   0.000   6.108
  219        1.738   4.379   0.000   6.117
  220        1.738   4.380   0.000   6.118
  221        1.738   4.379   0.000   6.117
  222        1.737   4.378   0.000   6.114
  223        1.737   4.379   0.000   6.117
  224        1.738   4.373   0.000   6.111
  225        1.737   4.372   0.000   6.109
  226        1.738   4.378   0.000   6.116
  227        1.737   4.379   0.000   6.116
  228        1.738   4.377   0.000   6.115
  229        1.737   4.371   0.000   6.108
  230        1.737   4.366   0.000   6.102
  231        1.737   4.375   0.000   6.112
  232        1.736   4.366   0.000   6.103
  233        1.737   4.377   0.000   6.114
  234        1.736   4.365   0.000   6.101
  235        1.737   4.364   0.000   6.101
  236        1.738   4.384   0.000   6.122
  237        1.739   4.380   0.000   6.119
  238        1.737   4.376   0.000   6.112
  239        1.738   4.377   0.000   6.114
  240        1.737   4.379   0.000   6.116
  241        1.738   4.373   0.000   6.111
  242        1.738   4.385   0.000   6.124
  243        1.738   4.386   0.000   6.124
  244        1.738   4.378   0.000   6.115
  245        1.737   4.373   0.000   6.110
  246        1.737   4.372   0.000   6.109
  247        1.738   4.381   0.000   6.119
  248        1.737   4.373   0.000   6.110
  249        1.738   4.381   0.000   6.119
  250        1.737   4.373   0.000   6.110
  251        1.738   4.376   0.000   6.114
  252        1.737   4.378   0.000   6.115
  253        1.738   4.376   0.000   6.114
  254        1.739   4.384   0.000   6.123
  255        1.738   4.375   0.000   6.113
  256        1.739   4.384   0.000   6.123
  257        1.738   4.377   0.000   6.115
--------------------------------------------------
tot        345.3051194.326 111.8101651.440
 


 magnetization (x)
 
# of ion       s       p       d       tot
------------------------------------------
    1        0.000   0.000   0.000   0.000
    2       -0.000  -0.000   0.000   0.000
    3       -0.000  -0.000  -0.000  -0.000
    4       -0.000  -0.000  -0.000  -0.000
    5       -0.000  -0.000   0.000  -0.000
    6        0.000   0.000   0.001   0.001
    7        0.000   0.000   0.001   0.001
    8        0.000   0.000   0.000   0.000
    9        0.000   0.000   0.002   0.002
   10       -0.000  -0.000  -0.000  -0.000
   11       -0.000  -0.000  -0.000  -0.000
   12       -0.000  -0.000  -0.000  -0.000
   13       -0.000  -0.000  -0.000  -0.000
   14        0.000   0.000   0.008   0.008
   15        0.000   0.000   0.000   0.000
   16       -0.000  -0.000   0.005   0.005
   17        0.000   0.000   0.000   0.000
   18       -0.000  -0.000  -0.000  -0.000
   19       -0.000  -0.000  -0.000  -0.000
   20        0.000   0.000   0.000   0.000
   21       -0.000  -0.000  -0.000  -0.000
   22        0.000   0.000   0.000   0.000
   23        0.000   0.000   0.000   0.000
   24        0.000   0.000   0.004   0.004
   25        0.000  -0.000   0.006   0.006
   26       -0.000  -0.000  -0.000  -0.000
   27       -0.000  -0.000  -0.000  -0.000
   28       -0.000  -0.000  -0.000  -0.000
   29       -0.000  -0.000   0.000   0.000
   30       -0.000  -0.000   0.001   0.001
   31        0.000   0.000   0.000   0.000
   32        0.005   0.006   0.928   0.939
   33       -0.000   0.000   0.000   0.000
   34       -0.000  -0.000  -0.000  -0.000
   35        0.000  -0.000   0.000   0.000
   36        0.000   0.000   0.000   0.000
   37       -0.000  -0.000  -0.000  -0.000
   38        0.000  -0.000   0.000   0.000
   39        0.000  -0.000  -0.000  -0.000
   40       -0.000  -0.000   0.000   0.000
   41       -0.000  -0.000   0.000   0.000
   42       -0.000  -0.000   0.000   0.000
   43       -0.000  -0.000  -0.000  -0.000
   44       -0.000  -0.000   0.000   0.000
   45       -0.000  -0.000  -0.000  -0.000
   46       -0.000  -0.000  -0.000  -0.000
   47       -0.000  -0.000   0.000  -0.000
   48        0.000   0.000   0.000   0.000
   49       -0.000  -0.000   0.000   0.000
   50       -0.000  -0.000  -0.000  -0.000
   51       -0.000  -0.000  -0.000  -0.000
   52       -0.000  -0.000   0.000   0.000
   53       -0.000  -0.000  -0.000  -0.000
   54       -0.000  -0.000   0.000   0.000
   55       -0.000  -0.000  -0.000  -0.000
   56       -0.000  -0.000   0.000   0.000
   57       -0.000  -0.000  -0.000  -0.000
   58        0.000  -0.000   0.000   0.000
   59       -0.000  -0.000  -0.000  -0.000
   60       -0.000  -0.000   0.000  -0.000
   61        0.000   0.000   0.000   0.000
   62       -0.000  -0.000  -0.000  -0.000
   63       -0.000  -0.000  -0.000  -0.000
   64       -0.000  -0.000  -0.004  -0.005
   65        0.000  -0.000   0.000   0.000
   66        0.000   0.000   0.000   0.000
   67        0.000  -0.000   0.000  -0.000
   68        0.000   0.000   0.000   0.000
   69       -0.000  -0.000   0.000  -0.000
   70        0.000  -0.000   0.000  -0.000
   71        0.000   0.000   0.000   0.000
   72        0.000  -0.000   0.000  -0.000
   73       -0.000  -0.000   0.000  -0.001
   74        0.000   0.000   0.000   0.000
   75       -0.000  -0.000   0.000  -0.000
   76        0.000  -0.000   0.000  -0.000
   77        0.000  -0.000   0.000  -0.000
   78       -0.000  -0.000   0.000  -0.000
   79        0.000  -0.000   0.000  -0.000
   80       -0.000  -0.000   0.000  -0.000
   81        0.000  -0.000   0.000  -0.000
   82       -0.000  -0.000   0.000  -0.000
   83        0.000   0.000   0.000   0.000
   84       -0.000  -0.000   0.000  -0.000
   85       -0.000  -0.000   0.000  -0.000
   86       -0.000  -0.000   0.000  -0.000
   87        0.000  -0.000   0.000  -0.000
   88       -0.000  -0.000   0.000  -0.000
   89       -0.000  -0.000   0.000  -0.000
   90       -0.000  -0.000   0.000  -0.000
   91       -0.000  -0.000   0.000  -0.000
   92       -0.000  -0.000   0.000  -0.000
   93       -0.000  -0.000   0.000  -0.000
   94       -0.000  -0.000   0.000  -0.000
   95       -0.000  -0.000   0.000  -0.000
   96        0.000   0.000   0.000   0.000
   97       -0.000  -0.000   0.000  -0.000
   98       -0.000  -0.000   0.000  -0.000
   99        0.000  -0.000   0.000  -0.000
  100       -0.001  -0.017   0.000  -0.018
  101       -0.000  -0.000   0.000  -0.000
  102       -0.000  -0.000   0.000  -0.000
  103       -0.000  -0.000   0.000  -0.000
  104       -0.000  -0.000   0.000  -0.000
  105       -0.000  -0.000   0.000  -0.000
  106       -0.000  -0.000   0.000  -0.000
  107       -0.000  -0.000   0.000  -0.000
  108        0.000   0.000   0.000   0.000
  109       -0.000  -0.000   0.000  -0.000
  110        0.000   0.000   0.000   0.000
  111       -0.000  -0.000   0.000  -0.000
  112       -0.000  -0.000   0.000  -0.000
  113        0.000   0.000   0.000   0.000
  114       -0.000  -0.001   0.000  -0.001
  115       -0.000  -0.000   0.000  -0.000
  116       -0.000  -0.000   0.000  -0.000
  117        0.000   0.000   0.000   0.000
  118       -0.000  -0.000   0.000  -0.000
  119        0.000   0.000   0.000   0.000
  120        0.000  -0.000   0.000  -0.000
  121       -0.000  -0.000   0.000  -0.000
  122        0.000  -0.000   0.000  -0.000
  123       -0.000  -0.000   0.000  -0.000
  124        0.000   0.000   0.000   0.000
  125       -0.000  -0.000   0.000  -0.000
  126        0.000   0.000   0.000   0.000
  127        0.000  -0.000   0.000  -0.000
  128       -0.000  -0.000   0.000  -0.000
  129       -0.000  -0.000   0.000  -0.000
  130        0.000   0.000   0.000   0.000
  131        0.000   0.000   0.000   0.000
  132       -0.000  -0.000   0.000  -0.000
  133        0.000   0.000   0.000   0.000
  134        0.000   0.000   0.000   0.000
  135        0.000   0.000   0.000   0.000
  136       -0.000  -0.000   0.000  -0.000
  137       -0.000  -0.000   0.000  -0.000
  138        0.000   0.000   0.000   0.000
  139       -0.000  -0.000   0.000  -0.000
  140       -0.000  -0.000   0.000  -0.000
  141        0.000   0.000   0.000   0.000
  142        0.000   0.000   0.000   0.000
  143       -0.000  -0.000   0.000  -0.000
  144       -0.000  -0.000   0.000  -0.000
  145       -0.000   0.001   0.000   0.001
  146        0.000   0.000   0.000   0.000
  147       -0.000  -0.000   0.000  -0.000
  148       -0.000  -0.000   0.000  -0.000
  149       -0.000  -0.000   0.000  -0.000
  150        0.000   0.000   0.000   0.000
  151       -0.000   0.002   0.000   0.002
  152        0.000  -0.000   0.000  -0.000
  153       -0.000  -0.000   0.000  -0.000
  154       -0.000  -0.000   0.000  -0.000
  155       -0.000  -0.000   0.000  -0.000
  156       -0.000  -0.000   0.000  -0.000
  157        0.000  -0.000   0.000  -0.000
  158       -0.000  -0.000   0.000  -0.000
  159       -0.000  -0.000   0.000  -0.000
  160       -0.000  -0.000   0.000  -0.000
  161        0.000  -0.000   0.000  -0.000
  162       -0.000  -0.000   0.000  -0.000
  163       -0.000  -0.000   0.000  -0.000
  164       -0.000  -0.000   0.000  -0.000
  165       -0.000  -0.000   0.000  -0.000
  166        0.000  -0.000   0.000  -0.000
  167       -0.000  -0.000   0.000  -0.000
  168        0.000   0.000   0.000   0.000
  169       -0.000  -0.000   0.000  -0.000
  170        0.000   0.000   0.000   0.000
  171        0.000  -0.000   0.000  -0.000
  172        0.000   0.000   0.000   0.000
  173       -0.000  -0.000   0.000  -0.000
  174       -0.000  -0.000   0.000  -0.000
  175       -0.000  -0.000   0.000  -0.000
  176       -0.000  -0.000   0.000  -0.000
  177        0.000   0.000   0.000   0.000
  178       -0.000  -0.000   0.000  -0.000
  179        0.000  -0.000   0.000  -0.000
  180       -0.000  -0.000   0.000  -0.000
  181       -0.000  -0.000   0.000  -0.000
  182       -0.000  -0.000   0.000  -0.000
  183        0.000   0.000   0.000   0.000
  184        0.000   0.000   0.000   0.000
  185       -0.000  -0.000   0.000  -0.000
  186       -0.000  -0.000   0.000  -0.000
  187       -0.000  -0.000   0.000  -0.000
  188       -0.000  -0.000   0.000  -0.000
  189        0.000   0.000   0.000   0.000
  190       -0.000  -0.000   0.000  -0.000
  191       -0.000  -0.000   0.000  -0.000
  192        0.000  -0.000   0.000  -0.000
  193        0.000  -0.000   0.000  -0.000
  194        0.000  -0.000   0.000  -0.000
  195       -0.000  -0.000   0.000  -0.000
  196       -0.000  -0.000   0.000  -0.000
  197       -0.000  -0.000   0.000  -0.000
  198        0.000   0.000   0.000   0.000
  199       -0.000  -0.000   0.000  -0.000
  200       -0.000  -0.000   0.000  -0.000
  201       -0.000  -0.000   0.000  -0.000
  202        0.000  -0.000   0.000  -0.000
  203       -0.000  -0.000   0.000  -0.000
  204       -0.000  -0.000   0.000  -0.000
  205       -0.000  -0.000   0.000  -0.000
  206        0.000  -0.000   0.000  -0.000
  207       -0.000  -0.006   0.000  -0.006
  208       -0.000  -0.000   0.000  -0.000
  209       -0.000  -0.000   0.000  -0.000
  210        0.000   0.000   0.000   0.000
  211       -0.000  -0.000   0.000  -0.000
  212        0.000   0.000   0.000   0.000
  213        0.000   0.000   0.000   0.000
  214       -0.000  -0.000   0.000  -0.000
  215        0.000   0.000   0.000   0.000
  216       -0.000  -0.000   0.000  -0.000
  217        0.000   0.000   0.000   0.000
  218        0.000  -0.000   0.000  -0.000
  219       -0.000  -0.000   0.000  -0.000
  220        0.000  -0.000   0.000  -0.000
  221        0.000   0.000   0.000   0.000
  222       -0.000   0.002   0.000   0.001
  223        0.000   0.000   0.000   0.000
  224        0.000   0.000   0.000   0.000
  225        0.000   0.000   0.000   0.000
  226        0.000   0.000   0.000   0.000
  227        0.000   0.000   0.000   0.000
  228        0.000   0.000   0.000   0.000
  229       -0.000  -0.000   0.000  -0.000
  230        0.000   0.000   0.000   0.000
  231       -0.000   0.001   0.000   0.001
  232       -0.000  -0.000   0.000  -0.000
  233        0.000  -0.000   0.000  -0.000
  234        0.000  -0.000   0.000  -0.000
  235       -0.000  -0.000   0.000  -0.000
  236       -0.000  -0.000   0.000  -0.000
  237       -0.000  -0.000   0.000  -0.000
  238        0.000   0.000   0.000   0.000
  239       -0.000  -0.000   0.000  -0.000
  240        0.000   0.000   0.000   0.000
  241       -0.000  -0.000   0.000  -0.000
  242       -0.000  -0.000   0.000  -0.000
  243        0.000  -0.000   0.000  -0.000
  244        0.000   0.000   0.000   0.000
  245        0.000   0.000   0.000   0.000
  246       -0.000  -0.000   0.000  -0.000
  247       -0.000  -0.000   0.000  -0.000
  248       -0.000  -0.000   0.000  -0.000
  249       -0.000  -0.000   0.000  -0.000
  250        0.000  -0.000   0.000  -0.000
  251        0.000   0.000   0.000   0.000
  252        0.000  -0.000   0.000  -0.000
  253       -0.000  -0.000   0.000  -0.000
  254       -0.000  -0.000   0.000  -0.000
  255        0.000   0.000   0.000   0.000
  256        0.000  -0.000   0.000  -0.000
  257        0.000   0.000   0.000   0.000
--------------------------------------------------
tot          0.003  -0.016   0.951   0.938
 

 total amount of memory used by VASP MPI-rank0   291485. kBytes
=======================================================================

   base      :      30000. kBytes
   nonlr-proj:      49450. kBytes
   fftplans  :      27976. kBytes
   grid      :      34041. kBytes
   one-center:       1026. kBytes
   wavefun   :     148992. kBytes
 
  
  
 General timing and accounting informations for this job:
 ========================================================
  
                  Total CPU time used (sec):     4642.474
                            User time (sec):     4250.417
                          System time (sec):      392.056
                         Elapsed time (sec):     4673.934
  
                   Maximum memory used (kb):      629372.
                   Average memory used (kb):           0.
  
                          Minor page faults:       486114
                          Major page faults:            8
                 Voluntary context switches:        32489
