 vasp.5.4.4.18Apr17-6-g9f103f2a35 (build Jul 16 2019 12:12:28) complex          
  
 executed on             LinuxIFC date 2020.01.06  13:47:19
 running on   96 total cores
 distrk:  each k-point on   96 cores,    1 groups
 distr:  one band on NCORES_PER_BAND=   8 cores,   12 groups


--------------------------------------------------------------------------------------------------------


 INCAR:
 POTCAR:    PAW_PBE Li_sv 10Sep2004               
 POTCAR:    PAW_PBE Ti_pv 07Sep2000               
 POTCAR:    PAW_PBE O 08Apr2002                   
 POTCAR:    PAW_PBE F 08Apr2002                   
 POTCAR:    PAW_PBE Li_sv 10Sep2004               
   VRHFIN =Li: 1s2s2p                                                           
   LEXCH  = PE                                                                  
   EATOM  =   202.7858 eV,   14.9043 Ry                                         
                                                                                
   TITEL  = PAW_PBE Li_sv 10Sep2004                                             
   LULTRA =        F    use ultrasoft PP ?                                      
   IUNSCR =        0    unscreen: 0-lin 1-nonlin 2-no                           
   RPACOR =    0.000    partial core radius                                     
   POMASS =    7.010; ZVAL   =    3.000    mass and valenz                      
   RCORE  =    1.700    outmost cutoff radius                                   
   RWIGS  =    2.050; RWIGS  =    1.085    wigner-seitz radius (au A)           
   ENMAX  =  499.034; ENMIN  =  374.276 eV                                      
   ICORE  =        2    local potential                                         
   LCOR   =        T    correct aug charges                                     
   LPAW   =        T    paw PP                                                  
   EAUG   =  628.945                                                            
   RMAX   =    1.732    core radius for proj-oper                               
   RAUG   =    1.300    factor for augmentation sphere                          
   RDEP   =    1.728    radius for radial grids                                 
   RDEPT  =    1.329    core radius for aug-charge                              
                                                                                
   Atomic configuration                                                         
    4 entries                                                                   
     n  l   j            E        occ.                                          
     1  0  0.50       -51.8549   2.0000                                         
     2  0  0.50        -2.8742   1.0000                                         
     2  1  0.50        -1.3606   0.0000                                         
     3  2  1.50        -1.3606   0.0000                                         
   Description                                                                  
     l       E           TYP  RCUT    TYP  RCUT                                 
     0    -51.8548813     23  1.400                                             
     0     -2.8742052     23  1.700                                             
     1     -1.3605826     23  1.400                                             
     2     -1.3605826     23  1.400                                             
  local pseudopotential read in
  atomic valenz-charges read in
  non local Contribution for L=           0  read in
    real space projection operators read in
  non local Contribution for L=           0  read in
    real space projection operators read in
  non local Contribution for L=           1  read in
    real space projection operators read in
    PAW grid and wavefunctions read in
 
   number of l-projection  operators is LMAX  =           3
   number of lm-projection operators is LMMAX =           5
 
 POTCAR:    PAW_PBE Ti_pv 07Sep2000               
   VRHFIN =Ti: d3 s1                                                            
   LEXCH  = PE                                                                  
   EATOM  =  1042.5995 eV,   76.6289 Ry                                         
                                                                                
   TITEL  = PAW_PBE Ti_pv 07Sep2000                                             
   LULTRA =        F    use ultrasoft PP ?                                      
   IUNSCR =        1    unscreen: 0-lin 1-nonlin 2-no                           
   RPACOR =    2.200    partial core radius                                     
   POMASS =   47.880; ZVAL   =   10.000    mass and valenz                      
   RCORE  =    2.500    outmost cutoff radius                                   
   RWIGS  =    2.500; RWIGS  =    1.323    wigner-seitz radius (au A)           
   ENMAX  =  222.335; ENMIN  =  166.751 eV                                      
   RCLOC  =    1.701    cutoff for local pot                                    
   LCOR   =        T    correct aug charges                                     
   LPAW   =        T    paw PP                                                  
   EAUG   =  482.848                                                            
   DEXC   =    0.000                                                            
   RMAX   =    2.564    core radius for proj-oper                               
   RAUG   =    1.300    factor for augmentation sphere                          
   RDEP   =    2.538    radius for radial grids                                 
   RDEPT  =    1.952    core radius for aug-charge                              
                                                                                
   Atomic configuration                                                         
    8 entries                                                                   
     n  l   j            E        occ.                                          
     1  0  0.50     -4865.3608   2.0000                                         
     2  0  0.50      -533.1368   2.0000                                         
     2  1  1.50      -440.5031   6.0000                                         
     3  0  0.50       -59.3186   2.0000                                         
     3  1  1.50       -35.7012   6.0000                                         
     3  2  2.50        -1.9157   3.0000                                         
     4  0  0.50        -3.7291   1.0000                                         
     4  3  2.50        -1.3606   0.0000                                         
   Description                                                                  
     l       E           TYP  RCUT    TYP  RCUT                                 
     1    -35.7012140     23  2.300                                             
     1     -1.3605826     23  2.300                                             
     2     -1.9156996     23  2.500                                             
     2     -0.4063033     23  2.500                                             
     0     -3.7290856     23  2.500                                             
     0     20.4087390     23  2.500                                             
  local pseudopotential read in
  partial core-charges read in
  partial kinetic energy density read in
  atomic valenz-charges read in
  non local Contribution for L=           1  read in
    real space projection operators read in
  non local Contribution for L=           1  read in
    real space projection operators read in
  non local Contribution for L=           2  read in
    real space projection operators read in
  non local Contribution for L=           2  read in
    real space projection operators read in
  non local Contribution for L=           0  read in
    real space projection operators read in
  non local Contribution for L=           0  read in
    real space projection operators read in
    PAW grid and wavefunctions read in
 
   number of l-projection  operators is LMAX  =           6
   number of lm-projection operators is LMMAX =          18
 
 POTCAR:    PAW_PBE O 08Apr2002                   
   VRHFIN =O: s2p4                                                              
   LEXCH  = PE                                                                  
   EATOM  =   432.3788 eV,   31.7789 Ry                                         
                                                                                
   TITEL  = PAW_PBE O 08Apr2002                                                 
   LULTRA =        F    use ultrasoft PP ?                                      
   IUNSCR =        1    unscreen: 0-lin 1-nonlin 2-no                           
   RPACOR =    1.200    partial core radius                                     
   POMASS =   16.000; ZVAL   =    6.000    mass and valenz                      
   RCORE  =    1.520    outmost cutoff radius                                   
   RWIGS  =    1.550; RWIGS  =    0.820    wigner-seitz radius (au A)           
   ENMAX  =  400.000; ENMIN  =  300.000 eV                                      
   ICORE  =        2    local potential                                         
   LCOR   =        T    correct aug charges                                     
   LPAW   =        T    paw PP                                                  
   EAUG   =  605.392                                                            
   DEXC   =    0.000                                                            
   RMAX   =    1.553    core radius for proj-oper                               
   RAUG   =    1.300    factor for augmentation sphere                          
   RDEP   =    1.550    radius for radial grids                                 
   RDEPT  =    1.329    core radius for aug-charge                              
                                                                                
   Atomic configuration                                                         
    4 entries                                                                   
     n  l   j            E        occ.                                          
     1  0  0.50      -514.6923   2.0000                                         
     2  0  0.50       -23.9615   2.0000                                         
     2  1  0.50        -9.0305   4.0000                                         
     3  2  1.50        -9.5241   0.0000                                         
   Description                                                                  
     l       E           TYP  RCUT    TYP  RCUT                                 
     0    -23.9615318     23  1.200                                             
     0     -9.5240782     23  1.200                                             
     1     -9.0304911     23  1.520                                             
     1      8.1634956     23  1.520                                             
     2     -9.5240782      7  1.500                                             
  local pseudopotential read in
  partial core-charges read in
  partial kinetic energy density read in
  kinetic energy density of atom read in
  atomic valenz-charges read in
  non local Contribution for L=           0  read in
    real space projection operators read in
  non local Contribution for L=           0  read in
    real space projection operators read in
  non local Contribution for L=           1  read in
    real space projection operators read in
  non local Contribution for L=           1  read in
    real space projection operators read in
    PAW grid and wavefunctions read in
 
   number of l-projection  operators is LMAX  =           4
   number of lm-projection operators is LMMAX =           8
 
 POTCAR:    PAW_PBE F 08Apr2002                   
   VRHFIN =F: s2p5                                                              
   LEXCH  = PE                                                                  
   EATOM  =   659.6475 eV,   48.4827 Ry                                         
                                                                                
   TITEL  = PAW_PBE F 08Apr2002                                                 
   LULTRA =        F    use ultrasoft PP ?                                      
   IUNSCR =        1    unscreen: 0-lin 1-nonlin 2-no                           
   RPACOR =    1.200    partial core radius                                     
   POMASS =   18.998; ZVAL   =    7.000    mass and valenz                      
   RCORE  =    1.520    outmost cutoff radius                                   
   RWIGS  =    1.500; RWIGS  =    0.794    wigner-seitz radius (au A)           
   ENMAX  =  400.000; ENMIN  =  300.000 eV                                      
   ICORE  =        2    local potential                                         
   LCOR   =        T    correct aug charges                                     
   LPAW   =        T    paw PP                                                  
   EAUG   =  613.614                                                            
   RMAX   =    1.555    core radius for proj-oper                               
   RAUG   =    1.300    factor for augmentation sphere                          
   RDEP   =    1.539    radius for radial grids                                 
   RDEPT  =    1.299    core radius for aug-charge                              
                                                                                
   Atomic configuration                                                         
    4 entries                                                                   
     n  l   j            E        occ.                                          
     1  0  0.50      -663.3661   2.0000                                         
     2  0  0.50       -29.8995   2.0000                                         
     2  1  0.50       -11.1114   5.0000                                         
     3  2  1.50       -10.8847   0.0000                                         
   Description                                                                  
     l       E           TYP  RCUT    TYP  RCUT                                 
     0    -29.8995018     23  1.200                                             
     0     -9.5240782     23  1.200                                             
     1    -11.1113914     23  1.520                                             
     1      1.3605826     23  1.520                                             
     2    -10.8846608      7  1.500                                             
  local pseudopotential read in
  partial core-charges read in
  partial kinetic energy density read in
  atomic valenz-charges read in
  non local Contribution for L=           0  read in
    real space projection operators read in
  non local Contribution for L=           0  read in
    real space projection operators read in
  non local Contribution for L=           1  read in
    real space projection operators read in
  non local Contribution for L=           1  read in
    real space projection operators read in
    PAW grid and wavefunctions read in
 
   number of l-projection  operators is LMAX  =           4
   number of lm-projection operators is LMMAX =           8
 
 Optimization of the real space projectors (new method)

 maximal supplied QI-value         = 22.11
 optimisation between [QCUT,QGAM] = [ 11.28, 22.77] = [ 35.61,145.23] Ry 
 Optimized for a Real-space Cutoff    1.31 Angstroem

   l    n(q)    QCUT    max X(q) W(low)/X(q) W(high)/X(q)  e(spline) 
   0      9    11.276    10.506    0.19E-04    0.17E-04    0.32E-07
   0      9    11.276     8.367    0.38E-04    0.40E-04    0.65E-07
   1      8    11.276     8.983    0.55E-04    0.98E-04    0.20E-06
 Optimization of the real space projectors (new method)

 maximal supplied QI-value         = 15.12
 optimisation between [QCUT,QGAM] = [ 11.34, 22.83] = [ 36.00,145.93] Ry 
 Optimized for a Real-space Cutoff    1.56 Angstroem

   l    n(q)    QCUT    max X(q) W(low)/X(q) W(high)/X(q)  e(spline) 
   1     10    11.338     4.216    0.27E-04    0.12E-04    0.66E-07
   1     10    11.338     5.422    0.81E-04    0.24E-04    0.19E-06
   2     10    11.338    72.084    0.64E-04    0.21E-03    0.51E-06
   2     10    11.338    65.965    0.63E-04    0.21E-03    0.50E-06
   0     11    11.338    41.531    0.33E-04    0.54E-04    0.13E-06
   0     11    11.338    16.290    0.26E-04    0.41E-04    0.11E-06
 Optimization of the real space projectors (new method)

 maximal supplied QI-value         = 24.76
 optimisation between [QCUT,QGAM] = [ 11.39, 22.77] = [ 36.31,145.25] Ry 
 Optimized for a Real-space Cutoff    1.20 Angstroem

   l    n(q)    QCUT    max X(q) W(low)/X(q) W(high)/X(q)  e(spline) 
   0      8    11.387    20.381    0.89E-04    0.31E-03    0.27E-06
   0      8    11.387    15.268    0.93E-04    0.32E-03    0.29E-06
   1      8    11.387     5.964    0.53E-04    0.28E-03    0.29E-06
   1      8    11.387     5.382    0.37E-04    0.22E-03    0.26E-06
 Optimization of the real space projectors (new method)

 maximal supplied QI-value         = 24.76
 optimisation between [QCUT,QGAM] = [ 11.39, 22.77] = [ 36.31,145.25] Ry 
 Optimized for a Real-space Cutoff    1.20 Angstroem

   l    n(q)    QCUT    max X(q) W(low)/X(q) W(high)/X(q)  e(spline) 
   0      8    11.387    14.049    0.69E-04    0.23E-03    0.18E-06
   0      8    11.387     8.945    0.88E-04    0.30E-03    0.26E-06
   1      8    11.387     7.086    0.62E-04    0.27E-03    0.27E-06
   1      8    11.387     6.747    0.46E-04    0.23E-03    0.25E-06

 ----------------------------------------------------------------------------- 
|                                                                             |
|  ADVICE TO THIS USER RUNNING 'VASP/VAMP'   (HEAR YOUR MASTER'S VOICE ...):  |
|                                                                             |
|      You enforced a specific xc-type in the INCAR file,                     |
|      a different type was found on the POTCAR file                          |
|          I HOPE YOU KNOW, WHAT YOU ARE  DOING                               |
|                                                                             |
 ----------------------------------------------------------------------------- 

  PAW_PBE Li_sv 10Sep2004               :
 energy of atom  1       EATOM= -202.7858
 kinetic energy error for atom=    0.0143 (will be added to EATOM!!)
  PAW_PBE Ti_pv 07Sep2000               :
 energy of atom  2       EATOM=-1042.5995
 kinetic energy error for atom=    0.0024 (will be added to EATOM!!)
  PAW_PBE O 08Apr2002                   :
 energy of atom  3       EATOM= -432.3788
 kinetic energy error for atom=    0.0224 (will be added to EATOM!!)
  PAW_PBE F 08Apr2002                   :
 energy of atom  4       EATOM= -659.6475
 kinetic energy error for atom=    0.0354 (will be added to EATOM!!)
 
 
 POSCAR: config 44                               
  positions in direct lattice
  velocities in cartesian coordinates
 exchange correlation table for  LEXCH =       14
   RHO(1)=    0.500       N(1)  =     2000
   RHO(2)=  100.500       N(2)  =     4000

 VTST: version 3.2, (02/03/18)

 CHAIN: initializing optimizer
 
 OPT: Using VASP QUASI-newton optimizer
 CHAIN: Read ICHAIN            0
 
 POSCAR: config 44                               
  positions in direct lattice
  velocities in cartesian coordinates
 


--------------------------------------------------------------------------------------------------------


 ion  position               nearest neighbor table
   1  0.637  0.625  0.913-  94 2.00  90 2.03  56 2.89
   2  0.996  0.996  0.995- 118 1.86  68 1.89 103 1.89 171 2.03 212 2.04 130 2.04
   3  1.000  0.992  0.494- 119 1.80  67 1.83 172 1.95 193 1.96 131 2.01 213 2.08
   4  0.007  0.496  0.997-  89 1.83 117 1.86 138 1.93 132 1.98 214 2.01 194 2.06
   5  0.994  0.502  0.507-  66 1.83 104 1.84 215 1.92 223 2.00 173 2.01 137 2.03
   6  0.496  0.993  0.999- 121 1.83 101 1.84 140 1.95 133 1.97 174 2.02 216 2.04
   7  0.501  0.008  0.500- 112 1.77 191 1.91 134 1.91 139 1.92 175 1.93 225 2.01
   8  0.504  0.495  0.996- 120 1.86  70 1.89  90 1.92 135 2.02 192 2.02 217 2.05
   9  0.492  0.499  0.495- 102 1.81  69 1.86 224 1.97 218 1.98 136 2.01 176 2.06
  10  0.007  0.003  0.256-  91 1.83  67 1.86 219 1.95 227 1.97 130 2.00 197 2.06
  11  0.001  0.008  0.757-  68 1.79 113 1.84 177 1.95 198 1.99 228 2.04 131 2.06
  12  0.994  0.494  0.251- 107 1.84 122 1.86 137 1.93 132 1.96 220 2.00 178 2.02
  13  0.993  0.499  0.742- 108 1.82  66 1.83 226 1.93 221 1.96 138 2.02 179 2.04
  14  0.506  0.008  0.250- 114 1.82  92 1.84 133 1.92 139 1.97 195 2.00 231 2.05
  15  0.493  0.005  0.752- 105 1.81 115 1.84 140 1.93 134 2.00 232 2.01 180 2.03
  16  0.493  0.497  0.257-  69 1.82 106 1.84 229 1.95 222 1.99 135 2.03 181 2.04
  17  0.500  0.505  0.757-  70 1.81 116 1.87 182 1.95 196 1.96 230 2.03 136 2.05
  18  0.996  0.258  0.001- 117 1.82 110 1.88 141 1.96 146 1.96 183 2.01 212 2.02
  19  0.999  0.248  0.491-  74 1.78 213 1.91 184 1.93 202 1.93 223 1.94 142 2.01
  20  0.000  0.759  0.006- 118 1.81  71 1.86 203 1.93 185 1.97 148 2.04 214 2.08
  21  0.997  0.756  0.506-  72 1.82 119 1.83 204 1.94 186 1.96 215 2.02 147 2.03
  22  0.496  0.258  0.001- 120 1.82 109 1.84 150 1.95 143 1.97 187 2.03 216 2.04
  23  0.508  0.245  0.499-  93 1.80 112 1.90 144 1.92 149 1.94 224 1.97 199 2.00
  24  0.508  0.755  0.998-  94 1.78 121 1.86 152 1.96 145 1.99 217 2.04 200 2.05
  25  0.506  0.753  0.508-  73 1.79  95 1.83 225 1.96 218 1.96 201 2.01 151 2.05
  26  1.000  0.258  0.255- 122 1.80  74 1.88 209 1.94 188 1.95 141 1.99 219 2.02
  27  0.006  0.242  0.747- 113 1.80  96 1.83 142 1.96 146 1.97 226 2.05 210 2.05
  28  0.007  0.749  0.243-  71 1.82  97 1.84 220 1.95 227 1.98 147 2.04 211 2.06
  29  0.991  0.751  0.744- 111 1.80  72 1.86 228 1.94 221 1.98 148 2.02 189 2.03
  30  0.508  0.242  0.251-  98 1.82 114 1.82 143 1.93 149 1.96 229 2.01 205 2.02
  31  0.507  0.243  0.749-  99 1.84 115 1.84 150 1.93 144 1.97 206 2.02 230 2.02
  32  0.507  0.752  0.252- 100 1.79 151 1.92 231 1.93 145 1.94 222 1.94 207 2.00
  33  0.500  0.743  0.742- 116 1.82  73 1.83 190 1.93 208 1.96 152 2.02 232 2.04
  34  0.257  0.998  0.006-  75 1.85 101 1.85 246 1.94 233 1.97 171 2.02 157 2.04
  35  0.250  0.994  0.506- 128 1.83  76 1.84 172 1.94 191 1.98 156 2.02 234 2.02
  36  0.245  0.509  0.997- 123 1.82  89 1.85 159 1.93 153 1.97 192 2.02 245 2.04
  37  0.254  0.494  0.506-  77 1.85 102 1.88 127 1.88 173 2.03 235 2.04 158 2.05
  38  0.758  0.000  0.995- 103 1.80  81 1.88 249 1.91 236 1.96 154 2.05 174 2.06
  39  0.751  0.006  0.495-  80 1.83 124 1.84 193 1.93 175 1.99 155 1.99 250 2.02
  40  0.744  0.500  0.007-  78 1.84  90 1.85 237 1.91 247 1.95 194 2.02 161 2.09
  41  0.755  0.497  0.505-  79 1.83 104 1.85 248 1.95 238 1.98 176 2.01 160 2.02
  42  0.245  0.003  0.244-  75 1.83  91 1.85 239 1.94 252 1.97 156 2.04 195 2.05
  43  0.257  0.998  0.744-  76 1.84 105 1.84 253 1.93 240 1.97 177 2.02 157 2.02
  44  0.255  0.492  0.251- 129 1.83 106 1.84 158 1.93 153 1.97 241 2.03 178 2.04
  45  0.246  0.506  0.741-  77 1.79 125 1.83 179 1.95 196 1.98 251 2.02 159 2.06
  46  0.745  0.000  0.256-  92 1.85  80 1.86 256 1.94 242 1.96 154 1.99 197 1.99
  47  0.748  0.005  0.757-  81 1.81 126 1.85 180 1.95 198 1.97 257 2.03 155 2.06
  48  0.756  0.499  0.244-  78 1.83 107 1.84 243 1.95 254 1.95 181 2.02 160 2.02
  49  0.757  0.497  0.742- 108 1.82  79 1.83 255 1.93 244 1.97 182 2.04 161 2.05
  50  0.257  0.252  0.006- 109 1.84  82 1.86 245 1.93 233 1.97 168 2.01 183 2.04
  51  0.253  0.257  0.505- 127 1.81  83 1.85 199 1.96 184 2.01 167 2.03 234 2.04
  52  0.253  0.743  0.993- 123 1.83  86 1.83 200 1.93 185 1.96 162 2.03 246 2.04
  53  0.251  0.755  0.493-  85 1.83 128 1.86 201 1.95 186 1.97 235 2.00 163 2.04
  54  0.757  0.252  0.007- 110 1.81  84 1.86 236 1.93 247 1.96 170 2.02 187 2.03
  55  0.743  0.242  0.498- 124 1.82  93 1.84 169 1.93 164 1.96 248 2.01 202 2.03
  56  0.746  0.751  0.999-  88 1.97  94 1.99 249 2.00 165 2.02 203 2.02 237 2.03   1 2.89
  57  0.741  0.752  0.496-  95 1.82  87 1.86 250 1.94 238 1.97 166 1.98 204 2.03
  58  0.251  0.258  0.244- 129 1.82  82 1.83 205 1.96 188 1.99 167 2.03 239 2.03
  59  0.244  0.252  0.744-  83 1.84  96 1.84 251 1.94 240 1.97 168 2.03 206 2.04
  60  0.244  0.748  0.255-  97 1.83  85 1.84 241 1.94 252 1.97 162 2.02 207 2.06
  61  0.246  0.742  0.756- 125 1.82  86 1.84 189 1.92 208 1.97 163 2.04 253 2.04
  62  0.743  0.251  0.242-  84 1.80  98 1.83 254 1.94 242 1.94 209 2.04 169 2.06
  63  0.744  0.241  0.751- 126 1.81  99 1.85 170 1.94 164 2.00 210 2.01 255 2.06
  64  0.746  0.751  0.259-  87 1.81 100 1.90 243 1.95 256 1.95 211 1.98 165 2.00
  65  0.756  0.749  0.758-  88 1.78 111 1.85 257 1.94 244 1.99 190 2.04 166 2.08
  66  0.008  0.502  0.624-  13 1.83   5 1.83
  67  0.995  0.007  0.376-   3 1.83  10 1.86
  68  0.999  0.003  0.873-  11 1.79   2 1.89
  69  0.499  0.494  0.375-  16 1.82   9 1.86
  70  0.495  0.501  0.874-  17 1.81   8 1.89
  71  0.998  0.746  0.126-  28 1.82  20 1.86
  72  0.000  0.746  0.624-  21 1.82  29 1.86
  73  0.498  0.756  0.623-  25 1.79  33 1.83
  74  0.995  0.247  0.376-  19 1.78  26 1.88
  75  0.256  0.003  0.126-  42 1.83  34 1.85
  76  0.254  0.004  0.625-  43 1.84  35 1.84
  77  0.238  0.495  0.626-  45 1.79  37 1.85
  78  0.747  0.490  0.126-  48 1.83  40 1.84
  79  0.746  0.490  0.623-  41 1.83  49 1.83
  80  0.751  0.998  0.377-  39 1.83  46 1.86
  81  0.747  0.998  0.874-  47 1.81  38 1.88
  82  0.247  0.250  0.125-  58 1.83  50 1.86
  83  0.254  0.250  0.625-  59 1.84  51 1.85
  84  0.743  0.258  0.126-  62 1.80  54 1.86
  85  0.255  0.746  0.374-  53 1.83  60 1.84
  86  0.251  0.752  0.875-  52 1.83  61 1.84
  87  0.752  0.754  0.375-  64 1.81  57 1.86
  88  0.740  0.737  0.872-  65 1.78  56 1.97
  89  0.125  0.509  0.994-   4 1.83  36 1.85
  90  0.626  0.521  0.992-  40 1.85   8 1.92   1 2.03
  91  0.126  0.004  0.253-  10 1.83  42 1.85
  92  0.625  0.001  0.250-  14 1.84  46 1.85
  93  0.625  0.255  0.496-  23 1.80  55 1.84
  94  0.620  0.725  0.993-  24 1.78  56 1.99   1 2.00
  95  0.624  0.761  0.496-  57 1.82  25 1.83
  96  0.125  0.251  0.749-  27 1.83  59 1.84
  97  0.125  0.752  0.252-  60 1.83  28 1.84
  98  0.626  0.245  0.261-  30 1.82  62 1.83
  99  0.625  0.252  0.745-  31 1.84  63 1.85
 100  0.623  0.755  0.253-  32 1.79  64 1.90
 101  0.377  0.994  0.992-   6 1.84  34 1.85
 102  0.375  0.504  0.505-   9 1.81  37 1.88
 103  0.874  0.997  0.001-  38 1.80   2 1.89
 104  0.875  0.500  0.499-   5 1.84  41 1.85
 105  0.376  0.996  0.757-  15 1.81  43 1.84
 106  0.374  0.496  0.247-  44 1.84  16 1.84
 107  0.875  0.498  0.251-  12 1.84  48 1.84
 108  0.875  0.509  0.746-  49 1.82  13 1.82
 109  0.377  0.255  0.003-  22 1.84  50 1.84
 110  0.874  0.255  0.005-  54 1.81  18 1.88
 111  0.875  0.743  0.752-  29 1.80  65 1.85
 112  0.509  0.122  0.498-   7 1.77  23 1.90
 113  0.995  0.126  0.743-  27 1.80  11 1.84
 114  0.495  0.125  0.261-  14 1.82  30 1.82
 115  0.501  0.124  0.745-  15 1.84  31 1.84
 116  0.505  0.626  0.748-  33 1.82  17 1.87
 117  0.006  0.376  0.004-  18 1.82   4 1.86
 118  0.010  0.876  0.002-  20 1.81   2 1.86
 119  1.000  0.875  0.498-   3 1.80  21 1.83
 120  0.510  0.375  0.005-  22 1.82   8 1.86
 121  0.512  0.875  0.002-   6 1.83  24 1.86
 122  0.007  0.374  0.247-  26 1.80  12 1.86
 123  0.262  0.625  0.002-  36 1.82  52 1.83
 124  0.745  0.125  0.504-  55 1.82  39 1.84
 125  0.246  0.624  0.750-  61 1.82  45 1.83
 126  0.751  0.124  0.745-  63 1.81  47 1.85
 127  0.250  0.373  0.493-  51 1.81  37 1.88
 128  0.250  0.876  0.500-  35 1.83  53 1.86
 129  0.241  0.375  0.257-  58 1.82  44 1.83
 130  0.001  0.003  0.127-  10 2.00   2 2.04
 131  0.006  0.997  0.624-   3 2.01  11 2.06
 132  0.999  0.509  0.125-  12 1.96   4 1.98
 133  0.494  0.006  0.126-  14 1.92   6 1.97
 134  0.497  0.991  0.623-   7 1.91  15 2.00
 135  0.505  0.508  0.126-   8 2.02  16 2.03
 136  0.508  0.499  0.624-   9 2.01  17 2.05
 137  0.003  0.495  0.375-  12 1.93   5 2.03
 138  0.994  0.497  0.873-   4 1.93  13 2.02
 139  0.504  0.992  0.377-   7 1.92  14 1.97
 140  0.516  0.004  0.875-  15 1.93   6 1.95
 141  0.008  0.246  0.127-  18 1.96  26 1.99
 142  0.999  0.259  0.621-  27 1.96  19 2.01
 143  0.508  0.240  0.126-  30 1.93  22 1.97
 144  0.493  0.250  0.623-  23 1.92  31 1.97
 145  0.499  0.747  0.127-  32 1.94  24 1.99
 146  0.996  0.251  0.874-  18 1.96  27 1.97
 147  0.994  0.751  0.375-  21 2.03  28 2.04
 148  0.005  0.751  0.874-  29 2.02  20 2.04
 149  0.493  0.262  0.376-  23 1.94  30 1.96
 150  0.502  0.250  0.874-  31 1.93  22 1.95
 151  0.491  0.752  0.375-  32 1.92  25 2.05
 152  0.496  0.748  0.872-  24 1.96  33 2.02
 153  0.244  0.494  0.124-  44 1.97  36 1.97
 154  0.750  0.009  0.128-  46 1.99  38 2.05
 155  0.745  0.996  0.624-  39 1.99  47 2.06
 156  0.253  0.001  0.376-  35 2.02  42 2.04
 157  0.243  0.994  0.874-  43 2.02  34 2.04
 158  0.248  0.512  0.375-  44 1.93  37 2.05
 159  0.260  0.498  0.873-  36 1.93  45 2.06
 160  0.746  0.506  0.375-  48 2.02  41 2.02
 161  0.748  0.514  0.873-  49 2.05  40 2.09
 162  0.252  0.754  0.125-  60 2.02  52 2.03
 163  0.248  0.751  0.625-  61 2.04  53 2.04
 164  0.753  0.261  0.623-  55 1.96  63 2.00
 165  0.751  0.747  0.129-  64 2.00  56 2.02
 166  0.749  0.748  0.623-  57 1.98  65 2.08
 167  0.252  0.244  0.374-  58 2.03  51 2.03
 168  0.252  0.252  0.875-  50 2.01  59 2.03
 169  0.762  0.244  0.374-  55 1.93  62 2.06
 170  0.751  0.245  0.876-  63 1.94  54 2.02
 171  0.127  0.008  0.002-  34 2.02   2 2.03
 172  0.125  0.008  0.497-  35 1.94   3 1.95
 173  0.123  0.502  0.491-   5 2.01  37 2.03
 174  0.625  0.011  0.009-   6 2.02  38 2.06
 175  0.624  0.984  0.502-   7 1.93  39 1.99
 176  0.625  0.494  0.497-  41 2.01   9 2.06
 177  0.127  0.002  0.748-  11 1.95  43 2.02
 178  0.124  0.508  0.249-  12 2.02  44 2.04
 179  0.123  0.492  0.763-  45 1.95  13 2.04
 180  0.623  0.994  0.742-  47 1.95  15 2.03
 181  0.625  0.499  0.251-  48 2.02  16 2.04
 182  0.626  0.492  0.756-  17 1.95  49 2.04
 183  0.126  0.246  0.995-  18 2.01  50 2.04
 184  0.124  0.243  0.499-  19 1.93  51 2.01
 185  0.126  0.738  0.002-  52 1.96  20 1.97
 186  0.124  0.747  0.495-  21 1.96  53 1.97
 187  0.626  0.244  0.995-  22 2.03  54 2.03
 188  0.125  0.237  0.256-  26 1.95  58 1.99
 189  0.123  0.754  0.750-  61 1.92  29 2.03
 190  0.624  0.756  0.745-  33 1.93  65 2.04
 191  0.377  0.006  0.496-   7 1.91  35 1.98
 192  0.374  0.488  0.008-   8 2.02  36 2.02
 193  0.875  0.004  0.511-  39 1.93   3 1.96
 194  0.873  0.490  0.998-  40 2.02   4 2.06
 195  0.378  0.996  0.257-  14 2.00  42 2.05
 196  0.374  0.500  0.739-  17 1.96  45 1.98
 197  0.874  0.999  0.247-  46 1.99  10 2.06
 198  0.874  0.993  0.742-  47 1.97  11 1.99
 199  0.379  0.244  0.496-  51 1.96  23 2.00
 200  0.376  0.764  0.002-  52 1.93  24 2.05
 201  0.376  0.744  0.502-  53 1.95  25 2.01
 202  0.874  0.252  0.505-  19 1.93  55 2.03
 203  0.876  0.764  0.995-  20 1.93  56 2.02
 204  0.872  0.744  0.503-  21 1.94  57 2.03
 205  0.378  0.259  0.247-  58 1.96  30 2.02
 206  0.376  0.250  0.754-  31 2.02  59 2.04
 207  0.377  0.748  0.246-  32 2.00  60 2.06
 208  0.374  0.754  0.748-  33 1.96  61 1.97
 209  0.874  0.256  0.244-  26 1.94  62 2.04
 210  0.874  0.254  0.747-  63 2.01  27 2.05
 211  0.873  0.747  0.250-  64 1.98  28 2.06
 212  1.000  0.128  0.001-  18 2.02   2 2.04
 213  0.995  0.126  0.510-  19 1.91   3 2.08
 214  0.988  0.625  0.994-   4 2.01  20 2.08
 215  0.000  0.626  0.492-   5 1.92  21 2.02
 216  0.499  0.125  0.998-  22 2.04   6 2.04
 217  0.480  0.626  0.998-  24 2.04   8 2.05
 218  0.507  0.626  0.498-  25 1.96   9 1.98
 219  0.991  0.128  0.246-  10 1.95  26 2.02
 220  0.999  0.623  0.258-  28 1.95  12 2.00
 221  0.011  0.624  0.755-  13 1.96  29 1.98
 222  0.502  0.626  0.254-  32 1.94  16 1.99
 223  0.005  0.374  0.498-  19 1.94   5 2.00
 224  0.494  0.372  0.506-   9 1.97  23 1.97
 225  0.488  0.878  0.495-  25 1.96   7 2.01
 226  0.995  0.375  0.751-  13 1.93  27 2.05
 227  0.996  0.876  0.251-  10 1.97  28 1.98
 228  1.000  0.876  0.748-  29 1.94  11 2.04
 229  0.505  0.372  0.240-  16 1.95  30 2.01
 230  0.496  0.374  0.746-  31 2.02  17 2.03
 231  0.496  0.876  0.247-  32 1.93  14 2.05
 232  0.502  0.875  0.756-  15 2.01  33 2.04
 233  0.253  0.125  0.993-  50 1.97  34 1.97
 234  0.252  0.125  0.497-  35 2.02  51 2.04
 235  0.246  0.626  0.505-  53 2.00  37 2.04
 236  0.751  0.127  0.001-  54 1.93  38 1.96
 237  0.769  0.622  0.005-  40 1.91  56 2.03
 238  0.744  0.625  0.501-  57 1.97  41 1.98
 239  0.261  0.127  0.253-  42 1.94  58 2.03
 240  0.253  0.125  0.758-  43 1.97  59 1.97
 241  0.251  0.624  0.240-  60 1.94  44 2.03
 242  0.759  0.126  0.251-  62 1.94  46 1.96
 243  0.746  0.625  0.249-  64 1.95  48 1.95
 244  0.735  0.623  0.740-  49 1.97  65 1.99
 245  0.243  0.376  0.997-  50 1.93  36 2.04
 246  0.239  0.874  0.004-  34 1.94  52 2.04
 247  0.739  0.376  0.986-  40 1.95  54 1.96
 248  0.753  0.372  0.487-  41 1.95  55 2.01
 249  0.735  0.879  0.012-  38 1.91  56 2.00
 250  0.760  0.876  0.505-  57 1.94  39 2.02
 251  0.254  0.376  0.756-  59 1.94  45 2.02
 252  0.255  0.876  0.251-  42 1.97  60 1.97
 253  0.246  0.874  0.745-  43 1.93  61 2.04
 254  0.748  0.374  0.265-  62 1.94  48 1.95
 255  0.755  0.374  0.761-  49 1.93  63 2.06
 256  0.754  0.876  0.242-  46 1.94  64 1.95
 257  0.751  0.874  0.747-  65 1.94  47 2.03
 

IMPORTANT INFORMATION: All symmetrisations will be switched off!
NOSYMM: (Re-)initialisation of all symmetry stuff for point group C_1.

 
 
 KPOINTS: Title                                   

Automatic generation of k-mesh.
Space group operators:
 irot       det(A)        alpha          n_x          n_y          n_z        tau_x        tau_y        tau_z
    1     1.000000     0.000001     1.000000     0.000000     0.000000     0.000000     0.000000     0.000000
 
 Subroutine IBZKPT returns following result:
 ===========================================
 
 Found      4 irreducible k-points:
 
 Following reciprocal coordinates:
            Coordinates               Weight
  0.250000  0.250000  0.250000      2.000000
 -0.250000  0.250000  0.250000      2.000000
  0.250000 -0.250000  0.250000      2.000000
 -0.250000 -0.250000  0.250000      2.000000
 
 Following cartesian coordinates:
            Coordinates               Weight
  0.016206  0.016206  0.016206      2.000000
 -0.016206  0.016206  0.016206      2.000000
  0.016206 -0.016206  0.016206      2.000000
 -0.016206 -0.016206  0.016206      2.000000
 


--------------------------------------------------------------------------------------------------------




 Dimension of arrays:
   k-points           NKPTS =      4   k-points in BZ     NKDIM =      4   number of bands    NBANDS=   1164
   number of dos      NEDOS =   3001   number of ions     NIONS =    257
   non local maximal  LDIM  =      6   non local SUM 2l+1 LMDIM =     18
   total plane-waves  NPLWV = ******
   max r-space proj   IRMAX =   7595   max aug-charges    IRDMAX= 146383
   dimension x,y,z NGX =   120 NGY =  120 NGZ =  120
   dimension x,y,z NGXF=   240 NGYF=  240 NGZF=  240
   support grid    NGXF=   480 NGYF=  480 NGZF=  480
   ions per type =               1  64  64 128
   NGX,Y,Z   is equivalent  to a cutoff of  12.93, 12.93, 12.93 a.u.
   NGXF,Y,Z  is equivalent  to a cutoff of  25.86, 25.86, 25.86 a.u.

 SYSTEM =  LTO                                     
 POSCAR =  config 44                               

 Startparameter for this run:
   NWRITE =      2    write-flag & timer
   PREC   = accura    normal or accurate (medium, high low for compatibility)
   ISTART =      1    job   : 0-new  1-cont  2-samecut
   ICHARG =      0    charge: 1-file 2-atom 10-const
   ISPIN  =      2    spin polarized calculation?
   LNONCOLLINEAR =      F non collinear calculations
   LSORBIT =      F    spin-orbit coupling
   INIWAV =      1    electr: 0-lowe 1-rand  2-diag
   LASPH  =      T    aspherical Exc in radial PAW
   METAGGA=      F    non-selfconsistent MetaGGA calc.

 Electronic Relaxation 1
   ENCUT  =  500.0 eV  36.75 Ry    6.06 a.u.  28.13 28.13 28.13*2*pi/ulx,y,z
   ENINI  =  500.0     initial cutoff
   ENAUG  =  628.9 eV  augmentation charge cutoff
   NELM   =     60;   NELMIN=  2; NELMDL=  0     # of ELM steps 
   EDIFF  = 0.1E-05   stopping-criterion for ELM
   LREAL  =      T    real-space projection
   NLSPLINE    = F    spline interpolate recip. space projectors
   LCOMPAT=      F    compatible to vasp.4.4
   GGA_COMPAT  = T    GGA compatible to vasp.4.4-vasp.4.6
   LMAXPAW     = -100 max onsite density
   LMAXMIX     =    4 max onsite mixed and CHGCAR
   VOSKOWN=      0    Vosko Wilk Nusair interpolation
   ROPT   =   -0.00010  -0.00010  -0.00010  -0.00010
 Ionic relaxation
   EDIFFG = -.5E-01   stopping-criterion for IOM
   NSW    =    100    number of steps for IOM
   NBLOCK =      1;   KBLOCK =    100    inner block; outer block 
   IBRION =      1    ionic relax: 0-MD 1-quasi-New 2-CG
   NFREE  =      0    steps in history (QN), initial steepest desc. (CG)
   ISIF   =      2    stress and relaxation
   IWAVPR =     11    prediction:  0-non 1-charg 2-wave 3-comb
   ISYM   =      0    0-nonsym 1-usesym 2-fastsym
   LCORR  =      T    Harris-Foulkes like correction to forces

   POTIM  = 0.5000    time-step for ionic-motion
   TEIN   =    0.0    initial temperature
   TEBEG  =    0.0;   TEEND  =   0.0 temperature during run
   SMASS  =  -3.00    Nose mass-parameter (am)
   estimated Nose-frequenzy (Omega)   =  0.10E-29 period in steps =****** mass=  -0.544E-26a.u.
   SCALEE = 1.0000    scale energy and forces
   NPACO  =    256;   APACO  = 16.0  distance and # of slots for P.C.
   PSTRESS=    0.0 pullay stress

  Mass of Ions in am
   POMASS =   7.01 47.88 16.00 19.00
  Ionic Valenz
   ZVAL   =   3.00 10.00  6.00  7.00
  Atomic Wigner-Seitz radii
   RWIGS  =  -1.00 -1.00 -1.00 -1.00
  virtual crystal weights 
   VCA    =   1.00  1.00  1.00  1.00
   NELECT =    1923.0000    total number of electrons
   NUPDOWN=       1.0000    fix difference up-down

 DOS related values:
   EMIN   =  10.00;   EMAX   =-10.00  energy-range for DOS
   EFERMI =   0.00
   ISMEAR =     0;   SIGMA  =   0.01  broadening in eV -4-tet -1-fermi 0-gaus

 Electronic relaxation 2 (details)
   IALGO  =     38    algorithm
   LDIAG  =      T    sub-space diagonalisation (order eigenvalues)
   LSUBROT=      F    optimize rotation matrix (better conditioning)
   TURBO    =      0    0=normal 1=particle mesh
   IRESTART =      0    0=no restart 2=restart with 2 vectors
   NREBOOT  =      0    no. of reboots
   NMIN     =      0    reboot dimension
   EREF     =   0.00    reference energy to select bands
   IMIX   =      4    mixing-type and parameters
     AMIX     =   0.40;   BMIX     =  1.00
     AMIX_MAG =   1.60;   BMIX_MAG =  1.00
     AMIN     =   0.10
     WC   =   100.;   INIMIX=   1;  MIXPRE=   1;  MAXMIX= -45

 Intra band minimization:
   WEIMIN = 0.0010     energy-eigenvalue tresh-hold
   EBREAK =  0.21E-09  absolut break condition
   DEPER  =   0.30     relativ break condition  

   TIME   =   0.40     timestep for ELM

  volume/ion in A,a.u.               =      14.28        96.39
  Fermi-wavevector in a.u.,A,eV,Ry     =   1.319690  2.493853 23.695660  1.741582
  Thomas-Fermi vector in A             =   2.449570
 
 Write flags
   LWAVE        =      T    write WAVECAR
   LDOWNSAMPLE  =      F    k-point downsampling of WAVECAR
   LCHARG       =      T    write CHGCAR
   LVTOT        =      F    write LOCPOT, total local potential
   LVHAR        =      F    write LOCPOT, Hartree potential only
   LELF         =      F    write electronic localiz. function (ELF)
   LORBIT       =     11    0 simple, 1 ext, 2 COOP (PROOUT), +10 PAW based schemes


 Dipole corrections
   LMONO  =      F    monopole corrections only (constant potential shift)
   LDIPOL =      F    correct potential (dipole corrections)
   IDIPOL =      0    1-x, 2-y, 3-z, 4-all directions 
   EPSILON=  1.0000000 bulk dielectric constant

 LDA+U is selected, type is set to LDAUTYPE =  2
   angular momentum for each species LDAUL =    -1    2   -1   -1
   U (eV)           for each species LDAUU =   0.0  4.2  0.0  0.0
   J (eV)           for each species LDAUJ =   0.0  0.0  0.0  0.0
 Exchange correlation treatment:
   GGA     =    PS    GGA type
   LEXCH   =    14    internal setting for exchange type
   VOSKOWN=      0    Vosko Wilk Nusair interpolation
   LHFCALC =     F    Hartree Fock is set to
   LHFONE  =     F    Hartree Fock one center treatment
   AEXX    =    0.0000 exact exchange contribution

 Linear response parameters
   LEPSILON=     F    determine dielectric tensor
   LRPA    =     F    only Hartree local field effects (RPA)
   LNABLA  =     F    use nabla operator in PAW spheres
   LVEL    =     F    velocity operator in full k-point grid
   LINTERFAST=   F  fast interpolation
   KINTER  =     0    interpolate to denser k-point grid
   CSHIFT  =0.1000    complex shift for real part using Kramers Kronig
   OMEGAMAX=  -1.0    maximum frequency
   DEG_THRESHOLD= 0.2000000E-02 threshold for treating states as degnerate
   RTIME   =   -0.100 relaxation time in fs
  (WPLASMAI=    0.000 imaginary part of plasma frequency in eV, 0.658/RTIME)
   DFIELD  = 0.0000000 0.0000000 0.0000000 field for delta impulse in time
 
 Orbital magnetization related:
   ORBITALMAG=     F  switch on orbital magnetization
   LCHIMAG   =     F  perturbation theory with respect to B field
   DQ        =  0.001000  dq finite difference perturbation B field
   LLRAUG    =     F  two centre corrections for induced B field



--------------------------------------------------------------------------------------------------------


 quasi-Newton-method for relaxation of ions
 charge density and potential will be updated during run
 spin polarized calculation
 Variant of blocked Davidson
 Davidson routine will perform the subspace rotation
 perform sub-space diagonalisation
    after iterative eigenvector-optimisation
 modified Broyden-mixing scheme, WC =      100.0
 initial mixing is a Kerker type mixing with AMIX =  0.4000 and BMIX =      1.0000
 Hartree-type preconditioning will be used
 using additional bands          202
 real space projection scheme for non local part
 use partial core corrections
 calculate Harris-corrections to forces 
   (improved forces if not selfconsistent)
 use gradient corrections 
 use of overlap-Matrix (Vanderbilt PP)
 Gauss-broadening in eV      SIGMA  =   0.01


--------------------------------------------------------------------------------------------------------


  energy-cutoff  :      500.00
  volume of cell :     3671.03
      direct lattice vectors                 reciprocal lattice vectors
    15.426331000  0.000000000  0.000000000     0.064824228  0.000000000  0.000000000
     0.000000000 15.426331000  0.000000000     0.000000000  0.064824228  0.000000000
     0.000000000  0.000000000 15.426331000     0.000000000  0.000000000  0.064824228

  length of vectors
    15.426331000 15.426331000 15.426331000     0.064824228  0.064824228  0.064824228


 
 old parameters found on file WAVECAR:
  energy-cutoff  :      500.00
  volume of cell :     3671.03
      direct lattice vectors                 reciprocal lattice vectors
    15.426331000  0.000000000  0.000000000     0.064824228  0.000000000  0.000000000
     0.000000000 15.426331000  0.000000000     0.000000000  0.064824228  0.000000000
     0.000000000  0.000000000 15.426331000     0.000000000  0.000000000  0.064824228

  length of vectors

 
 k-points in units of 2pi/SCALE and weight: Title                                   
   0.01620606  0.01620606  0.01620606       0.250
  -0.01620606  0.01620606  0.01620606       0.250
   0.01620606 -0.01620606  0.01620606       0.250
  -0.01620606 -0.01620606  0.01620606       0.250
 
 k-points in reciprocal lattice and weights: Title                                   
   0.25000000  0.25000000  0.25000000       0.250
  -0.25000000  0.25000000  0.25000000       0.250
   0.25000000 -0.25000000  0.25000000       0.250
  -0.25000000 -0.25000000  0.25000000       0.250
 
 position of ions in fractional coordinates (direct lattice) 
   0.63650809  0.62520773  0.91272888
   0.99635677  0.99553496  0.99498157
   0.99994794  0.99188267  0.49372227
   0.00701240  0.49643845  0.99714365
   0.99390496  0.50246451  0.50678357
   0.49590742  0.99288339  0.99946663
   0.50085201  0.00763580  0.50020834
   0.50434889  0.49487315  0.99596661
   0.49151806  0.49899752  0.49484950
   0.00703496  0.00316435  0.25643713
   0.00112892  0.00758347  0.75688692
   0.99378404  0.49392106  0.25091314
   0.99250642  0.49934299  0.74179384
   0.50637251  0.00847288  0.25024303
   0.49264964  0.00518880  0.75187486
   0.49292289  0.49693218  0.25684602
   0.50012737  0.50453246  0.75692829
   0.99614361  0.25836230  0.00116684
   0.99887592  0.24811277  0.49132416
   0.00017719  0.75888694  0.00596105
   0.99744513  0.75643500  0.50630062
   0.49569894  0.25758752  0.00053062
   0.50839643  0.24531873  0.49926626
   0.50817403  0.75493438  0.99830206
   0.50604423  0.75293379  0.50762481
   0.99995613  0.25823071  0.25494371
   0.00644640  0.24245026  0.74704747
   0.00655740  0.74868181  0.24320504
   0.99134523  0.75061219  0.74388923
   0.50845872  0.24228106  0.25125743
   0.50684568  0.24292709  0.74947958
   0.50663241  0.75160164  0.25161256
   0.49995477  0.74326999  0.74160608
   0.25743778  0.99808762  0.00576371
   0.24968488  0.99384158  0.50641352
   0.24484978  0.50855784  0.99726447
   0.25364570  0.49421404  0.50642727
   0.75756750  0.00030963  0.99547692
   0.75083019  0.00601028  0.49519861
   0.74353354  0.50022626  0.00745981
   0.75518768  0.49694494  0.50517578
   0.24534106  0.00251561  0.24367910
   0.25741068  0.99792910  0.74433428
   0.25521178  0.49239346  0.25130835
   0.24616922  0.50607921  0.74094235
   0.74515894  0.00047111  0.25631619
   0.74815484  0.00508662  0.75717431
   0.75551433  0.49899414  0.24437553
   0.75715670  0.49710688  0.74155898
   0.25743117  0.25205978  0.00568766
   0.25310885  0.25653437  0.50537257
   0.25309352  0.74282179  0.99344780
   0.25096726  0.75505756  0.49253711
   0.75735292  0.25175102  0.00680345
   0.74339814  0.24227417  0.49791510
   0.74559518  0.75069830  0.99851731
   0.74136073  0.75194021  0.49561808
   0.25144517  0.25776041  0.24366097
   0.24433225  0.25150112  0.74377549
   0.24376066  0.74815689  0.25538424
   0.24646309  0.74186679  0.75631203
   0.74263015  0.25091959  0.24238890
   0.74437170  0.24121637  0.75060065
   0.74556834  0.75061128  0.25861690
   0.75554414  0.74850922  0.75814091
   0.00758463  0.50171892  0.62441123
   0.99474258  0.00660668  0.37629810
   0.99936698  0.00287332  0.87294648
   0.49854024  0.49370442  0.37482042
   0.49546841  0.50066491  0.87401236
   0.99821201  0.74590854  0.12577469
   0.00024881  0.74594200  0.62397730
   0.49814286  0.75608791  0.62346370
   0.99521134  0.24693251  0.37623818
   0.25559133  0.00328974  0.12551058
   0.25394748  0.00382363  0.62529025
   0.23789266  0.49470252  0.62554774
   0.74731943  0.48979874  0.12607329
   0.74587140  0.48957191  0.62341053
   0.75144707  0.99762291  0.37674715
   0.74663916  0.99826096  0.87431526
   0.24669220  0.25007050  0.12549764
   0.25379656  0.24972790  0.62504749
   0.74283304  0.25843071  0.12612483
   0.25474048  0.74622530  0.37429683
   0.25074659  0.75243174  0.87494743
   0.75230822  0.75358859  0.37549664
   0.73970808  0.73733772  0.87177587
   0.12498408  0.50911357  0.99385517
   0.62615812  0.52111926  0.99209854
   0.12573392  0.00381899  0.25272180
   0.62525119  0.00116761  0.25022916
   0.62460761  0.25484887  0.49623995
   0.61956060  0.72525662  0.99292966
   0.62375688  0.76080429  0.49639679
   0.12489567  0.25077510  0.74861392
   0.12529315  0.75166750  0.25176102
   0.62588936  0.24517370  0.26142045
   0.62536833  0.25248142  0.74538405
   0.62261787  0.75471217  0.25319929
   0.37662285  0.99435664  0.99218985
   0.37497838  0.50377746  0.50462148
   0.87388123  0.99655720  0.00136170
   0.87512731  0.49976996  0.49906276
   0.37601076  0.99626067  0.75692794
   0.37406900  0.49586621  0.24711718
   0.87484462  0.49790759  0.25123471
   0.87467827  0.50853131  0.74642785
   0.37662868  0.25470677  0.00301192
   0.87439615  0.25497126  0.00485318
   0.87487254  0.74289634  0.75197409
   0.50862025  0.12236478  0.49792324
   0.99538741  0.12622105  0.74310515
   0.49501239  0.12543016  0.26111352
   0.50094149  0.12364608  0.74454884
   0.50454065  0.62556643  0.74821169
   0.00564498  0.37593102  0.00432688
   0.01004650  0.87567279  0.00189935
   0.99965224  0.87498950  0.49794971
   0.51045235  0.37461369  0.00522391
   0.51233165  0.87546885  0.00181122
   0.00700229  0.37427461  0.24680886
   0.26239988  0.62498097  0.00177306
   0.74459313  0.12466996  0.50370538
   0.24622458  0.62435421  0.74968455
   0.75126504  0.12412113  0.74522852
   0.25008785  0.37306182  0.49316239
   0.24987561  0.87562526  0.49983424
   0.24134244  0.37470835  0.25661001
   0.00094217  0.00294934  0.12715747
   0.00572336  0.99738547  0.62365982
   0.99938018  0.50942068  0.12469432
   0.49368964  0.00570249  0.12646021
   0.49702912  0.99099655  0.62312329
   0.50455907  0.50750346  0.12630376
   0.50787777  0.49904955  0.62431199
   0.00265143  0.49531135  0.37544007
   0.99434021  0.49746946  0.87278550
   0.50396444  0.99200560  0.37697053
   0.51571376  0.00360204  0.87478370
   0.00792158  0.24578631  0.12710082
   0.99906870  0.25938302  0.62120158
   0.50845494  0.24011062  0.12648205
   0.49323363  0.25001151  0.62270955
   0.49863392  0.74663690  0.12650987
   0.99622090  0.25073170  0.87407995
   0.99379681  0.75063650  0.37489923
   0.00481489  0.75099550  0.87414202
   0.49301094  0.26223433  0.37579370
   0.50220635  0.24999764  0.87425085
   0.49092112  0.75227233  0.37528122
   0.49554056  0.74847054  0.87212505
   0.24430690  0.49400776  0.12422980
   0.74985820  0.00870179  0.12769416
   0.74541266  0.99572499  0.62373673
   0.25320092  0.00122423  0.37571618
   0.24335357  0.99401637  0.87440167
   0.24826425  0.51175169  0.37473736
   0.26049784  0.49789174  0.87333677
   0.74611796  0.50600074  0.37456762
   0.74796282  0.51367072  0.87283695
   0.25174652  0.75427138  0.12485035
   0.24821449  0.75074772  0.62458131
   0.75263842  0.26106478  0.62299022
   0.75140005  0.74710483  0.12931763
   0.74850433  0.74808316  0.62339813
   0.25206703  0.24351525  0.37425226
   0.25155933  0.25161047  0.87527379
   0.76235491  0.24382972  0.37433086
   0.75140391  0.24524502  0.87583278
   0.12699772  0.00795348  0.00201456
   0.12491212  0.00847057  0.49708035
   0.12311067  0.50185110  0.49134878
   0.62506397  0.01056491  0.00854162
   0.62390014  0.98448562  0.50234123
   0.62496838  0.49422865  0.49703136
   0.12690280  0.00214476  0.74801102
   0.12368194  0.50770431  0.24859900
   0.12277242  0.49230876  0.76331156
   0.62345556  0.99432768  0.74157035
   0.62498395  0.49908904  0.25093336
   0.62589545  0.49191857  0.75572036
   0.12554752  0.24614364  0.99479872
   0.12370783  0.24320883  0.49939130
   0.12618555  0.73784134  0.00180471
   0.12378117  0.74702214  0.49512679
   0.62640823  0.24388915  0.99511842
   0.12474114  0.23661171  0.25600302
   0.12273897  0.75424931  0.74952809
   0.62421532  0.75564960  0.74547318
   0.37739957  0.00575218  0.49623384
   0.37404873  0.48831884  0.00760901
   0.87483452  0.00411166  0.51065022
   0.87344835  0.48973672  0.99823908
   0.37760093  0.99611226  0.25708323
   0.37433102  0.49995539  0.73942393
   0.87405771  0.99873343  0.24684680
   0.87411823  0.99320490  0.74189085
   0.37891951  0.24359675  0.49593440
   0.37594386  0.76438545  0.00195998
   0.37620494  0.74358325  0.50187476
   0.87442974  0.25235538  0.50475978
   0.87586600  0.76395003  0.99521173
   0.87224222  0.74423270  0.50250067
   0.37839832  0.25861195  0.24719474
   0.37638500  0.24967256  0.75372950
   0.37705497  0.74804715  0.24591401
   0.37357132  0.75372988  0.74751100
   0.87445941  0.25637440  0.24393390
   0.87407456  0.25404644  0.74712804
   0.87343902  0.74696170  0.24982905
   0.99956670  0.12773367  0.00137817
   0.99508189  0.12595438  0.50995266
   0.98819860  0.62508175  0.99419779
   0.00003273  0.62607351  0.49181628
   0.49875376  0.12538212  0.99816469
   0.48017282  0.62585908  0.99787192
   0.50734313  0.62634637  0.49804125
   0.99107080  0.12796125  0.24631560
   0.99867954  0.62330690  0.25780085
   0.01123519  0.62420578  0.75540112
   0.50166968  0.62582961  0.25448817
   0.00459597  0.37379446  0.49759367
   0.49449715  0.37196800  0.50626345
   0.48798726  0.87778887  0.49487842
   0.99503875  0.37463130  0.75081578
   0.99562797  0.87618565  0.25129465
   0.99971982  0.87590015  0.74773517
   0.50506629  0.37207169  0.23954417
   0.49569107  0.37357074  0.74629036
   0.49591601  0.87627085  0.24704059
   0.50157549  0.87501042  0.75607890
   0.25281945  0.12518682  0.99315411
   0.25179962  0.12455684  0.49683628
   0.24635414  0.62607431  0.50516407
   0.75090098  0.12713667  0.00121743
   0.76860640  0.62160496  0.00475764
   0.74370887  0.62469986  0.50144867
   0.26114915  0.12678210  0.25323948
   0.25259675  0.12463202  0.75801015
   0.25117168  0.62357293  0.24033037
   0.75940736  0.12644471  0.25143266
   0.74581766  0.62483520  0.24917763
   0.73484591  0.62262660  0.73957127
   0.24337530  0.37636355  0.99701988
   0.23934037  0.87385140  0.00350721
   0.73904384  0.37561945  0.98587834
   0.75297838  0.37198087  0.48736340
   0.73522260  0.87933146  0.01179704
   0.76040130  0.87605853  0.50533933
   0.25433269  0.37595381  0.75600646
   0.25450466  0.87562874  0.25114503
   0.24590932  0.87354068  0.74538143
   0.74760011  0.37423653  0.26517342
   0.75486933  0.37370341  0.76091247
   0.75440349  0.87565421  0.24169537
   0.75094642  0.87403537  0.74741474
 
 position of ions in cartesian coordinates  (Angst):
   9.81898441  9.64466133 14.08005778
  15.37012928 15.35745181 15.34891505
  15.42552796 15.30111038  7.61632313
   0.10817564  7.65822377 15.38226806
  15.33230695  7.75118385  7.81781116
   7.65003197 15.31654776 15.41810310
   7.72630887  0.11779234  7.71637944
   7.78025293  7.63407697 15.36411062
   7.58232032  7.69770097  7.63371223
   0.10852359  0.04881426  3.95588411
   0.01741507  0.11698511 11.67598813
  15.33044151  7.61938972  3.87066908
  15.31073256  7.70303018 11.44315736
   7.81147002  0.13070547  3.86033184
   7.59977647  0.08004414 11.59867043
   7.60399165  7.66584035  3.96219168
   7.71513028  7.78308477 11.67662629
  15.36684098  3.98558243  0.01800013
  15.40899059  3.82746964  7.57932907
   0.00273339 11.70684117  0.09195707
  15.38691870 11.66901676  7.81036089
   7.64681588  3.97363040  0.00818545
   7.84269155  3.78436794  7.70184652
   7.83926081 11.64586759 15.40013807
   7.80640574 11.61500590  7.83078833
  15.42565431  3.98355245  3.93284608
   0.09944434  3.74011796 11.52420158
   0.10115663 11.54941342  3.75176147
  15.29281958 11.57919216 11.47548153
   7.84365248  3.73750788  3.87598035
   7.81876927  3.74747368 11.56172014
   7.81547918 11.59445564  3.88145867
   7.71246778 11.46592889 11.44026092
   3.97132041 15.39682998  0.08891285
   3.85172159 15.33132924  7.81210265
   3.77713380  7.84518152 15.38413181
   3.91282247  7.62390937  7.81231467
  11.68648703  0.00477651 15.35655646
  11.58255505  0.09271650  7.63909759
  11.46999457  7.71665593  0.11507744
  11.64977508  7.66603713  7.79300883
   3.78471243  0.03880667  3.75907445
   3.97090229 15.39438457 11.48234700
   3.93698136  7.59582455  3.87676575
   3.79748783  7.80694548 11.43002199
  11.49506844  0.00726749  3.95401838
  11.54128419  0.07846794 11.68042154
  11.65481411  7.69764881  3.76981784
  11.68014982  7.66853527 11.43953428
   3.97121841  3.88835763  0.08773974
   3.90454089  3.95738413  7.79604460
   3.90430443 11.45901477 15.32525455
   3.87150401 11.64776784  7.59804043
  11.68317675  3.88359463  0.10495227
  11.46790584  3.73740160  7.68100321
  11.50179801 11.58052041 15.40345859
  11.43647601 11.59967856  7.64556850
   3.87887639  3.97629735  3.75879473
   3.76915012  3.87973956 11.47372684
   3.76033269 11.54131576  3.93964183
   3.80202117 11.44428272 11.66711971
  11.45605854  3.87076869  3.73917138
  11.48292429  3.72108360 11.57901411
  11.50138399 11.57917809  3.98950983
  11.65527399 11.54675097 11.69533265
   0.11700298  7.73968219  9.63237436
  15.34522837  0.10191688  5.80489897
  15.41656578  0.04432482 13.46636132
   7.69064683  7.61604784  5.78210393
   7.64325977  7.72342256 13.48280396
  15.39874888 11.50663209  1.94024193
   0.00383819 11.50714813  9.62568032
   7.68451659 11.66366230  9.61775744
  15.35245952  3.80926269  5.80397465
   3.94283652  0.05074858  1.93616771
   3.91747783  0.05898455  9.64593438
   3.66981086  7.63144489  9.64990651
  11.52839682  7.55579749  1.94484835
  11.50605914  7.55229832  9.61693717
  11.59207124 15.38966129  5.81182627
  11.51790288 15.39950396 13.48747661
   3.80555557  3.85767035  1.93596812
   3.91514967  3.85238530  9.64218954
  11.45918835  3.98663771  1.94564332
   3.92971092 11.51151849  5.77402683
   3.86809987 11.60726107 13.49722865
  11.60535555 11.62510700  5.79253544
  11.41098171 11.37441566 13.44830318
   1.92804573  7.85375450 15.33153877
   9.65932237  8.03895821 15.30444050
   1.93961302  0.05891304  3.89857015
   9.64533188  0.01801199  3.86011778
   9.63540379  3.93138295  7.65516175
   9.55754692 11.18804866 15.31726155
   9.62228009 11.73641884  7.65758119
   1.92668195  3.86853977 11.54836607
   1.93281362 11.59547166  3.88374887
   9.65517640  3.78213067  4.03275843
   9.64713882  3.89486194 11.49854105
   9.60470942 11.64243978  3.90593609
   5.80990877 15.33927461 15.30584899
   5.78454063  7.77143790  7.78445796
  13.48078105 15.37322129  0.02100597
  13.50000361  7.70961677  7.69870734
   5.80046637 15.36864683 11.67662090
   5.77051217  7.64939627  3.81211139
  13.49564276  7.68088734  3.87562977
  13.49307648  7.84477236 11.51464307
   5.80999874  3.92919089  0.04646288
  13.48872441  3.93327107  0.07486673
  13.49607341 11.46016490 11.60020118
   7.84614436  1.88763966  7.68112877
  15.35517562  1.94712773 11.46338607
   7.63622494  1.93492711  4.02802357
   7.72768928  1.90740530 11.48565680
   7.78321102  9.65019485 11.54216118
   0.08708127  5.79923631  0.06674793
   0.15498066 13.50841835  0.02930007
  15.42096637 13.49787761  7.68153703
   7.87440698  5.77891476  0.08058581
   7.90339766 13.50527231  0.02794041
   0.10801965  5.77368409  3.80735518
   4.04786738  9.64116336  0.02735181
  11.48634011  1.92320001  7.77032589
   3.79834185  9.63149467 11.56488201
  11.58926323  1.91473367 11.49614181
   3.85793798  5.75497514  7.60768626
   3.85466381 13.50768504  7.71060848
   3.72302829  5.78037500  3.95855089
   0.01453429  0.04549757  1.96157324
   0.08829042 15.38599840  9.62078284
  15.41676946  7.85849201  1.92357578
   7.61581985  0.08796856  1.95081700
   7.66733579 15.28744077  9.61250620
   7.78349517  7.82891635  1.94840356
   7.83469053  7.69850356  9.63084345
   0.04090177  7.64083682  5.79166279
  15.33902123  7.67412852 13.46387798
   7.77432224 15.30300677  5.81527212
   7.95557116  0.05556627 13.49470296
   0.12220085  3.79158092  1.96069929
  15.41196441  4.00132829  9.58286126
   7.84359415  3.70402582  1.95115401
   7.60878525  3.85676035  9.60612370
   7.69209195 11.51786797  1.95158312
  15.36803335  3.86787020 13.48384657
  15.33063856 11.57956713  5.78331955
   0.07427609 11.58510515 13.48480419
   7.60534996  4.04531352  5.79711794
   7.74720140  3.85654636 13.48648299
   7.57311172 11.60480195  5.78921232
   7.64437274 11.54615437 13.45368966
   3.76875915  7.62072725  1.91641005
  11.56756078  0.13423675  1.96985238
  11.49898245 15.36038325  9.62196924
   3.90596117  0.01888537  5.79592214
   3.75405279 15.33402547 13.48880957
   3.82980643  7.89445089  5.78082261
   4.01852589  7.68064282 13.47238208
  11.50986259  7.80573490  5.77820404
  11.53832207  7.92405461 13.46467174
   3.88352522 11.63563991  1.92598286
   3.82903881 11.58128279  9.63499796
  11.61044939  4.02727177  9.61045328
  11.59134584 11.52508644  1.99489650
  11.54667560 11.54017841  9.61674594
   3.88846945  3.75654691  5.77333929
   3.88063745  3.88142632 13.50226321
  11.76033926  3.76139793  5.77455172
  11.59140549  3.78323084 13.51088634
   1.95910891  0.12269299  0.03107732
   1.92693576  0.13066979  7.66812595
   1.89914588  7.74172113  7.57970891
   9.64244366  0.16297784  0.13176586
   9.62449010 15.18700111  7.74928214
   9.64096912  7.62413472  7.66737029
   1.95764456  0.03308571 11.53906565
   1.90795850  7.83201478  3.83497039
   1.89392794  7.59451795 11.77509672
   9.61763185 15.33882788 11.43970961
   9.64120932  7.69911270  3.87098103
   9.65527035  7.58849866 11.65799236
   1.93673755  3.79709325 15.34609436
   1.90835796  3.75181988  7.70377553
   1.94658005 11.38218467  0.02784000
   1.90948934 11.52381075  7.63798968
   9.66318066  3.76231477 15.35102613
   1.92429816  3.65005052  3.94918725
   1.89341202 11.63529951 11.56246837
   9.62935218 11.65690088 11.49991595
   5.82189061  0.08873501  7.65506744
   5.77019945  7.53296803  0.11737915
  13.49548693  0.06342783  7.87745926
  13.47410334  7.55484070 15.39916645
   5.82499701 15.36635749  3.96585102
   5.77455426  7.71247732 11.40659826
  13.48350349 15.40679249  3.80794039
  13.48443714 15.32150752 11.44465386
   5.84533784  3.75780406  7.65044822
   5.79943439 11.79166297  0.03023532
   5.80346187 11.47076127  7.74208618
  13.48924261  3.89291755  7.78659137
  13.51139883 11.78494607 15.35246556
  13.45549721 11.48077999  7.75174171
   5.83729773  3.98943353  3.81330789
   5.80623962  3.85153151 11.62728080
   5.81657479 11.53962299  3.79355085
   5.76283490 11.62728655 11.53135204
  13.48970032  3.95491639  3.76300507
  13.48376348  3.91900440 11.52544452
  13.47395943 11.52287839  3.85394561
  15.41964682  1.97046190  0.02126016
  15.35046256  1.94301403  7.86669854
  15.24427877  9.64271792 15.33682420
   0.00050496  9.65801714  7.58692077
   7.69394055  1.93418606 15.39801891
   7.40730488  9.65470932 15.39350250
   7.82644304  9.66222643  7.68294914
  15.28858613  1.97397263  3.79974596
  15.40596112  9.61533852  3.97692126
   0.17331780  9.62920490 11.65306767
   7.73892253  9.65425471  3.92581874
   0.07089903  5.76627706  7.67604463
   7.62827674  5.73810149  7.80978758
   7.52785300 13.54106172  7.63415828
  15.34979718  5.77918640 11.58233278
  15.35888664 13.51632988  3.87655451
  15.42200891 13.51192560 11.53481020
   7.79131972  5.73970098  3.69528770
   7.64669455  5.76282591 11.51252209
   7.65016449 13.51764414  3.81092997
   7.73746960 13.49820030 11.66352338
   3.90007646  1.93117337 15.32072397
   3.88434425  1.92145499  7.66436086
   3.80034047  9.65802949  7.79282813
  11.58364713  1.96125233  0.01878042
  11.85677673  9.58908386  0.07339295
  11.47269913  9.63682688  7.73551313
   4.02857328  1.95578266  3.90655601
   3.89664105  1.92261486 11.69331546
   3.87465744  9.61944237  3.70741587
  11.71486929  1.95057798  3.87868348
  11.50523016  9.63891458  3.84389657
  11.33597622  9.60484404 11.40887124
   3.75438788  5.80590875 15.38035871
   3.69214374 13.48032086  0.05410332
  11.40073486  5.79442991 15.20848561
  11.61569375  5.73830008  7.51822906
  11.34178712 13.56485822  0.18198509
  11.73020210 13.51436882  7.79553174
   3.92342023  5.79958790 11.66240588
   3.92607306 13.50773873  3.87424639
   3.79347858 13.47552772 11.49850059
  11.53272677  5.77309654  4.09065301
  11.64486421  5.76487243 11.73808767
  11.63767801 13.50813164  3.72847281
  11.58434797 13.48315889 11.52986724
 


--------------------------------------------------------------------------------------------------------


 k-point  1 :   0.2500 0.2500 0.2500  plane waves:   93161
 k-point  2 :  -0.2500 0.2500 0.2500  plane waves:   93161
 k-point  3 :   0.2500-0.2500 0.2500  plane waves:   93161
 k-point  4 :  -0.2500-0.2500 0.2500  plane waves:   93161

 maximum and minimum number of plane-waves per node :     11686    11606

 maximum number of plane-waves:     93161
 maximum index in each direction: 
   IXMAX=   28   IYMAX=   28   IZMAX=   27
   IXMIN=  -28   IYMIN=  -28   IZMIN=  -28


 real space projection operators:
  total allocation   :     105594.19 KBytes
  max/ min on nodes  :      13230.77      13170.88


 parallel 3D FFT for wavefunctions:
    minimum data exchange during FFTs selected (reduces bandwidth)
 parallel 3D FFT for charge:
    minimum data exchange during FFTs selected (reduces bandwidth)


 total amount of memory used by VASP MPI-rank0   291486. kBytes
=======================================================================

   base      :      30000. kBytes
   nonlr-proj:      49451. kBytes
   fftplans  :      27976. kBytes
   grid      :      34041. kBytes
   one-center:       1026. kBytes
   wavefun   :     148992. kBytes
 
     INWAV:  cpu time   57.5976: real time   60.4441
 Broyden mixing: mesh for mixing (old mesh)
   NGX = 57   NGY = 57   NGZ = 57
  (NGX  =240   NGY  =240   NGZ  =240)
  gives a total of 185193 points

 charge density for first step will be calculated from the start-wavefunctions


--------------------------------------------------------------------------------------------------------


 Maximum index for non-local projection operator          969
 Maximum index for augmentation-charges         3293 (set IRDMAX)


--------------------------------------------------------------------------------------------------------


 initial charge from wavefunction
 First call to EWALD:  gamma=   0.115
 Maximum number of real-space cells 3x 3x 3
 Maximum number of reciprocal cells 3x 3x 3

    FEWALD:  cpu time    0.0466: real time    0.0466


--------------------------------------- Iteration      1(   1)  ---------------------------------------


    POTLOK:  cpu time    0.2644: real time    0.3187
    SETDIJ:  cpu time    1.4190: real time    1.4336
     EDDAV:  cpu time  148.9548: real time  150.0366
       DOS:  cpu time    0.0020: real time    0.0020
    CHARGE:  cpu time    5.3511: real time    5.3541
    MIXING:  cpu time    0.0198: real time    0.0199
    --------------------------------------------
      LOOP:  cpu time  156.0112: real time  157.1651

 eigenvalue-minimisations  : 26904
 total energy-change (2. order) :-0.1757638E+04  (-0.2201797E-05)
 number of electron    1923.0000029 magnetization       1.0000000
 augmentation part      496.9718880 magnetization       0.5831867

 Broyden mixing:
  rms(total) = 0.97244E-03    rms(broyden)= 0.95933E-03
  rms(prec ) = 0.11812E-02
  weight for this iteration     100.00

 Free energy of the ion-electron system (eV)
  ---------------------------------------------------
  alpha Z        PSCENC =      6118.73324990
  Ewald energy   TEWEN  =   -103260.06565439
  -Hartree energ DENC   =    -65363.04385174
  -exchange      EXHF   =         0.00000000
  -V(xc)+E(xc)   XCENC  =      8970.72736808
  PAW double counting   =    198051.04072272  -199057.60810804
  entropy T*S    EENTRO =        -0.00000000
  eigenvalues    EBANDS =    -25794.67463716
  atomic energy  EATOM  =    178577.25249613
  Solvation  Ediel_sol  =         0.00000000
  ---------------------------------------------------
  free energy    TOTEN  =     -1757.63841451 eV

  energy without entropy =    -1757.63841451  energy(sigma->0) =    -1757.63841451


--------------------------------------------------------------------------------------------------------




--------------------------------------- Iteration      1(   2)  ---------------------------------------


    POTLOK:  cpu time    0.2687: real time    0.2713
    SETDIJ:  cpu time    1.4273: real time    1.4490
     EDDAV:  cpu time  146.6271: real time  147.4422
       DOS:  cpu time    0.0019: real time    0.0019
    CHARGE:  cpu time    5.3377: real time    5.3412
    MIXING:  cpu time    0.0085: real time    0.0086
    --------------------------------------------
      LOOP:  cpu time  153.6712: real time  154.5143

 eigenvalue-minimisations  : 26472
 total energy-change (2. order) :-0.6912160E-07  (-0.2618591E-05)
 number of electron    1923.0000029 magnetization       1.0000000
 augmentation part      496.9706610 magnetization       0.5831798

 Broyden mixing:
  rms(total) = 0.96950E-03    rms(broyden)= 0.95628E-03
  rms(prec ) = 0.10895E-02
  weight for this iteration     100.00

 eigenvalues of (default mixing * dielectric matrix)
  average eigenvalue GAMMA=   0.5145
  0.5145

 Free energy of the ion-electron system (eV)
  ---------------------------------------------------
  alpha Z        PSCENC =      6118.73324990
  Ewald energy   TEWEN  =   -103260.06565439
  -Hartree energ DENC   =    -65363.06688794
  -exchange      EXHF   =         0.00000000
  -V(xc)+E(xc)   XCENC  =      8970.72619991
  PAW double counting   =    198050.90085226  -199057.46396360
  entropy T*S    EENTRO =        -0.00000000
  eigenvalues    EBANDS =    -25794.65470684
  atomic energy  EATOM  =    178577.25249613
  Solvation  Ediel_sol  =         0.00000000
  ---------------------------------------------------
  free energy    TOTEN  =     -1757.63841458 eV

  energy without entropy =    -1757.63841458  energy(sigma->0) =    -1757.63841458


--------------------------------------------------------------------------------------------------------




--------------------------------------- Iteration      1(   3)  ---------------------------------------


    POTLOK:  cpu time    0.2627: real time    0.2649
    SETDIJ:  cpu time    1.3868: real time    1.3878
     EDDAV:  cpu time  112.1979: real time  113.2362
       DOS:  cpu time    0.0019: real time    0.0019
    --------------------------------------------
      LOOP:  cpu time  113.8493: real time  114.8908

 eigenvalue-minimisations  : 18588
 total energy-change (2. order) : 0.4263420E-06  (-0.5076056E-06)
 number of electron    1923.0000029 magnetization       1.0000000
 augmentation part      496.9706610 magnetization       0.5831798

 Free energy of the ion-electron system (eV)
  ---------------------------------------------------
  alpha Z        PSCENC =      6118.73324990
  Ewald energy   TEWEN  =   -103260.06565439
  -Hartree energ DENC   =    -65363.07008691
  -exchange      EXHF   =         0.00000000
  -V(xc)+E(xc)   XCENC  =      8970.72694599
  PAW double counting   =    198050.93954824  -199057.50421333
  entropy T*S    EENTRO =        -0.00000000
  eigenvalues    EBANDS =    -25794.65069978
  atomic energy  EATOM  =    178577.25249613
  Solvation  Ediel_sol  =         0.00000000
  ---------------------------------------------------
  free energy    TOTEN  =     -1757.63841415 eV

  energy without entropy =    -1757.63841415  energy(sigma->0) =    -1757.63841415


--------------------------------------------------------------------------------------------------------




 average (electrostatic) potential at core
  the test charge radii are     0.7079  1.0397  0.7215  0.7167
  (the norm of the test charge is              1.0000)
       1 -63.0636       2 -58.3890       3 -58.7722       4 -58.7773       5 -58.8631
       6 -58.7154       7 -59.7865       8 -58.5496       9 -58.7063      10 -58.8312
      11 -58.5705      12 -59.0024      13 -58.8552      14 -59.0890      15 -58.8786
      16 -58.7738      17 -58.7445      18 -58.8353      19 -59.5331      20 -58.5228
      21 -58.7839      22 -58.7033      23 -59.4324      24 -58.4790      25 -58.8865
      26 -59.1345      27 -58.6794      28 -58.6480      29 -58.7253      30 -59.1023
      31 -58.9458      32 -59.4406      33 -58.8086      34 -58.7507      35 -58.8210
      36 -58.6963      37 -58.4192      38 -58.5953      39 -59.1382      40 -58.8166
      41 -58.9095      42 -58.7840      43 -58.8469      44 -58.7564      45 -58.5900
      46 -59.1417      47 -58.7772      48 -58.9616      49 -58.8355      50 -58.7724
      51 -58.6630      52 -58.6585      53 -58.7946      54 -58.8937      55 -59.2288
      56 -56.6954      57 -59.0204      58 -58.7610      59 -58.7436      60 -58.7300
      61 -58.6818      62 -58.9971      63 -58.8691      64 -59.0796      65 -58.4693
      66 -74.1576      67 -73.9497      68 -73.7746      69 -73.9121      70 -73.8719
      71 -73.7978      72 -73.9151      73 -74.2508      74 -74.5760      75 -73.9050
      76 -73.9857      77 -73.8996      78 -74.1167      79 -74.0471      80 -74.2511
      81 -73.9644      82 -73.9275      83 -73.8835      84 -74.3335      85 -73.9030
      86 -73.8558      87 -74.1861      88 -73.6626      89 -73.8900      90 -73.8310
      91 -73.9841      92 -74.2266      93 -74.6308      94 -73.6945      95 -74.2673
      96 -73.9359      97 -73.9289      98 -74.3907      99 -74.0497     100 -74.3354
     101 -73.8435     102 -73.8285     103 -73.7461     104 -73.9914     105 -74.1848
     106 -73.9546     107 -74.1032     108 -74.1470     109 -73.9176     110 -74.0224
     111 -74.0106     112 -74.8530     113 -74.0121     114 -74.4332     115 -74.0828
     116 -73.9958     117 -73.8953     118 -73.6972     119 -74.1845     120 -73.8528
     121 -73.8449     122 -74.3297     123 -73.9779     124 -74.4808     125 -73.9912
     126 -74.1366     127 -73.8095     128 -73.9521     129 -74.0687     130 -78.3286
     131 -78.3315     132 -79.1684     133 -79.5762     134 -79.8613     135 -78.4034
     136 -78.3676     137 -79.0111     138 -78.9483     139 -79.8882     140 -79.4825
     141 -79.1305     142 -79.0877     143 -79.5435     144 -79.6999     145 -79.3871
     146 -79.1605     147 -78.2906     148 -78.3288     149 -79.7602     150 -79.4584
     151 -79.2746     152 -79.0370     153 -79.0119     154 -78.5436     155 -78.5397
     156 -78.3867     157 -78.3666     158 -78.8033     159 -78.7822     160 -78.5522
     161 -78.4865     162 -78.3497     163 -78.2890     164 -79.3859     165 -78.5782
     166 -78.5048     167 -78.3770     168 -78.3490     169 -79.2239     170 -79.0897
     171 -78.2192     172 -79.5125     173 -78.3877     174 -78.1988     175 -79.8640
     176 -78.3413     177 -78.9096     178 -78.4481     179 -78.9008     180 -78.9649
     181 -78.4691     182 -78.9290     183 -78.3849     184 -79.4669     185 -78.9743
     186 -79.1425     187 -78.3668     188 -79.2825     189 -78.9126     190 -78.9873
     191 -79.7989     192 -78.3427     193 -79.6019     194 -78.3156     195 -78.5565
     196 -79.0761     197 -78.5020     198 -79.0659     199 -79.1614     200 -78.7999
     201 -79.0375     202 -79.4507     203 -78.7473     204 -79.0033     205 -79.0711
     206 -78.4265     207 -78.5291     208 -79.1824     209 -79.2163     210 -78.4838
     211 -78.6068     212 -78.2405     213 -79.2916     214 -78.2385     215 -79.1008
     216 -78.2525     217 -78.3182     218 -79.3072     219 -79.0009     220 -78.9851
     221 -79.1450     222 -79.3915     223 -79.4443     224 -79.2461     225 -79.2882
     226 -78.9771     227 -79.0889     228 -78.9016     229 -79.1358     230 -78.5229
     231 -79.3181     232 -78.5174     233 -78.9893     234 -78.3379     235 -78.3436
     236 -79.3181     237 -79.0829     238 -79.2951     239 -78.9235     240 -79.0739
     241 -78.8858     242 -79.5932     243 -79.5553     244 -79.1686     245 -78.7917
     246 -78.7960     247 -79.4361     248 -79.1569     249 -78.9983     250 -79.1945
     251 -78.8751     252 -79.0714     253 -78.8956     254 -79.5941     255 -79.0092
     256 -79.5744     257 -78.9338
 
 
 
 E-fermi :  -0.6920     XC(G=0):  -9.0423     alpha+bet : -7.7421


 spin component 1

 k-point     1 :       0.2500    0.2500    0.2500
  band No.  band energies     occupation 
      1     -43.7312      1.00000
      2     -35.8121      1.00000
      3     -35.7895      1.00000
      4     -35.6147      1.00000
      5     -35.5233      1.00000
      6     -35.5051      1.00000
      7     -35.4740      1.00000
      8     -35.4290      1.00000
      9     -35.4120      1.00000
     10     -35.3590      1.00000
     11     -35.3205      1.00000
     12     -35.3006      1.00000
     13     -35.2249      1.00000
     14     -35.2122      1.00000
     15     -35.1852      1.00000
     16     -35.1788      1.00000
     17     -35.1587      1.00000
     18     -35.1490      1.00000
     19     -35.1389      1.00000
     20     -35.1337      1.00000
     21     -35.1189      1.00000
     22     -35.1117      1.00000
     23     -35.0673      1.00000
     24     -35.0551      1.00000
     25     -35.0443      1.00000
     26     -35.0391      1.00000
     27     -35.0145      1.00000
     28     -35.0083      1.00000
     29     -35.0004      1.00000
     30     -34.9989      1.00000
     31     -34.9967      1.00000
     32     -34.9944      1.00000
     33     -34.9925      1.00000
     34     -34.9787      1.00000
     35     -34.9686      1.00000
     36     -34.9498      1.00000
     37     -34.9495      1.00000
     38     -34.9413      1.00000
     39     -34.9363      1.00000
     40     -34.9240      1.00000
     41     -34.9221      1.00000
     42     -34.9211      1.00000
     43     -34.9171      1.00000
     44     -34.9095      1.00000
     45     -34.9063      1.00000
     46     -34.9040      1.00000
     47     -34.8974      1.00000
     48     -34.8923      1.00000
     49     -34.8897      1.00000
     50     -34.8818      1.00000
     51     -34.8777      1.00000
     52     -34.8728      1.00000
     53     -34.8669      1.00000
     54     -34.8486      1.00000
     55     -34.8474      1.00000
     56     -34.8439      1.00000
     57     -34.8415      1.00000
     58     -34.8412      1.00000
     59     -34.8357      1.00000
     60     -34.8320      1.00000
     61     -34.8293      1.00000
     62     -34.8201      1.00000
     63     -34.8146      1.00000
     64     -34.8079      1.00000
     65     -34.8073      1.00000
     66     -34.8030      1.00000
     67     -34.8028      1.00000
     68     -34.8005      1.00000
     69     -34.7972      1.00000
     70     -34.7893      1.00000
     71     -34.7815      1.00000
     72     -34.7776      1.00000
     73     -34.7760      1.00000
     74     -34.7730      1.00000
     75     -34.7726      1.00000
     76     -34.7690      1.00000
     77     -34.7689      1.00000
     78     -34.7685      1.00000
     79     -34.7644      1.00000
     80     -34.7611      1.00000
     81     -34.7578      1.00000
     82     -34.7569      1.00000
     83     -34.7550      1.00000
     84     -34.7522      1.00000
     85     -34.7419      1.00000
     86     -34.7396      1.00000
     87     -34.7387      1.00000
     88     -34.7378      1.00000
     89     -34.7339      1.00000
     90     -34.7338      1.00000
     91     -34.7335      1.00000
     92     -34.7286      1.00000
     93     -34.7230      1.00000
     94     -34.7201      1.00000
     95     -34.7181      1.00000
     96     -34.7130      1.00000
     97     -34.7119      1.00000
     98     -34.7083      1.00000
     99     -34.7013      1.00000
    100     -34.6979      1.00000
    101     -34.6949      1.00000
    102     -34.6933      1.00000
    103     -34.6928      1.00000
    104     -34.6908      1.00000
    105     -34.6857      1.00000
    106     -34.6811      1.00000
    107     -34.6806      1.00000
    108     -34.6795      1.00000
    109     -34.6781      1.00000
    110     -34.6764      1.00000
    111     -34.6754      1.00000
    112     -34.6736      1.00000
    113     -34.6688      1.00000
[...]
   81        1.574   3.461   0.000   5.034
   82        1.574   3.461   0.000   5.035
   83        1.574   3.460   0.000   5.034
   84        1.576   3.471   0.000   5.046
   85        1.575   3.462   0.000   5.038
   86        1.575   3.465   0.000   5.040
   87        1.576   3.465   0.000   5.042
   88        1.572   3.469   0.000   5.041
   89        1.574   3.460   0.000   5.035
   90        1.567   3.475   0.000   5.041
   91        1.574   3.460   0.000   5.034
   92        1.574   3.460   0.000   5.034
   93        1.577   3.472   0.000   5.049
   94        1.570   3.487   0.000   5.057
   95        1.576   3.474   0.000   5.050
   96        1.574   3.463   0.000   5.038
   97        1.575   3.465   0.000   5.040
   98        1.576   3.475   0.000   5.051
   99        1.574   3.463   0.000   5.037
  100        1.576   3.459   0.000   5.034
  101        1.574   3.456   0.000   5.030
  102        1.575   3.460   0.000   5.034
  103        1.575   3.457   0.000   5.032
  104        1.574   3.461   0.000   5.035
  105        1.577   3.471   0.000   5.048
  106        1.575   3.463   0.000   5.037
  107        1.575   3.461   0.000   5.036
  108        1.576   3.472   0.000   5.048
  109        1.575   3.461   0.000   5.036
  110        1.575   3.459   0.000   5.034
  111        1.575   3.473   0.000   5.049
  112        1.577   3.464   0.000   5.041
  113        1.576   3.472   0.000   5.048
  114        1.577   3.475   0.000   5.052
  115        1.574   3.465   0.000   5.039
  116        1.573   3.463   0.000   5.036
  117        1.575   3.460   0.000   5.035
  118        1.575   3.461   0.000   5.036
  119        1.576   3.476   0.000   5.052
  120        1.575   3.459   0.000   5.034
  121        1.573   3.462   0.000   5.036
  122        1.577   3.467   0.000   5.044
  123        1.577   3.470   0.000   5.047
  124        1.576   3.470   0.000   5.046
  125        1.576   3.475   0.000   5.050
  126        1.575   3.469   0.000   5.044
  127        1.575   3.458   0.000   5.033
  128        1.574   3.460   0.000   5.034
  129        1.576   3.469   0.000   5.045
  130        1.737   4.369   0.000   6.106
  131        1.737   4.370   0.000   6.107
  132        1.737   4.379   0.000   6.116
  133        1.738   4.387   0.000   6.125
  134        1.739   4.383   0.000   6.122
  135        1.737   4.369   0.000   6.105
  136        1.737   4.369   0.000   6.105
  137        1.739   4.380   0.000   6.118
  138        1.739   4.381   0.000   6.119
  139        1.739   4.388   0.000   6.128
  140        1.739   4.386   0.000   6.125
  141        1.738   4.380   0.000   6.118
  142        1.738   4.380   0.000   6.118
  143        1.738   4.386   0.000   6.125
  144        1.739   4.387   0.000   6.126
  145        1.738   4.383   0.000   6.121
  146        1.737   4.381   0.000   6.118
  147        1.736   4.369   0.000   6.105
  148        1.736   4.369   0.000   6.105
  149        1.739   4.386   0.000   6.125
  150        1.738   4.388   0.000   6.126
  151        1.738   4.378   0.000   6.116
  152        1.737   4.381   0.000   6.118
  153        1.737   4.381   0.000   6.119
  154        1.737   4.372   0.000   6.109
  155        1.737   4.371   0.000   6.109
  156        1.737   4.369   0.000   6.106
  157        1.737   4.368   0.000   6.104
  158        1.738   4.375   0.000   6.113
  159        1.738   4.375   0.000   6.113
  160        1.737   4.372   0.000   6.109
  161        1.736   4.367   0.000   6.103
  162        1.737   4.370   0.000   6.107
  163        1.736   4.367   0.000   6.104
  164        1.738   4.378   0.000   6.116
  165        1.737   4.379   0.000   6.116
  166        1.737   4.371   0.000   6.108
  167        1.737   4.370   0.000   6.107
  168        1.737   4.371   0.000   6.107
  169        1.738   4.377   0.000   6.115
  170        1.738   4.380   0.000   6.118
  171        1.737   4.368   0.000   6.105
  172        1.738   4.387   0.000   6.126
  173        1.737   4.371   0.000   6.108
  174        1.737   4.368   0.000   6.105
  175        1.739   4.382   0.000   6.121
  176        1.737   4.367   0.000   6.104
  177        1.738   4.380   0.000   6.117
  178        1.737   4.369   0.000   6.105
  179        1.738   4.376   0.000   6.114
  180        1.738   4.379   0.000   6.117
  181        1.737   4.370   0.000   6.107
  182        1.738   4.377   0.000   6.115
  183        1.737   4.368   0.000   6.105
  184        1.738   4.380   0.000   6.117
  185        1.738   4.381   0.000   6.119
  186        1.738   4.382   0.000   6.120
  187        1.737   4.371   0.000   6.107
  188        1.738   4.378   0.000   6.116
  189        1.739   4.382   0.000   6.120
  190        1.738   4.381   0.000   6.120
  191        1.739   4.387   0.000   6.126
  192        1.737   4.368   0.000   6.105
  193        1.739   4.388   0.000   6.127
  194        1.736   4.366   0.000   6.103
  195        1.737   4.371   0.000   6.108
  196        1.737   4.381   0.000   6.118
  197        1.737   4.369   0.000   6.107
  198        1.737   4.379   0.000   6.117
  199        1.738   4.381   0.000   6.119
  200        1.739   4.378   0.000   6.116
  201        1.738   4.381   0.000   6.119
  202        1.738   4.380   0.000   6.118
  203        1.737   4.384   0.000   6.121
  204        1.738   4.379   0.000   6.117
  205        1.737   4.377   0.000   6.115
  206        1.737   4.369   0.000   6.106
  207        1.737   4.369   0.000   6.106
  208        1.738   4.383   0.000   6.120
  209        1.738   4.378   0.000   6.115
  210        1.737   4.370   0.000   6.107
  211        1.737   4.371   0.000   6.109
  212        1.737   4.368   0.000   6.104
  213        1.739   4.374   0.000   6.113
  214        1.736   4.365   0.000   6.101
  215        1.739   4.380   0.000   6.119
  216        1.736   4.368   0.000   6.104
  217        1.737   4.365   0.000   6.102
  218        1.737   4.381   0.000   6.118
  219        1.738   4.379   0.000   6.117
  220        1.738   4.380   0.000   6.118
  221        1.738   4.380   0.000   6.118
  222        1.737   4.381   0.000   6.118
  223        1.738   4.381   0.000   6.119
  224        1.738   4.383   0.000   6.121
  225        1.738   4.381   0.000   6.119
  226        1.738   4.378   0.000   6.116
  227        1.737   4.379   0.000   6.116
  228        1.737   4.378   0.000   6.115
  229        1.738   4.379   0.000   6.117
  230        1.736   4.369   0.000   6.106
  231        1.738   4.377   0.000   6.115
  232        1.737   4.370   0.000   6.107
  233        1.738   4.380   0.000   6.117
  234        1.737   4.371   0.000   6.108
  235        1.737   4.370   0.000   6.107
  236        1.739   4.389   0.000   6.128
  237        1.739   4.384   0.000   6.123
  238        1.737   4.380   0.000   6.117
  239        1.738   4.378   0.000   6.116
  240        1.737   4.380   0.000   6.118
  241        1.738   4.377   0.000   6.115
  242        1.738   4.387   0.000   6.125
  243        1.738   4.387   0.000   6.125
  244        1.738   4.381   0.000   6.119
  245        1.738   4.377   0.000   6.115
  246        1.738   4.376   0.000   6.114
  247        1.739   4.383   0.000   6.122
  248        1.738   4.380   0.000   6.118
  249        1.738   4.386   0.000   6.124
  250        1.738   4.379   0.000   6.118
  251        1.738   4.380   0.000   6.118
  252        1.737   4.380   0.000   6.118
  253        1.738   4.379   0.000   6.117
  254        1.739   4.387   0.000   6.126
  255        1.738   4.376   0.000   6.114
  256        1.739   4.385   0.000   6.124
  257        1.737   4.379   0.000   6.117
--------------------------------------------------
tot        345.5231195.411 112.4591653.392
 


 magnetization (x)
 
# of ion       s       p       d       tot
------------------------------------------
    1       -0.000   0.000   0.000   0.000
    2        0.000   0.000   0.002   0.002
    3       -0.000  -0.000   0.000   0.000
    4        0.000   0.000   0.000   0.000
    5       -0.000  -0.000  -0.000  -0.000
    6       -0.000   0.000   0.002   0.002
    7       -0.000   0.000   0.000   0.000
    8        0.000   0.000   0.001   0.001
    9        0.000   0.000   0.000   0.000
   10       -0.000  -0.000   0.000   0.000
   11       -0.000  -0.000  -0.000  -0.000
   12       -0.000  -0.000  -0.000  -0.000
   13       -0.000  -0.000  -0.000  -0.000
   14       -0.000  -0.000   0.000   0.000
   15       -0.000  -0.000   0.000   0.000
   16       -0.000  -0.000   0.000   0.000
   17       -0.000  -0.000  -0.000  -0.000
   18        0.000  -0.000   0.000   0.000
   19       -0.000   0.000   0.000   0.000
   20       -0.000  -0.000   0.004   0.004
   21        0.000   0.000   0.000   0.000
   22        0.000   0.000   0.000   0.000
   23       -0.000  -0.000  -0.000  -0.000
   24        0.000   0.000   0.024   0.024
   25       -0.000  -0.000   0.000   0.000
   26       -0.000   0.000  -0.000  -0.000
   27        0.000   0.000   0.000   0.000
   28       -0.000  -0.000   0.000   0.000
   29       -0.000  -0.000   0.000   0.000
   30       -0.000  -0.000  -0.000  -0.000
   31       -0.000  -0.000  -0.000  -0.000
   32       -0.000  -0.000   0.000   0.000
   33       -0.000  -0.000   0.000   0.000
   34        0.000   0.000   0.000   0.000
   35        0.000   0.000   0.000   0.000
   36        0.000  -0.000   0.000   0.000
   37       -0.000  -0.000  -0.000  -0.000
   38        0.000   0.000   0.007   0.008
   39        0.000   0.000   0.000   0.000
   40       -0.000   0.000   0.005   0.005
   41        0.000   0.000   0.000   0.000
   42       -0.000  -0.000  -0.000  -0.000
   43       -0.000   0.000   0.000   0.000
   44       -0.000  -0.000  -0.000  -0.000
   45       -0.000  -0.000  -0.000  -0.000
   46        0.000   0.000   0.000   0.000
   47        0.000   0.000   0.001   0.001
   48        0.000   0.000   0.001   0.001
   49        0.000   0.000   0.000   0.000
   50        0.000   0.000   0.000   0.000
   51        0.000   0.000   0.000   0.000
   52        0.000   0.000   0.001   0.001
   53       -0.000   0.000   0.000   0.000
   54        0.000   0.000   0.000   0.000
   55        0.000   0.000   0.000   0.000
   56        0.005   0.007   0.901   0.913
   57       -0.000  -0.000   0.000   0.000
   58       -0.000   0.000  -0.000  -0.000
   59       -0.000  -0.000  -0.000  -0.000
   60        0.000   0.000   0.000   0.000
   61       -0.000  -0.000   0.000   0.000
   62        0.000  -0.000   0.000   0.000
   63        0.000   0.000   0.000   0.000
   64       -0.000  -0.000   0.003   0.003
   65       -0.000  -0.000   0.015   0.015
   66        0.000   0.000   0.000   0.000
   67       -0.000  -0.000   0.000  -0.000
   68       -0.000  -0.000   0.000  -0.000
   69       -0.000  -0.000   0.000  -0.000
   70       -0.000  -0.000   0.000  -0.000
   71       -0.000  -0.000   0.000  -0.000
   72       -0.000  -0.000   0.000  -0.000
   73       -0.000  -0.000   0.000  -0.000
   74        0.000   0.000   0.000   0.000
   75       -0.000  -0.000   0.000  -0.000
   76       -0.000  -0.000   0.000  -0.000
   77        0.000   0.000   0.000   0.000
   78       -0.000  -0.000   0.000  -0.000
   79        0.000  -0.000   0.000  -0.000
   80       -0.000  -0.000   0.000  -0.000
   81       -0.000  -0.000   0.000  -0.001
   82       -0.000  -0.000   0.000  -0.000
   83        0.000   0.000   0.000   0.000
   84       -0.000  -0.000   0.000  -0.000
   85       -0.000  -0.000   0.000  -0.000
   86       -0.000  -0.000   0.000  -0.000
   87       -0.000  -0.000   0.000  -0.000
   88       -0.001  -0.016   0.000  -0.017
   89        0.000  -0.000   0.000  -0.000
   90       -0.000  -0.000   0.000  -0.000
   91       -0.000  -0.000   0.000  -0.000
   92       -0.000  -0.000   0.000  -0.000
   93       -0.000  -0.000   0.000  -0.000
   94       -0.001  -0.013   0.000  -0.014
   95       -0.000  -0.000   0.000  -0.000
   96        0.000  -0.000   0.000  -0.000
   97       -0.000  -0.000   0.000  -0.000
   98       -0.000  -0.000   0.000  -0.000
   99       -0.000  -0.000   0.000  -0.000
  100       -0.000  -0.000   0.000  -0.000
  101       -0.000  -0.000   0.000  -0.000
  102        0.000   0.000   0.000   0.000
  103       -0.000  -0.001   0.000  -0.001
  104       -0.000  -0.000   0.000  -0.000
  105       -0.000  -0.000   0.000  -0.000
  106       -0.000  -0.000   0.000  -0.000
  107       -0.000  -0.000   0.000  -0.000
  108       -0.000  -0.000   0.000  -0.000
  109       -0.000  -0.000   0.000  -0.000
  110       -0.000  -0.000   0.000  -0.000
  111       -0.000  -0.001   0.000  -0.001
  112       -0.000   0.000   0.000   0.000
  113       -0.000  -0.000   0.000  -0.000
  114       -0.000  -0.000   0.000  -0.000
  115       -0.000  -0.000   0.000  -0.000
  116       -0.000  -0.000   0.000  -0.000
  117        0.000  -0.000   0.000  -0.000
  118       -0.000  -0.001   0.000  -0.001
  119       -0.000  -0.000   0.000  -0.000
  120       -0.000  -0.000   0.000  -0.000
  121       -0.000  -0.002   0.000  -0.002
  122       -0.000   0.000   0.000   0.000
  123       -0.000  -0.000   0.000  -0.000
  124       -0.000  -0.000   0.000  -0.000
  125       -0.000  -0.000   0.000  -0.000
  126       -0.000  -0.000   0.000  -0.000
  127       -0.000   0.000   0.000   0.000
  128        0.000  -0.000   0.000  -0.000
  129        0.000   0.000   0.000   0.000
  130       -0.000  -0.000   0.000  -0.000
  131       -0.000  -0.000   0.000  -0.000
  132       -0.000  -0.000   0.000  -0.000
  133       -0.000  -0.000   0.000  -0.000
  134       -0.000  -0.000   0.000  -0.000
  135       -0.000  -0.000   0.000  -0.000
  136       -0.000  -0.000   0.000  -0.000
  137       -0.000  -0.000   0.000  -0.000
  138       -0.000  -0.000   0.000  -0.000
  139       -0.000  -0.000   0.000  -0.000
  140       -0.000  -0.000   0.000  -0.000
  141       -0.000  -0.000   0.000  -0.000
  142        0.000  -0.000   0.000  -0.000
  143       -0.000  -0.000   0.000  -0.000
  144       -0.000   0.000   0.000   0.000
  145       -0.000  -0.000   0.000  -0.000
  146       -0.000  -0.000   0.000  -0.000
  147       -0.000  -0.000   0.000  -0.000
  148       -0.000  -0.000   0.000  -0.000
  149       -0.000   0.000   0.000   0.000
  150       -0.000  -0.000   0.000  -0.000
  151       -0.000  -0.000   0.000  -0.000
  152       -0.000  -0.000   0.000  -0.000
  153       -0.000  -0.000   0.000  -0.000
  154        0.000  -0.000   0.000  -0.000
  155        0.000  -0.000   0.000  -0.000
  156       -0.000  -0.000   0.000  -0.000
  157       -0.000  -0.000   0.000  -0.000
  158       -0.000   0.000   0.000   0.000
  159       -0.000  -0.000   0.000  -0.000
  160       -0.000  -0.000   0.000  -0.000
  161        0.000   0.000   0.000   0.000
  162       -0.000  -0.000   0.000  -0.000
  163       -0.000  -0.000   0.000  -0.000
  164       -0.000  -0.000   0.000  -0.000
  165       -0.000  -0.004   0.000  -0.004
  166       -0.000  -0.000   0.000  -0.000
  167       -0.000  -0.000   0.000  -0.000
  168       -0.000  -0.000   0.000  -0.000
  169        0.000  -0.000   0.000  -0.000
  170       -0.000  -0.000   0.000  -0.000
  171       -0.000   0.000   0.000  -0.000
  172        0.000  -0.000   0.000  -0.000
  173       -0.000   0.000   0.000   0.000
  174        0.000  -0.000   0.000  -0.000
  175        0.000  -0.000   0.000  -0.000
  176       -0.000  -0.000   0.000  -0.000
  177       -0.000  -0.000   0.000  -0.000
  178       -0.000  -0.000   0.000  -0.000
  179       -0.000  -0.000   0.000  -0.000
  180       -0.000  -0.000   0.000  -0.000
  181        0.000  -0.000   0.000  -0.000
  182       -0.000  -0.000   0.000  -0.000
  183       -0.000  -0.000   0.000  -0.000
  184       -0.000  -0.000   0.000  -0.000
  185       -0.000  -0.000   0.000  -0.000
  186       -0.000  -0.000   0.000  -0.000
  187       -0.000  -0.000   0.000  -0.000
  188       -0.000  -0.000   0.000  -0.000
  189       -0.000  -0.000   0.000  -0.000
  190       -0.000  -0.000   0.000  -0.000
  191        0.000  -0.000   0.000  -0.000
  192        0.000   0.000   0.000   0.000
  193       -0.000  -0.000   0.000  -0.000
  194        0.000   0.000   0.000   0.000
  195       -0.000  -0.000   0.000  -0.000
  196       -0.000  -0.000   0.000  -0.000
  197       -0.000  -0.000   0.000  -0.000
  198       -0.000  -0.000   0.000  -0.000
  199       -0.000   0.000   0.000   0.000
  200        0.000  -0.000   0.000   0.000
  201       -0.000  -0.000   0.000  -0.000
  202        0.000  -0.000   0.000  -0.000
  203       -0.000  -0.000   0.000  -0.000
  204       -0.000  -0.000   0.000  -0.000
  205       -0.000   0.000   0.000   0.000
  206       -0.000  -0.000   0.000  -0.000
  207        0.000  -0.000   0.000  -0.000
  208       -0.000  -0.000   0.000  -0.000
  209       -0.000  -0.000   0.000  -0.000
  210       -0.000  -0.000   0.000  -0.000
  211       -0.000  -0.000   0.000  -0.000
  212       -0.000  -0.000   0.000  -0.000
  213        0.000  -0.000   0.000  -0.000
  214        0.000   0.000   0.000   0.000
  215       -0.000  -0.000   0.000  -0.000
  216       -0.000  -0.000   0.000  -0.000
  217        0.000   0.000   0.000   0.000
  218        0.000  -0.000   0.000  -0.000
  219       -0.000  -0.000   0.000  -0.000
  220       -0.000  -0.000   0.000  -0.000
  221       -0.000  -0.000   0.000  -0.000
  222       -0.000  -0.000   0.000  -0.000
  223       -0.000   0.000   0.000   0.000
  224       -0.000  -0.000   0.000  -0.000
  225        0.000  -0.000   0.000  -0.000
  226        0.000  -0.000   0.000  -0.000
  227       -0.000  -0.000   0.000  -0.000
  228       -0.000  -0.000   0.000  -0.000
  229       -0.000   0.000   0.000   0.000
  230       -0.000  -0.000   0.000  -0.000
  231       -0.000  -0.000   0.000  -0.000
  232       -0.000  -0.000   0.000  -0.000
  233       -0.000  -0.000   0.000  -0.000
  234        0.000  -0.000   0.000  -0.000
  235       -0.000   0.000   0.000   0.000
  236        0.000  -0.000   0.000  -0.000
  237       -0.000   0.001   0.000   0.001
  238       -0.000  -0.000   0.000  -0.000
  239        0.000  -0.000   0.000  -0.000
  240       -0.000  -0.000   0.000  -0.000
  241       -0.000  -0.000   0.000  -0.000
  242        0.000  -0.000   0.000   0.000
  243        0.000  -0.000   0.000  -0.000
  244       -0.000   0.000   0.000   0.000
  245        0.000  -0.000   0.000  -0.000
  246       -0.000  -0.000   0.000  -0.000
  247        0.000  -0.000   0.000  -0.000
  248       -0.000   0.000   0.000   0.000
  249       -0.000   0.002   0.000   0.001
  250       -0.000  -0.000   0.000  -0.000
  251       -0.000  -0.000   0.000  -0.000
  252        0.000  -0.000   0.000  -0.000
  253       -0.000  -0.000   0.000  -0.000
  254       -0.000   0.000   0.000   0.000
  255        0.000   0.000   0.000   0.000
  256        0.000   0.000   0.000   0.000
  257       -0.000  -0.000   0.000  -0.000
--------------------------------------------------
tot          0.002  -0.030   0.969   0.940
 

 total amount of memory used by VASP MPI-rank0   291486. kBytes
=======================================================================

   base      :      30000. kBytes
   nonlr-proj:      49451. kBytes
   fftplans  :      27976. kBytes
   grid      :      34041. kBytes
   one-center:       1026. kBytes
   wavefun   :     148992. kBytes
 
  
  
 General timing and accounting informations for this job:
 ========================================================
  
                  Total CPU time used (sec):     1047.432
                            User time (sec):      708.663
                          System time (sec):      338.769
                         Elapsed time (sec):     1078.471
  
                   Maximum memory used (kb):      621672.
                   Average memory used (kb):           0.
  
                          Minor page faults:       103934
                          Major page faults:            4
                 Voluntary context switches:        17257
