 vasp.5.4.4.18Apr17-6-g9f103f2a35 (build Apr 30 2017 20:10:35) complex          
  
 executed on             LinuxIFC date 2017.08.06  09:37:28
 running on   64 total cores
 distrk:  each k-point on   64 cores,    1 groups
 distr:  one band on NCORES_PER_BAND=   8 cores,    8 groups


--------------------------------------------------------------------------------------------------------


 INCAR:
 POTCAR:   PAW_PBE Ti_pv 07Sep2000                
 POTCAR:   PAW_PBE O 08Apr2002                    
 POTCAR:    PAW_PBE F 08Apr2002                   
 POTCAR:   PAW_PBE Ti_pv 07Sep2000                
   VRHFIN =Ti: d3 s1                                                            
   LEXCH  = PE                                                                  
   EATOM  =  1042.3781 eV,   76.6126 Ry                                         
                                                                                
   TITEL  = PAW_PBE Ti_pv 07Sep2000                                             
   LULTRA =        F    use ultrasoft PP ?                                      
   IUNSCR =        1    unscreen: 0-lin 1-nonlin 2-no                           
   RPACOR =    2.200    partial core radius                                     
   POMASS =   47.880; ZVAL   =   10.000    mass and valenz                      
   RCORE  =    2.500    outmost cutoff radius                                   
   RWIGS  =    2.500; RWIGS  =    1.323    wigner-seitz radius (au A)           
   ENMAX  =  222.338; ENMIN  =  166.753 eV                                      
   RCLOC  =    1.701    cutoff for local pot                                    
   LCOR   =        T    correct aug charges                                     
   LPAW   =        T    paw PP                                                  
   EAUG   =  482.848                                                            
   DEXC   =    -.008                                                            
   RMAX   =    3.092    core radius for proj-oper                               
   RAUG   =    1.300    factor for augmentation sphere                          
   RDEP   =    2.538    radius for radial grids                                 
   QCUT   =   -4.042; QGAM   =    8.085    optimization parameters              
                                                                                
   Description                                                                  
     l     E      TYP  RCUT    TYP  RCUT                                        
     1   .000     23  2.300                                                     
     1  -.100     23  2.300                                                     
     2   .000     23  2.500                                                     
     2   .000     23  2.500                                                     
     0   .000     23  2.500                                                     
     0  1.500     23  2.500                                                     
     3   .000      7   .000                                                     
  local pseudopotential read in
  partial core-charges read in
  atomic valenz-charges read in
  non local Contribution for L=           1  read in
    real space projection operators read in
  non local Contribution for L=           1  read in
    real space projection operators read in
  non local Contribution for L=           2  read in
    real space projection operators read in
  non local Contribution for L=           2  read in
    real space projection operators read in
  non local Contribution for L=           0  read in
    real space projection operators read in
  non local Contribution for L=           0  read in
    real space projection operators read in
    PAW grid and wavefunctions read in
 
   number of l-projection  operators is LMAX  =           6
   number of lm-projection operators is LMMAX =          18
 
 POTCAR:   PAW_PBE O 08Apr2002                    
   VRHFIN =O: s2p4                                                              
   LEXCH  = PE                                                                  
   EATOM  =   432.3788 eV,   31.7789 Ry                                         
                                                                                
   TITEL  = PAW_PBE O 08Apr2002                                                 
   LULTRA =        F    use ultrasoft PP ?                                      
   IUNSCR =        0    unscreen: 0-lin 1-nonlin 2-no                           
   RPACOR =     .000    partial core radius                                     
   POMASS =   16.000; ZVAL   =    6.000    mass and valenz                      
   RCORE  =    1.520    outmost cutoff radius                                   
   RWIGS  =    1.550; RWIGS  =     .820    wigner-seitz radius (au A)           
   ENMAX  =  400.000; ENMIN  =  300.000 eV                                      
   ICORE  =        2    local potential                                         
   LCOR   =        T    correct aug charges                                     
   LPAW   =        T    paw PP                                                  
   EAUG   =  605.392                                                            
   DEXC   =     .000                                                            
   RMAX   =    2.264    core radius for proj-oper                               
   RAUG   =    1.300    factor for augmentation sphere                          
   RDEP   =    1.550    radius for radial grids                                 
   QCUT   =   -5.520; QGAM   =   11.041    optimization parameters              
                                                                                
   Description                                                                  
     l     E      TYP  RCUT    TYP  RCUT                                        
     0   .000     23  1.200                                                     
     0  -.700     23  1.200                                                     
     1   .000     23  1.520                                                     
     1   .600     23  1.520                                                     
     2   .000      7  1.500                                                     
  local pseudopotential read in
  atomic valenz-charges read in
  non local Contribution for L=           0  read in
    real space projection operators read in
  non local Contribution for L=           0  read in
    real space projection operators read in
  non local Contribution for L=           1  read in
    real space projection operators read in
  non local Contribution for L=           1  read in
    real space projection operators read in
    PAW grid and wavefunctions read in
 
   number of l-projection  operators is LMAX  =           4
   number of lm-projection operators is LMMAX =           8
 
 POTCAR:    PAW_PBE F 08Apr2002                   
   VRHFIN =F: s2p5                                                              
   LEXCH  = PE                                                                  
   EATOM  =   659.6475 eV,   48.4827 Ry                                         
                                                                                
   TITEL  = PAW_PBE F 08Apr2002                                                 
   LULTRA =        F    use ultrasoft PP ?                                      
   IUNSCR =        1    unscreen: 0-lin 1-nonlin 2-no                           
   RPACOR =    1.200    partial core radius                                     
   POMASS =   18.998; ZVAL   =    7.000    mass and valenz                      
   RCORE  =    1.520    outmost cutoff radius                                   
   RWIGS  =    1.500; RWIGS  =    0.794    wigner-seitz radius (au A)           
   ENMAX  =  400.000; ENMIN  =  300.000 eV                                      
   ICORE  =        2    local potential                                         
   LCOR   =        T    correct aug charges                                     
   LPAW   =        T    paw PP                                                  
   EAUG   =  613.614                                                            
   RMAX   =    1.555    core radius for proj-oper                               
   RAUG   =    1.300    factor for augmentation sphere                          
   RDEP   =    1.539    radius for radial grids                                 
   RDEPT  =    1.299    core radius for aug-charge                              
                                                                                
   Atomic configuration                                                         
    4 entries                                                                   
     n  l   j            E        occ.                                          
     1  0  0.50      -663.3661   2.0000                                         
     2  0  0.50       -29.8995   2.0000                                         
     2  1  0.50       -11.1114   5.0000                                         
     3  2  1.50       -10.8847   0.0000                                         
   Description                                                                  
     l       E           TYP  RCUT    TYP  RCUT                                 
     0    -29.8995018     23  1.200                                             
     0     -9.5240782     23  1.200                                             
     1    -11.1113914     23  1.520                                             
     1      1.3605826     23  1.520                                             
     2    -10.8846608      7  1.500                                             
  local pseudopotential read in
  partial core-charges read in
  partial kinetic energy density read in
  atomic valenz-charges read in
  non local Contribution for L=           0  read in
    real space projection operators read in
  non local Contribution for L=           0  read in
    real space projection operators read in
  non local Contribution for L=           1  read in
    real space projection operators read in
  non local Contribution for L=           1  read in
    real space projection operators read in
    PAW grid and wavefunctions read in
 
   number of l-projection  operators is LMAX  =           4
   number of lm-projection operators is LMMAX =           8
 
 Optimization of the real space projectors (new method)

 maximal supplied QI-value         = 15.12
 optimisation between [QCUT,QGAM] = [ 13.45, 27.06] = [ 50.69,205.06] Ry 
 Optimized for a Real-space Cutoff    1.49 Angstroem

   l    n(q)    QCUT    max X(q) W(low)/X(q) W(high)/X(q)  e(spline) 
   1     12    13.455     4.841    0.13E-05    0.83E-06    0.56E-07
   1     12    13.455     5.701    0.32E-04    0.25E-04    0.17E-06
   2     11    13.455     4.569    0.64E-05    0.34E-05    0.50E-07
   2     11    13.455    32.276    0.49E-04    0.38E-04    0.46E-06
   0     12    13.455    30.046    0.17E-04    0.41E-05    0.51E-07
   0     12    13.455    45.433    0.12E-04    0.27E-04    0.38E-06
 Optimization of the real space projectors (new method)

 maximal supplied QI-value         = 24.76
 optimisation between [QCUT,QGAM] = [ 13.37, 26.98] = [ 50.04,203.89] Ry 
 Optimized for a Real-space Cutoff    1.17 Angstroem

   l    n(q)    QCUT    max X(q) W(low)/X(q) W(high)/X(q)  e(spline) 
   0      9    13.368     4.192    0.20E-04    0.58E-05    0.56E-07
   0      9    13.368     8.473    0.60E-04    0.52E-04    0.21E-06
   1      9    13.368     2.474    0.22E-04    0.17E-04    0.28E-07
   1      9    13.368     3.912    0.94E-04    0.97E-04    0.20E-06
 Optimization of the real space projectors (new method)

 maximal supplied QI-value         = 24.76
 optimisation between [QCUT,QGAM] = [ 13.37, 26.98] = [ 50.04,203.89] Ry 
 Optimized for a Real-space Cutoff    1.17 Angstroem

   l    n(q)    QCUT    max X(q) W(low)/X(q) W(high)/X(q)  e(spline) 
   0      9    13.368    14.049    0.39E-04    0.34E-04    0.16E-06
   0      9    13.368     8.945    0.54E-04    0.47E-04    0.20E-06
   1      9    13.368     7.086    0.99E-04    0.10E-03    0.23E-06
   1      9    13.368     6.747    0.86E-04    0.89E-04    0.21E-06

 ----------------------------------------------------------------------------- 
|                                                                             |
|  ADVICE TO THIS USER RUNNING 'VASP/VAMP'   (HEAR YOUR MASTER'S VOICE ...):  |
|                                                                             |
|      You enforced a specific xc-type in the INCAR file,                     |
|      a different type was found on the POTCAR file                          |
|          I HOPE YOU KNOW, WHAT YOU ARE  DOING                               |
|                                                                             |
 ----------------------------------------------------------------------------- 

 PAW_PBE Ti_pv 07Sep2000                :
 energy of atom  1       EATOM=-1042.3781
 kinetic energy error for atom=    0.0006 (will be added to EATOM!!)
 PAW_PBE O 08Apr2002                    :
 energy of atom  2       EATOM= -432.3788
 kinetic energy error for atom=    0.0091 (will be added to EATOM!!)
  PAW_PBE F 08Apr2002                   :
 energy of atom  3       EATOM= -659.6475
 kinetic energy error for atom=    0.0140 (will be added to EATOM!!)
 
 
 POSCAR: TiOF2 2x2x2 config 0014                 
  positions in direct lattice
  velocities in cartesian coordinates
 exchange correlation table for  LEXCH =       14
   RHO(1)=    0.500       N(1)  =     2000
   RHO(2)=  100.500       N(2)  =     4000

 VTST: version 3.1, (03/28/14)

 CHAIN: initializing optimizer
 
 OPT: Using VASP QUASI-newton optimizer
 CHAIN: Read ICHAIN            0
 
 POSCAR: TiOF2 2x2x2 config 0014                 
  positions in direct lattice
  velocities in cartesian coordinates
 


--------------------------------------------------------------------------------------------------------


 ion  position               nearest neighbor table
   1  1.000  1.000  0.989-  11 1.80  21 1.91  17 1.91  27 1.95  25 1.95  31 1.97
   2  0.000  1.000  0.510-  11 1.82  18 1.88  22 1.88  28 1.95  26 1.95  31 1.97
   3  1.000  0.500  0.989-  12 1.80  23 1.91  19 1.91  27 1.95  25 1.95  32 1.97
   4  0.000  0.500  0.510-  12 1.82  20 1.88  24 1.88  28 1.95  26 1.95  32 1.97
   5  0.500  1.000  0.001-  13 1.84  14 1.84  30 1.94  29 1.94  21 2.06  17 2.06
   6  0.500  1.000  0.500-  13 1.93  14 1.94  10 1.94   9 1.94  22 2.09  18 2.09
   7  0.500  0.500  0.001-  15 1.84  16 1.84  30 1.94  29 1.94  23 2.06  19 2.06
   8  0.500  0.500  0.500-  15 1.93  16 1.94   9 1.94  10 1.94  24 2.09  20 2.09
   9  0.500  0.250  0.501-   8 1.94   6 1.94
  10  0.500  0.750  0.501-   6 1.94   8 1.94
  11  0.000  1.000  0.751-   1 1.80   2 1.82
  12  0.000  0.500  0.751-   3 1.80   4 1.82
  13  0.500  0.000  0.244-   5 1.84   6 1.93
  14  0.500  0.000  0.757-   5 1.84   6 1.94
  15  0.500  0.500  0.244-   7 1.84   8 1.93
  16  0.500  0.500  0.757-   7 1.84   8 1.94
  17  0.240  1.000  0.005-   1 1.91   5 2.06
  18  0.237  0.000  0.494-   2 1.88   6 2.09
  19  0.240  0.500  0.005-   3 1.91   7 2.06
  20  0.237  0.500  0.494-   4 1.88   8 2.09
  21  0.760  1.000  0.005-   1 1.91   5 2.06
  22  0.763  0.000  0.494-   2 1.88   6 2.09
  23  0.760  0.500  0.005-   3 1.91   7 2.06
  24  0.763  0.500  0.494-   4 1.88   8 2.09
  25  1.000  0.250  0.006-   1 1.95   3 1.95
  26  0.000  0.250  0.494-   2 1.95   4 1.95
  27  1.000  0.750  0.006-   1 1.95   3 1.95
  28  0.000  0.750  0.494-   2 1.95   4 1.95
  29  0.500  0.250  0.000-   7 1.94   5 1.94
  30  0.500  0.750  0.000-   7 1.94   5 1.94
  31  1.000  1.000  0.249-   1 1.97   2 1.97
  32  1.000  0.500  0.249-   3 1.97   4 1.97
 

IMPORTANT INFORMATION: All symmetrisations will be switched off!
NOSYMM: (Re-)initialisation of all symmetry stuff for point group C_1.

 
 
 KPOINTS: Title                                   

Automatic generation of k-mesh.
Space group operators:
 irot       det(A)        alpha          n_x          n_y          n_z        tau_x        tau_y        tau_z
    1     1.000000     0.000001     1.000000     0.000000     0.000000     0.000000     0.000000     0.000000
 
 Subroutine IBZKPT returns following result:
 ===========================================
 
 Found     32 irreducible k-points:
 
 Following reciprocal coordinates:
            Coordinates               Weight
  0.125000  0.125000  0.125000      2.000000
  0.375000  0.125000  0.125000      2.000000
 -0.375000  0.125000  0.125000      2.000000
 -0.125000  0.125000  0.125000      2.000000
  0.125000  0.375000  0.125000      2.000000
  0.375000  0.375000  0.125000      2.000000
 -0.375000  0.375000  0.125000      2.000000
 -0.125000  0.375000  0.125000      2.000000
  0.125000 -0.375000  0.125000      2.000000
  0.375000 -0.375000  0.125000      2.000000
 -0.375000 -0.375000  0.125000      2.000000
 -0.125000 -0.375000  0.125000      2.000000
  0.125000 -0.125000  0.125000      2.000000
  0.375000 -0.125000  0.125000      2.000000
 -0.375000 -0.125000  0.125000      2.000000
 -0.125000 -0.125000  0.125000      2.000000
  0.125000  0.125000  0.375000      2.000000
  0.375000  0.125000  0.375000      2.000000
 -0.375000  0.125000  0.375000      2.000000
 -0.125000  0.125000  0.375000      2.000000
  0.125000  0.375000  0.375000      2.000000
  0.375000  0.375000  0.375000      2.000000
 -0.375000  0.375000  0.375000      2.000000
 -0.125000  0.375000  0.375000      2.000000
  0.125000 -0.375000  0.375000      2.000000
  0.375000 -0.375000  0.375000      2.000000
 -0.375000 -0.375000  0.375000      2.000000
 -0.125000 -0.375000  0.375000      2.000000
  0.125000 -0.125000  0.375000      2.000000
  0.375000 -0.125000  0.375000      2.000000
 -0.375000 -0.125000  0.375000      2.000000
 -0.125000 -0.125000  0.375000      2.000000
 
 Following cartesian coordinates:
            Coordinates               Weight
  0.015756  0.016073  0.016552      2.000000
  0.047267  0.016073  0.016552      2.000000
 -0.047267  0.016073  0.016552      2.000000
 -0.015756  0.016073  0.016552      2.000000
  0.015756  0.048219  0.016552      2.000000
  0.047267  0.048219  0.016552      2.000000
 -0.047267  0.048219  0.016552      2.000000
 -0.015756  0.048219  0.016552      2.000000
  0.015756 -0.048219  0.016552      2.000000
  0.047267 -0.048219  0.016552      2.000000
 -0.047267 -0.048219  0.016552      2.000000
 -0.015756 -0.048219  0.016552      2.000000
  0.015756 -0.016073  0.016552      2.000000
  0.047267 -0.016073  0.016552      2.000000
 -0.047267 -0.016073  0.016552      2.000000
 -0.015756 -0.016073  0.016552      2.000000
  0.015756  0.016073  0.049657      2.000000
  0.047267  0.016073  0.049657      2.000000
 -0.047267  0.016073  0.049657      2.000000
 -0.015756  0.016073  0.049657      2.000000
  0.015756  0.048219  0.049657      2.000000
  0.047267  0.048219  0.049657      2.000000
 -0.047267  0.048219  0.049657      2.000000
 -0.015756  0.048219  0.049657      2.000000
  0.015756 -0.048219  0.049657      2.000000
  0.047267 -0.048219  0.049657      2.000000
 -0.047267 -0.048219  0.049657      2.000000
 -0.015756 -0.048219  0.049657      2.000000
  0.015756 -0.016073  0.049657      2.000000
  0.047267 -0.016073  0.049657      2.000000
 -0.047267 -0.016073  0.049657      2.000000
 -0.015756 -0.016073  0.049657      2.000000
 


--------------------------------------------------------------------------------------------------------




 Dimension of arrays:
   k-points           NKPTS =     32   k-points in BZ     NKDIM =     32   number of bands    NBANDS=    160
   number of dos      NEDOS =   3001   number of ions     NIONS =     32
   non local maximal  LDIM  =      6   non local SUM 2l+1 LMDIM =     18
   total plane-waves  NPLWV = 343000
   max r-space proj   IRMAX =  10207   max aug-charges    IRDMAX= 228814
   dimension x,y,z NGX =    70 NGY =   70 NGZ =   70
   dimension x,y,z NGXF=   140 NGYF=  140 NGZF=  140
   support grid    NGXF=   280 NGYF=  280 NGZF=  280
   ions per type =               8   8  16
   NGX,Y,Z   is equivalent  to a cutoff of  14.67, 14.96, 15.41 a.u.
   NGXF,Y,Z  is equivalent  to a cutoff of  29.34, 29.93, 30.82 a.u.

 SYSTEM =  LTO                                     
 POSCAR =  TiOF2 2x2x2 config 0014                 

 Startparameter for this run:
   NWRITE =      2    write-flag & timer
   PREC   = accura    normal or accurate (medium, high low for compatibility)
   ISTART =      1    job   : 0-new  1-cont  2-samecut
   ICHARG =      0    charge: 1-file 2-atom 10-const
   ISPIN  =      2    spin polarized calculation?
   LNONCOLLINEAR =      F non collinear calculations
   LSORBIT =      F    spin-orbit coupling
   INIWAV =      1    electr: 0-lowe 1-rand  2-diag
   LASPH  =      T    aspherical Exc in radial PAW
   METAGGA=      F    non-selfconsistent MetaGGA calc.

 Electronic Relaxation 1
   ENCUT  =  700.0 eV  51.45 Ry    7.17 a.u.  17.11 16.78 16.29*2*pi/ulx,y,z
   ENINI  =  700.0     initial cutoff
   ENAUG  =  613.6 eV  augmentation charge cutoff
   NELM   =     60;   NELMIN=  2; NELMDL=  0     # of ELM steps 
   EDIFF  = 0.1E-05   stopping-criterion for ELM
   LREAL  =      T    real-space projection
   NLSPLINE    = F    spline interpolate recip. space projectors
   LCOMPAT=      F    compatible to vasp.4.4
   GGA_COMPAT  = T    GGA compatible to vasp.4.4-vasp.4.6
   LMAXPAW     = -100 max onsite density
   LMAXMIX     =    4 max onsite mixed and CHGCAR
   VOSKOWN=      0    Vosko Wilk Nusair interpolation
   ROPT   =   -0.00010  -0.00010  -0.00010
 Ionic relaxation
   EDIFFG = -.1E-01   stopping-criterion for IOM
   NSW    =    100    number of steps for IOM
   NBLOCK =      1;   KBLOCK =    100    inner block; outer block 
   IBRION =      1    ionic relax: 0-MD 1-quasi-New 2-CG
   NFREE  =      0    steps in history (QN), initial steepest desc. (CG)
   ISIF   =      3    stress and relaxation
   IWAVPR =     11    prediction:  0-non 1-charg 2-wave 3-comb
   ISYM   =      0    0-nonsym 1-usesym 2-fastsym
   LCORR  =      T    Harris-Foulkes like correction to forces

   POTIM  = 0.5000    time-step for ionic-motion
   TEIN   =    0.0    initial temperature
   TEBEG  =    0.0;   TEEND  =   0.0 temperature during run
   SMASS  =  -3.00    Nose mass-parameter (am)
   estimated Nose-frequenzy (Omega)   =  0.10E-29 period in steps =****** mass=  -0.144E-26a.u.
   SCALEE = 1.0000    scale energy and forces
   NPACO  =    256;   APACO  = 16.0  distance and # of slots for P.C.
   PSTRESS=    0.0 pullay stress

  Mass of Ions in am
   POMASS =  47.88 16.00 19.00
  Ionic Valenz
   ZVAL   =  10.00  6.00  7.00
  Atomic Wigner-Seitz radii
   RWIGS  =  -1.00 -1.00 -1.00
  virtual crystal weights 
   VCA    =   1.00  1.00  1.00
   NELECT =     240.0000    total number of electrons
   NUPDOWN=      -1.0000    fix difference up-down

 DOS related values:
   EMIN   =  10.00;   EMAX   =-10.00  energy-range for DOS
   EFERMI =   0.00
   ISMEAR =     0;   SIGMA  =   0.01  broadening in eV -4-tet -1-fermi 0-gaus

 Electronic relaxation 2 (details)
   IALGO  =     38    algorithm
   LDIAG  =      T    sub-space diagonalisation (order eigenvalues)
   LSUBROT=      F    optimize rotation matrix (better conditioning)
   TURBO    =      0    0=normal 1=particle mesh
   IRESTART =      0    0=no restart 2=restart with 2 vectors
   NREBOOT  =      0    no. of reboots
   NMIN     =      0    reboot dimension
   EREF     =   0.00    reference energy to select bands
   IMIX   =      4    mixing-type and parameters
     AMIX     =   0.40;   BMIX     =  1.00
     AMIX_MAG =   1.60;   BMIX_MAG =  1.00
     AMIN     =   0.10
     WC   =   100.;   INIMIX=   1;  MIXPRE=   1;  MAXMIX= -45

 Intra band minimization:
   WEIMIN = 0.0010     energy-eigenvalue tresh-hold
   EBREAK =  0.16E-08  absolut break condition
   DEPER  =   0.30     relativ break condition  

   TIME   =   0.40     timestep for ELM

  volume/ion in A,a.u.               =      14.56        98.26
  Fermi-wavevector in a.u.,A,eV,Ry     =   1.312303  2.479893 23.431121  1.722139
  Thomas-Fermi vector in A             =   2.442705
 
 Write flags
   LWAVE        =      T    write WAVECAR
   LDOWNSAMPLE  =      F    k-point downsampling of WAVECAR
   LCHARG       =      T    write CHGCAR
   LVTOT        =      F    write LOCPOT, total local potential
   LVHAR        =      F    write LOCPOT, Hartree potential only
   LELF         =      F    write electronic localiz. function (ELF)
   LORBIT       =     11    0 simple, 1 ext, 2 COOP (PROOUT), +10 PAW based schemes


 Dipole corrections
   LMONO  =      F    monopole corrections only (constant potential shift)
   LDIPOL =      F    correct potential (dipole corrections)
   IDIPOL =      0    1-x, 2-y, 3-z, 4-all directions 
   EPSILON=  1.0000000 bulk dielectric constant

 LDA+U is selected, type is set to LDAUTYPE =  2
   angular momentum for each species LDAUL =     2   -1   -1
   U (eV)           for each species LDAUU =   4.2  0.0  0.0
   J (eV)           for each species LDAUJ =   0.0  0.0  0.0
 Exchange correlation treatment:
   GGA     =    PS    GGA type
   LEXCH   =    14    internal setting for exchange type
   VOSKOWN=      0    Vosko Wilk Nusair interpolation
   LHFCALC =     F    Hartree Fock is set to
   LHFONE  =     F    Hartree Fock one center treatment
   AEXX    =    0.0000 exact exchange contribution

 Linear response parameters
   LEPSILON=     F    determine dielectric tensor
   LRPA    =     F    only Hartree local field effects (RPA)
   LNABLA  =     F    use nabla operator in PAW spheres
   LVEL    =     F    velocity operator in full k-point grid
   LINTERFAST=   F  fast interpolation
   KINTER  =     0    interpolate to denser k-point grid
   CSHIFT  =0.1000    complex shift for real part using Kramers Kronig
   OMEGAMAX=  -1.0    maximum frequency
   DEG_THRESHOLD= 0.2000000E-02 threshold for treating states as degnerate
   RTIME   =   -0.100 relaxation time in fs
  (WPLASMAI=    0.000 imaginary part of plasma frequency in eV, 0.658/RTIME)
   DFIELD  = 0.0000000 0.0000000 0.0000000 field for delta impulse in time
 
 Orbital magnetization related:
   ORBITALMAG=     F  switch on orbital magnetization
   LCHIMAG   =     F  perturbation theory with respect to B field
   DQ        =  0.001000  dq finite difference perturbation B field
   LLRAUG    =     F  two centre corrections for induced B field



--------------------------------------------------------------------------------------------------------


 quasi-Newton-method for relaxation of ions
 charge density and potential will be updated during run
 spin polarized calculation
 Variant of blocked Davidson
 Davidson routine will perform the subspace rotation
 perform sub-space diagonalisation
    after iterative eigenvector-optimisation
 modified Broyden-mixing scheme, WC =      100.0
 initial mixing is a Kerker type mixing with AMIX =  0.4000 and BMIX =      1.0000
 Hartree-type preconditioning will be used
 using additional bands           40
 real space projection scheme for non local part
 use partial core corrections
 calculate Harris-corrections to forces 
   (improved forces if not selfconsistent)
 use gradient corrections 
 use of overlap-Matrix (Vanderbilt PP)
 Gauss-broadening in eV      SIGMA  =   0.01


--------------------------------------------------------------------------------------------------------


  energy-cutoff  :      700.00
  volume of cell :      465.94
      direct lattice vectors                 reciprocal lattice vectors
     7.933594391 -0.000000338 -0.000000097     0.126046272  0.000000005  0.000000001
    -0.000000335  7.777058469  0.000000303     0.000000005  0.128583320 -0.000000005
    -0.000000088  0.000000292  7.551759286     0.000000002 -0.000000005  0.132419475

  length of vectors
     7.933594391  7.777058469  7.551759286     0.126046272  0.128583320  0.132419475


 
 old parameters found on file WAVECAR:
  energy-cutoff  :      700.00
  volume of cell :      466.01
      direct lattice vectors                 reciprocal lattice vectors
     7.939178245 -0.000000002  0.000000008     0.125957620 -0.000000000 -0.000000000
     0.000000001  7.769330120 -0.000000009     0.000000000  0.128711225  0.000000000
     0.000000010 -0.000000011  7.555045522    -0.000000000  0.000000000  0.132361876

  length of vectors

 
 k-points in units of 2pi/SCALE and weight: Title                                   
   0.01575578  0.01607292  0.01655243       0.031
   0.04726735  0.01607292  0.01655243       0.031
  -0.04726735  0.01607291  0.01655243       0.031
  -0.01575578  0.01607291  0.01655243       0.031
   0.01575579  0.04821875  0.01655243       0.031
   0.04726735  0.04821875  0.01655243       0.031
  -0.04726735  0.04821874  0.01655243       0.031
  -0.01575578  0.04821874  0.01655243       0.031
   0.01575578 -0.04821875  0.01655244       0.031
   0.04726735 -0.04821874  0.01655244       0.031
  -0.04726735 -0.04821875  0.01655244       0.031
  -0.01575579 -0.04821875  0.01655244       0.031
   0.01575578 -0.01607292  0.01655244       0.031
   0.04726735 -0.01607291  0.01655244       0.031
  -0.04726735 -0.01607292  0.01655243       0.031
  -0.01575578 -0.01607292  0.01655243       0.031
   0.01575579  0.01607291  0.04965730       0.031
   0.04726735  0.01607292  0.04965730       0.031
  -0.04726735  0.01607291  0.04965730       0.031
  -0.01575578  0.01607291  0.04965730       0.031
   0.01575579  0.04821874  0.04965730       0.031
   0.04726735  0.04821875  0.04965730       0.031
  -0.04726735  0.04821874  0.04965730       0.031
  -0.01575578  0.04821874  0.04965730       0.031
   0.01575578 -0.04821875  0.04965731       0.031
   0.04726735 -0.04821875  0.04965731       0.031
  -0.04726735 -0.04821875  0.04965730       0.031
  -0.01575579 -0.04821875  0.04965730       0.031
   0.01575578 -0.01607292  0.04965730       0.031
   0.04726735 -0.01607291  0.04965730       0.031
  -0.04726735 -0.01607292  0.04965730       0.031
  -0.01575578 -0.01607292  0.04965730       0.031
 
 k-points in reciprocal lattice and weights: Title                                   
   0.12500000  0.12500000  0.12500000       0.031
   0.37500000  0.12500000  0.12500000       0.031
  -0.37500000  0.12500000  0.12500000       0.031
  -0.12500000  0.12500000  0.12500000       0.031
   0.12500000  0.37500000  0.12500000       0.031
   0.37500000  0.37500000  0.12500000       0.031
  -0.37500000  0.37500000  0.12500000       0.031
  -0.12500000  0.37500000  0.12500000       0.031
   0.12500000 -0.37500000  0.12500000       0.031
   0.37500000 -0.37500000  0.12500000       0.031
  -0.37500000 -0.37500000  0.12500000       0.031
  -0.12500000 -0.37500000  0.12500000       0.031
   0.12500000 -0.12500000  0.12500000       0.031
   0.37500000 -0.12500000  0.12500000       0.031
  -0.37500000 -0.12500000  0.12500000       0.031
  -0.12500000 -0.12500000  0.12500000       0.031
   0.12500000  0.12500000  0.37500000       0.031
   0.37500000  0.12500000  0.37500000       0.031
  -0.37500000  0.12500000  0.37500000       0.031
  -0.12500000  0.12500000  0.37500000       0.031
   0.12500000  0.37500000  0.37500000       0.031
   0.37500000  0.37500000  0.37500000       0.031
  -0.37500000  0.37500000  0.37500000       0.031
  -0.12500000  0.37500000  0.37500000       0.031
   0.12500000 -0.37500000  0.37500000       0.031
   0.37500000 -0.37500000  0.37500000       0.031
  -0.37500000 -0.37500000  0.37500000       0.031
  -0.12500000 -0.37500000  0.37500000       0.031
   0.12500000 -0.12500000  0.37500000       0.031
   0.37500000 -0.12500000  0.37500000       0.031
  -0.37500000 -0.12500000  0.37500000       0.031
  -0.12500000 -0.12500000  0.37500000       0.031
 
 position of ions in fractional coordinates (direct lattice) 
   0.99999999  0.99999995  0.98856892
   0.00000001  0.99999961  0.50989421
   0.99999999  0.50000000  0.98856805
   0.00000001  0.50000036  0.50989462
   0.50000000  0.99999997  0.00058526
   0.50000000  0.99999938  0.49980008
   0.50000000  0.50000028  0.00058498
   0.50000000  0.49999726  0.49980044
   0.50000000  0.25000057  0.50073130
   0.50000000  0.75000094  0.50073127
   0.00000001  0.99999892  0.75085774
   0.00000001  0.50000101  0.75085803
   0.50000000  0.00000030  0.24373178
   0.49999999  0.00000011  0.75711291
   0.50000000  0.50000084  0.24373100
   0.49999999  0.50000036  0.75711344
   0.23978833  0.99999995  0.00522502
   0.23692665  0.00000052  0.49434935
   0.23978844  0.49999997  0.00522491
   0.23692663  0.49999952  0.49434916
   0.76021166  0.99999997  0.00522499
   0.76307336  0.00000052  0.49434940
   0.76021155  0.49999999  0.00522488
   0.76307338  0.49999953  0.49434920
   0.99999997  0.24999999  0.00598623
   0.00000002  0.24999993  0.49433304
   0.99999997  0.74999995  0.00598629
   0.00000002  0.75000005  0.49433313
   0.50000003  0.25000034  0.00021010
   0.50000003  0.74999996  0.00021026
   0.99999999  0.99999996  0.24904008
   0.99999999  0.49999998  0.24903993
 
 position of ions in cartesian coordinates  (Angst):
   7.93359390  7.77705803  7.46543471
  -0.00000032  7.77705558  3.85059866
   7.93359407  3.88852916  7.46542797
  -0.00000016  3.88853220  3.85060158
   3.96679683  7.77705811  0.00441998
   3.96679685  7.77705360  3.77437019
   3.96679699  3.88853121  0.00441776
   3.96679701  3.88850788  3.77437271
   3.96679708  1.94426904  3.78140227
   3.96679691  5.83280111  3.78140220
  -0.00000033  7.77705032  5.67029722
  -0.00000016  3.88853735  5.67029926
   3.96679718  0.00000223  1.84060372
   3.96679705  0.00000092  5.71753442
   3.96679701  3.88853570  1.84059792
   3.96679688  3.88853212  5.71753853
   1.90238299  7.77705801  0.03945834
   1.87967990  0.00000410  3.73320730
   1.90238402  3.88852893  0.03945736
   1.87967958  3.88852558  3.73320599
   6.03121065  7.77705797  0.03945810
   6.05391446  0.00000396  3.73320758
   6.03120996  3.88852889  0.03945712
   6.05391444  3.88852544  3.73320626
   7.93359411  1.94426420  0.04520651
  -0.00000001  1.94426422  3.73308421
   7.93359394  5.83279315  0.04520713
  -0.00000017  5.83279439  3.73308505
   3.96679731  1.94426711  0.00158664
   3.96679715  5.83279334  0.00158803
   7.93359395  7.77705786  1.88069095
   7.93359411  3.88852885  1.88068966
 


--------------------------------------------------------------------------------------------------------


 k-point  1 :   0.1250 0.1250 0.1250  plane waves:   19585
 k-point  2 :   0.3750 0.1250 0.1250  plane waves:   19613
 k-point  3 :  -0.3750 0.1250 0.1250  plane waves:   19613
 k-point  4 :  -0.1250 0.1250 0.1250  plane waves:   19585
 k-point  5 :   0.1250 0.3750 0.1250  plane waves:   19601
 k-point  6 :   0.3750 0.3750 0.1250  plane waves:   19589
 k-point  7 :  -0.3750 0.3750 0.1250  plane waves:   19589
 k-point  8 :  -0.1250 0.3750 0.1250  plane waves:   19601
 k-point  9 :   0.1250-0.3750 0.1250  plane waves:   19601
 k-point 10 :   0.3750-0.3750 0.1250  plane waves:   19589
 k-point 11 :  -0.3750-0.3750 0.1250  plane waves:   19589
 k-point 12 :  -0.1250-0.3750 0.1250  plane waves:   19601
 k-point 13 :   0.1250-0.1250 0.1250  plane waves:   19585
 k-point 14 :   0.3750-0.1250 0.1250  plane waves:   19613
 k-point 15 :  -0.3750-0.1250 0.1250  plane waves:   19613
 k-point 16 :  -0.1250-0.1250 0.1250  plane waves:   19585
 k-point 17 :   0.1250 0.1250 0.3750  plane waves:   19574
 k-point 18 :   0.3750 0.1250 0.3750  plane waves:   19597
 k-point 19 :  -0.3750 0.1250 0.3750  plane waves:   19597
 k-point 20 :  -0.1250 0.1250 0.3750  plane waves:   19574
 k-point 21 :   0.1250 0.3750 0.3750  plane waves:   19587
 k-point 22 :   0.3750 0.3750 0.3750  plane waves:   19619
 k-point 23 :  -0.3750 0.3750 0.3750  plane waves:   19619
 k-point 24 :  -0.1250 0.3750 0.3750  plane waves:   19587
 k-point 25 :   0.1250-0.3750 0.3750  plane waves:   19587
 k-point 26 :   0.3750-0.3750 0.3750  plane waves:   19619
 k-point 27 :  -0.3750-0.3750 0.3750  plane waves:   19619
 k-point 28 :  -0.1250-0.3750 0.3750  plane waves:   19587
 k-point 29 :   0.1250-0.1250 0.3750  plane waves:   19574
 k-point 30 :   0.3750-0.1250 0.3750  plane waves:   19597
 k-point 31 :  -0.3750-0.1250 0.3750  plane waves:   19597
 k-point 32 :  -0.1250-0.1250 0.3750  plane waves:   19574

 maximum and minimum number of plane-waves per node :      2484     2415

 maximum number of plane-waves:     19619
 maximum index in each direction: 
   IXMAX=   17   IYMAX=   17   IZMAX=   16
   IXMIN=  -17   IYMIN=  -17   IZMIN=  -16


 real space projection operators:
  total allocation   :      18349.19 KBytes
  max/ min on nodes  :       2437.06       1907.59


 parallel 3D FFT for wavefunctions:
    minimum data exchange during FFTs selected (reduces bandwidth)
 parallel 3D FFT for charge:
    minimum data exchange during FFTs selected (reduces bandwidth)


 total amount of memory used by VASP MPI-rank0   107124. kBytes
=======================================================================

   base      :      30000. kBytes
   nonlr-proj:       8513. kBytes
   fftplans  :       8423. kBytes
   grid      :       8783. kBytes
   one-center:        124. kBytes
   wavefun   :      51281. kBytes
 
     INWAV:  cpu time   29.9954: real time   35.0808
 Broyden mixing: mesh for mixing (old mesh)
   NGX = 35   NGY = 33   NGZ = 33
  (NGX  =140   NGY  =140   NGZ  =140)
  gives a total of  38115 points

 charge density for first step will be calculated from the start-wavefunctions


--------------------------------------------------------------------------------------------------------


 Maximum index for non-local projection operator         1375
 Maximum index for augmentation-charges         7131 (set IRDMAX)


--------------------------------------------------------------------------------------------------------


 initial charge from wavefunction
 First call to EWALD:  gamma=   0.229
 Maximum number of real-space cells 3x 3x 3
 Maximum number of reciprocal cells 3x 3x 3

    FEWALD:  cpu time    0.0030: real time    0.0032


--------------------------------------- Iteration      1(   1)  ---------------------------------------


    POTLOK:  cpu time    0.3369: real time    0.4471
    SETDIJ:  cpu time    0.8379: real time    0.8384
     EDDAV:  cpu time   29.3625: real time   29.3952
       DOS:  cpu time    0.0050: real time    0.0054
    CHARGE:  cpu time    1.1698: real time    1.1702
    MIXING:  cpu time    0.0840: real time    0.0841
    --------------------------------------------
      LOOP:  cpu time   31.7962: real time   31.9405

 eigenvalue-minimisations  : 21728
 total energy-change (2. order) :-0.2092719E+03  (-0.6041858E-03)
 number of electron     240.0000003 magnetization       0.0392779
 augmentation part       61.9107760 magnetization       0.0127697

 Broyden mixing:
  rms(total) = 0.73478E-01    rms(broyden)= 0.73472E-01
  rms(prec ) = 0.13419E+00
  weight for this iteration     100.00

 Free energy of the ion-electron system (eV)
  ---------------------------------------------------
  alpha Z        PSCENC =       751.52011321
  Ewald energy   TEWEN  =    -12691.52230794
  -Hartree energ DENC   =     -8318.02369289
  -exchange      EXHF   =         0.00000000
  -V(xc)+E(xc)   XCENC  =      1119.11691795
  PAW double counting   =     17983.53070926   -18106.40824708
  entropy T*S    EENTRO =        -0.00274002
  eigenvalues    EBANDS =     -3249.83589645
  atomic energy  EATOM  =     22302.35321627
  Solvation  Ediel_sol  =         0.00000000
  ---------------------------------------------------
  free energy    TOTEN  =      -209.27192770 eV

  energy without entropy =     -209.26918768  energy(sigma->0) =     -209.27055769


--------------------------------------------------------------------------------------------------------




--------------------------------------- Iteration      1(   2)  ---------------------------------------


    POTLOK:  cpu time    0.2020: real time    0.2267
    SETDIJ:  cpu time    0.8499: real time    0.8480
     EDDAV:  cpu time   35.1207: real time   35.1439
       DOS:  cpu time    0.0060: real time    0.0055
    CHARGE:  cpu time    1.1778: real time    1.1777
    MIXING:  cpu time    0.0110: real time    0.0108
    --------------------------------------------
      LOOP:  cpu time   37.3673: real time   37.4126

 eigenvalue-minimisations  : 27328
 total energy-change (2. order) :-0.4876769E-01  (-0.4015230E-02)
 number of electron     240.0000003 magnetization       0.0678200
 augmentation part       62.1421504 magnetization      -0.0276959

 Broyden mixing:
  rms(total) = 0.25208E+00    rms(broyden)= 0.25206E+00
  rms(prec ) = 0.44151E+00
  weight for this iteration     100.00

 eigenvalues of (default mixing * dielectric matrix)
  average eigenvalue GAMMA=   0.1793
  0.1793

 Free energy of the ion-electron system (eV)
  ---------------------------------------------------
  alpha Z        PSCENC =       751.52011321
  Ewald energy   TEWEN  =    -12691.52230794
  -Hartree energ DENC   =     -8316.51855630
  -exchange      EXHF   =         0.00000000
  -V(xc)+E(xc)   XCENC  =      1119.14263734
  PAW double counting   =     17980.31358403   -18103.36253970
  entropy T*S    EENTRO =        -0.00139436
  eigenvalues    EBANDS =     -3251.24544795
  atomic energy  EATOM  =     22302.35321627
  Solvation  Ediel_sol  =         0.00000000
  ---------------------------------------------------
  free energy    TOTEN  =      -209.32069539 eV

  energy without entropy =     -209.31930104  energy(sigma->0) =     -209.31999821


--------------------------------------------------------------------------------------------------------




--------------------------------------- Iteration      1(   3)  ---------------------------------------


    POTLOK:  cpu time    0.1740: real time    0.1891
    SETDIJ:  cpu time    0.8829: real time    0.8822
     EDDAV:  cpu time   34.9067: real time   34.9345
       DOS:  cpu time    0.0050: real time    0.0055
    CHARGE:  cpu time    1.1808: real time    1.1783
    MIXING:  cpu time    0.0020: real time    0.0021
    --------------------------------------------
      LOOP:  cpu time   37.1514: real time   37.1916

 eigenvalue-minimisations  : 27200
 total energy-change (2. order) : 0.3927647E-01  (-0.2954566E-02)
 number of electron     240.0000003 magnetization      -0.0133077
 augmentation part       61.9172522 magnetization      -0.1007028

 Broyden mixing:
  rms(total) = 0.71495E-01    rms(broyden)= 0.71438E-01
  rms(prec ) = 0.11366E+00
  weight for this iteration     100.00

 eigenvalues of (default mixing * dielectric matrix)
  average eigenvalue GAMMA=   0.7133
  1.2303  0.1964

 Free energy of the ion-electron system (eV)
  ---------------------------------------------------
  alpha Z        PSCENC =       751.52011321
  Ewald energy   TEWEN  =    -12691.52230794
  -Hartree energ DENC   =     -8317.49238249
  -exchange      EXHF   =         0.00000000
  -V(xc)+E(xc)   XCENC  =      1119.10355236
  PAW double counting   =     17982.62817199   -18105.51040219
  entropy T*S    EENTRO =        -0.00139732
  eigenvalues    EBANDS =     -3250.35998281
  atomic energy  EATOM  =     22302.35321627
  Solvation  Ediel_sol  =         0.00000000
  ---------------------------------------------------
  free energy    TOTEN  =      -209.28141892 eV

  energy without entropy =     -209.28002160  energy(sigma->0) =     -209.28072026


--------------------------------------------------------------------------------------------------------




--------------------------------------- Iteration      1(   4)  ---------------------------------------


    POTLOK:  cpu time    0.2710: real time    0.3501
    SETDIJ:  cpu time    0.8449: real time    0.8441
     EDDAV:  cpu time   35.4136: real time   35.4229
       DOS:  cpu time    0.0050: real time    0.0054
    CHARGE:  cpu time    1.1658: real time    1.1648
    MIXING:  cpu time    0.0020: real time    0.0022
    --------------------------------------------
      LOOP:  cpu time   37.7023: real time   37.7894

 eigenvalue-minimisations  : 27392
 total energy-change (2. order) : 0.9582900E-02  (-0.3456463E-03)
 number of electron     240.0000003 magnetization      -0.0248556
 augmentation part       61.9910355 magnetization      -0.0347237

 Broyden mixing:
  rms(total) = 0.44919E-01    rms(broyden)= 0.44907E-01
  rms(prec ) = 0.83518E-01
  weight for this iteration     100.00

 eigenvalues of (default mixing * dielectric matrix)
  average eigenvalue GAMMA=   0.5155
  0.4551  0.2136  0.8778

 Free energy of the ion-electron system (eV)
  ---------------------------------------------------
  alpha Z        PSCENC =       751.52011321
  Ewald energy   TEWEN  =    -12691.52230794
  -Hartree energ DENC   =     -8317.89563183
  -exchange      EXHF   =         0.00000000
  -V(xc)+E(xc)   XCENC  =      1119.11573007
  PAW double counting   =     17983.35921805   -18106.23635301
  entropy T*S    EENTRO =        -0.00060094
  eigenvalues    EBANDS =     -3249.96521990
  atomic energy  EATOM  =     22302.35321627
  Solvation  Ediel_sol  =         0.00000000
  ---------------------------------------------------
  free energy    TOTEN  =      -209.27183602 eV

  energy without entropy =     -209.27123508  energy(sigma->0) =     -209.27153555


--------------------------------------------------------------------------------------------------------




--------------------------------------- Iteration      1(   5)  ---------------------------------------


    POTLOK:  cpu time    0.1540: real time    0.1749
    SETDIJ:  cpu time    0.8449: real time    0.8432
     EDDAV:  cpu time   35.9835: real time   35.9839
       DOS:  cpu time    0.0060: real time    0.0055
    CHARGE:  cpu time    1.1648: real time    1.1632
    MIXING:  cpu time    0.0030: real time    0.0023
    --------------------------------------------
      LOOP:  cpu time   38.1562: real time   38.1730

 eigenvalue-minimisations  : 28192
 total energy-change (2. order) :-0.4571536E-02  (-0.1002811E-03)
 number of electron     240.0000003 magnetization      -0.0096151
 augmentation part       61.9144103 magnetization       0.0251865

 Broyden mixing:
  rms(total) = 0.10104E+00    rms(broyden)= 0.10102E+00
  rms(prec ) = 0.14587E+00
  weight for this iteration     100.00

 eigenvalues of (default mixing * dielectric matrix)
  average eigenvalue GAMMA=   0.4020
  0.9228  0.4474  0.2148  0.0231

 Free energy of the ion-electron system (eV)
  ---------------------------------------------------
  alpha Z        PSCENC =       751.52011321
  Ewald energy   TEWEN  =    -12691.52230794
  -Hartree energ DENC   =     -8318.10040389
  -exchange      EXHF   =         0.00000000
  -V(xc)+E(xc)   XCENC  =      1119.12375855
  PAW double counting   =     17983.65574736   -18106.53421796
  entropy T*S    EENTRO =        -0.00124923
  eigenvalues    EBANDS =     -3249.77106393
  atomic energy  EATOM  =     22302.35321627
  Solvation  Ediel_sol  =         0.00000000
  ---------------------------------------------------
  free energy    TOTEN  =      -209.27640756 eV

  energy without entropy =     -209.27515833  energy(sigma->0) =     -209.27578294


--------------------------------------------------------------------------------------------------------




--------------------------------------- Iteration      1(   6)  ---------------------------------------


    POTLOK:  cpu time    0.2240: real time    0.2787
    SETDIJ:  cpu time    0.8639: real time    0.8644
     EDDAV:  cpu time   32.9930: real time   33.0141
       DOS:  cpu time    0.0060: real time    0.0053
    CHARGE:  cpu time    1.2158: real time    1.2152
    MIXING:  cpu time    0.0020: real time    0.0024
    --------------------------------------------
      LOOP:  cpu time   35.3046: real time   35.3801

 eigenvalue-minimisations  : 25280
 total energy-change (2. order) : 0.3491431E-02  (-0.2389851E-04)
 number of electron     240.0000003 magnetization      -0.0186303
 augmentation part       61.9341051 magnetization      -0.0235954

 Broyden mixing:
  rms(total) = 0.76445E-01    rms(broyden)= 0.76444E-01
  rms(prec ) = 0.98055E-01
  weight for this iteration     100.00

 eigenvalues of (default mixing * dielectric matrix)
  average eigenvalue GAMMA=   0.3783
  0.9293  0.4749  0.1551  0.2022  0.1301

 Free energy of the ion-electron system (eV)
  ---------------------------------------------------
  alpha Z        PSCENC =       751.52011321
  Ewald energy   TEWEN  =    -12691.52230794
  -Hartree energ DENC   =     -8317.96059989
  -exchange      EXHF   =         0.00000000
  -V(xc)+E(xc)   XCENC  =      1119.11865928
  PAW double counting   =     17983.41443430   -18106.29526714
  entropy T*S    EENTRO =        -0.00162299
  eigenvalues    EBANDS =     -3249.89954123
  atomic energy  EATOM  =     22302.35321627
  Solvation  Ediel_sol  =         0.00000000
  ---------------------------------------------------
  free energy    TOTEN  =      -209.27291613 eV

  energy without entropy =     -209.27129314  energy(sigma->0) =     -209.27210463


--------------------------------------------------------------------------------------------------------




--------------------------------------- Iteration      1(   7)  ---------------------------------------


    POTLOK:  cpu time    0.1450: real time    0.1688
    SETDIJ:  cpu time    0.8389: real time    0.8456
     EDDAV:  cpu time   29.8965: real time   30.0333
       DOS:  cpu time    0.0050: real time    0.0055
    CHARGE:  cpu time    1.2248: real time    1.2339
    MIXING:  cpu time    0.0020: real time    0.0025
    --------------------------------------------
      LOOP:  cpu time   32.1121: real time   32.2895

 eigenvalue-minimisations  : 22272
 total energy-change (2. order) :-0.5349449E-03  (-0.3819490E-05)
 number of electron     240.0000003 magnetization       0.0028643
 augmentation part       61.9257662 magnetization       0.0545160

 Broyden mixing:
  rms(total) = 0.82864E-01    rms(broyden)= 0.82863E-01
  rms(prec ) = 0.11478E+00
  weight for this iteration     100.00

 eigenvalues of (default mixing * dielectric matrix)
  average eigenvalue GAMMA=   0.3355
  0.7166  0.2797  0.2797  0.2879  0.2879  0.1610

 Free energy of the ion-electron system (eV)
  ---------------------------------------------------
  alpha Z        PSCENC =       751.52011321
  Ewald energy   TEWEN  =    -12691.52230794
  -Hartree energ DENC   =     -8317.96716775
  -exchange      EXHF   =         0.00000000
  -V(xc)+E(xc)   XCENC  =      1119.11887049
  PAW double counting   =     17983.43160532   -18106.31177821
  entropy T*S    EENTRO =        -0.00169084
  eigenvalues    EBANDS =     -3249.89431163
  atomic energy  EATOM  =     22302.35321627
  Solvation  Ediel_sol  =         0.00000000
  ---------------------------------------------------
  free energy    TOTEN  =      -209.27345107 eV

  energy without entropy =     -209.27176023  energy(sigma->0) =     -209.27260565


--------------------------------------------------------------------------------------------------------




--------------------------------------- Iteration      1(   8)  ---------------------------------------


    POTLOK:  cpu time    0.1530: real time    0.1794
    SETDIJ:  cpu time    0.8419: real time    0.8419
     EDDAV:  cpu time   37.5503: real time   37.5886
       DOS:  cpu time    0.0050: real time    0.0054
    CHARGE:  cpu time    1.1578: real time    1.1579
    MIXING:  cpu time    0.0020: real time    0.0024
    --------------------------------------------
      LOOP:  cpu time   39.7100: real time   39.7757

 eigenvalue-minimisations  : 29792
 total energy-change (2. order) : 0.1365816E-02  (-0.1713963E-04)
 number of electron     240.0000003 magnetization       0.0165415
 augmentation part       61.9974767 magnetization       0.0132097

 Broyden mixing:
  rms(total) = 0.49534E-01    rms(broyden)= 0.49514E-01
  rms(prec ) = 0.91932E-01
  weight for this iteration     100.00

 eigenvalues of (default mixing * dielectric matrix)
  average eigenvalue GAMMA=   0.3797
  0.6096  0.5336  0.5336  0.3262  0.2478  0.2478  0.1596

 Free energy of the ion-electron system (eV)
  ---------------------------------------------------
  alpha Z        PSCENC =       751.52011321
  Ewald energy   TEWEN  =    -12691.52230794
  -Hartree energ DENC   =     -8317.76310088
  -exchange      EXHF   =         0.00000000
  -V(xc)+E(xc)   XCENC  =      1119.11195317
  PAW double counting   =     17983.04220430   -18105.92802428
  entropy T*S    EENTRO =        -0.00039466
  eigenvalues    EBANDS =     -3250.08574444
  atomic energy  EATOM  =     22302.35321627
  Solvation  Ediel_sol  =         0.00000000
  ---------------------------------------------------
  free energy    TOTEN  =      -209.27208526 eV

  energy without entropy =     -209.27169059  energy(sigma->0) =     -209.27188792


--------------------------------------------------------------------------------------------------------




--------------------------------------- Iteration      1(   9)  ---------------------------------------


    POTLOK:  cpu time    0.1450: real time    0.1560
    SETDIJ:  cpu time    0.8439: real time    0.8428
     EDDAV:  cpu time   31.2602: real time   31.2848
       DOS:  cpu time    0.0060: real time    0.0056
    CHARGE:  cpu time    1.1748: real time    1.1737
    MIXING:  cpu time    0.0020: real time    0.0028
    --------------------------------------------
      LOOP:  cpu time   33.4319: real time   33.4657

 eigenvalue-minimisations  : 23552
 total energy-change (2. order) :-0.1203877E-03  (-0.1488884E-04)
 number of electron     240.0000003 magnetization       0.0055003
 augmentation part       61.9773149 magnetization      -0.0294762

 Broyden mixing:
  rms(total) = 0.27913E-01    rms(broyden)= 0.27912E-01
  rms(prec ) = 0.43387E-01
  weight for this iteration     100.00

 eigenvalues of (default mixing * dielectric matrix)
  average eigenvalue GAMMA=   0.4160
  0.5871  0.6833  0.6833  0.4663  0.2511  0.2484  0.2484  0.1604

 Free energy of the ion-electron system (eV)
  ---------------------------------------------------
  alpha Z        PSCENC =       751.52011321
  Ewald energy   TEWEN  =    -12691.52230794
  -Hartree energ DENC   =     -8317.75327766
  -exchange      EXHF   =         0.00000000
  -V(xc)+E(xc)   XCENC  =      1119.11088287
  PAW double counting   =     17983.04063312   -18105.92743971
  entropy T*S    EENTRO =        -0.00138699
  eigenvalues    EBANDS =     -3250.09263880
  atomic energy  EATOM  =     22302.35321627
  Solvation  Ediel_sol  =         0.00000000
  ---------------------------------------------------
  free energy    TOTEN  =      -209.27220564 eV

  energy without entropy =     -209.27081865  energy(sigma->0) =     -209.27151215


--------------------------------------------------------------------------------------------------------




--------------------------------------- Iteration      1(  10)  ---------------------------------------


    POTLOK:  cpu time    0.1460: real time    0.1797
    SETDIJ:  cpu time    0.8419: real time    0.8426
     EDDAV:  cpu time   36.1015: real time   36.2203
       DOS:  cpu time    0.0050: real time    0.0056
    CHARGE:  cpu time    1.1678: real time    1.1679
    MIXING:  cpu time    0.0030: real time    0.0028
    --------------------------------------------
      LOOP:  cpu time   38.2652: real time   38.4188

 eigenvalue-minimisations  : 28352
 total energy-change (2. order) : 0.7687035E-03  (-0.5329728E-05)
 number of electron     240.0000003 magnetization       0.0012051
 augmentation part       61.9827578 magnetization      -0.0184677

 Broyden mixing:
  rms(total) = 0.31409E-01    rms(broyden)= 0.31409E-01
  rms(prec ) = 0.55014E-01
  weight for this iteration     100.00

 eigenvalues of (default mixing * dielectric matrix)
  average eigenvalue GAMMA=   0.4697
  0.8392  0.8392  0.5857  0.5243  0.5243  0.2520  0.2510  0.2510  0.1605

 Free energy of the ion-electron system (eV)
  ---------------------------------------------------
  alpha Z        PSCENC =       751.52011321
  Ewald energy   TEWEN  =    -12691.52230794
  -Hartree energ DENC   =     -8317.85347396
  -exchange      EXHF   =         0.00000000
  -V(xc)+E(xc)   XCENC  =      1119.11452450
  PAW double counting   =     17983.24261504   -18106.12677159
  entropy T*S    EENTRO =        -0.00118675
  eigenvalues    EBANDS =     -3249.99816572
  atomic energy  EATOM  =     22302.35321627
  Solvation  Ediel_sol  =         0.00000000
  ---------------------------------------------------
  free energy    TOTEN  =      -209.27143694 eV

  energy without entropy =     -209.27025019  energy(sigma->0) =     -209.27084356


--------------------------------------------------------------------------------------------------------




--------------------------------------- Iteration      1(  11)  ---------------------------------------


    POTLOK:  cpu time    0.1580: real time    0.1817
    SETDIJ:  cpu time    0.8419: real time    0.8419
     EDDAV:  cpu time   34.2038: real time   34.3239
       DOS:  cpu time    0.0060: real time    0.0054
    CHARGE:  cpu time    1.2078: real time    1.2085
    MIXING:  cpu time    0.0030: real time    0.0029
    --------------------------------------------
      LOOP:  cpu time   36.4205: real time   36.5643

 eigenvalue-minimisations  : 26592
 total energy-change (2. order) : 0.3018469E-03  (-0.1854095E-05)
 number of electron     240.0000003 magnetization       0.0018821
 augmentation part       61.9775410 magnetization      -0.0059357

 Broyden mixing:
  rms(total) = 0.22403E-01    rms(broyden)= 0.22403E-01
  rms(prec ) = 0.40381E-01
  weight for this iteration     100.00

 eigenvalues of (default mixing * dielectric matrix)
  average eigenvalue GAMMA=   0.5033
  0.9869  0.9869  0.5841  0.5668  0.5668  0.4311  0.2508  0.2495  0.2495  0.1605

 Free energy of the ion-electron system (eV)
  ---------------------------------------------------
  alpha Z        PSCENC =       751.52011321
  Ewald energy   TEWEN  =    -12691.52230794
  -Hartree energ DENC   =     -8317.89984850
  -exchange      EXHF   =         0.00000000
  -V(xc)+E(xc)   XCENC  =      1119.11606471
  PAW double counting   =     17983.34043237   -18106.22350656
  entropy T*S    EENTRO =        -0.00149132
  eigenvalues    EBANDS =     -3249.95380733
  atomic energy  EATOM  =     22302.35321627
  Solvation  Ediel_sol  =         0.00000000
  ---------------------------------------------------
  free energy    TOTEN  =      -209.27113509 eV

  energy without entropy =     -209.26964377  energy(sigma->0) =     -209.27038943


--------------------------------------------------------------------------------------------------------




--------------------------------------- Iteration      1(  12)  ---------------------------------------


    POTLOK:  cpu time    0.1400: real time    0.1625
    SETDIJ:  cpu time    0.8399: real time    0.8452
     EDDAV:  cpu time   27.8958: real time   28.0645
       DOS:  cpu time    0.0060: real time    0.0058
    CHARGE:  cpu time    1.2028: real time    1.2135
    MIXING:  cpu time    0.0030: real time    0.0032
    --------------------------------------------
      LOOP:  cpu time   30.0874: real time   30.2946

 eigenvalue-minimisations  : 20064
 total energy-change (2. order) : 0.3080621E-04  (-0.3941077E-06)
 number of electron     240.0000003 magnetization      -0.0027574
 augmentation part       61.9724464 magnetization      -0.0166895

 Broyden mixing:
  rms(total) = 0.18703E-01    rms(broyden)= 0.18703E-01
  rms(prec ) = 0.29161E-01
  weight for this iteration     100.00

 eigenvalues of (default mixing * dielectric matrix)
  average eigenvalue GAMMA=   0.5584
  1.1169  1.1169  0.5838  0.6236  0.6236  0.1605  0.6310  0.5360  0.2496  0.2496
  0.2509

 Free energy of the ion-electron system (eV)
  ---------------------------------------------------
  alpha Z        PSCENC =       751.52011321
  Ewald energy   TEWEN  =    -12691.52230794
  -Hartree energ DENC   =     -8317.90694113
  -exchange      EXHF   =         0.00000000
  -V(xc)+E(xc)   XCENC  =      1119.11586219
  PAW double counting   =     17983.37143261   -18106.25371598
  entropy T*S    EENTRO =        -0.00167661
  eigenvalues    EBANDS =     -3249.94708692
  atomic energy  EATOM  =     22302.35321627
  Solvation  Ediel_sol  =         0.00000000
  ---------------------------------------------------
  free energy    TOTEN  =      -209.27110429 eV

  energy without entropy =     -209.26942768  energy(sigma->0) =     -209.27026598


--------------------------------------------------------------------------------------------------------




--------------------------------------- Iteration      1(  13)  ---------------------------------------


    POTLOK:  cpu time    0.1870: real time    0.4154
    SETDIJ:  cpu time    0.8439: real time    0.8427
     EDDAV:  cpu time   27.6798: real time   27.7015
       DOS:  cpu time    0.0060: real time    0.0056
    CHARGE:  cpu time    1.1758: real time    1.1741
    MIXING:  cpu time    0.0030: real time    0.0032
    --------------------------------------------
      LOOP:  cpu time   29.8955: real time   30.1425

 eigenvalue-minimisations  : 20064
 total energy-change (2. order) : 0.5192917E-04  (-0.3378549E-06)
 number of electron     240.0000003 magnetization      -0.0002931
 augmentation part       61.9683724 magnetization       0.0168980

 Broyden mixing:
  rms(total) = 0.13657E-01    rms(broyden)= 0.13657E-01
  rms(prec ) = 0.19089E-01
  weight for this iteration     100.00

 eigenvalues of (default mixing * dielectric matrix)
  average eigenvalue GAMMA=   0.5565
  1.2606  1.2606  0.5836  0.6753  0.6753  0.5844  0.5844  0.2513  0.2499  0.2499
  0.1605  0.1427

 Free energy of the ion-electron system (eV)
  ---------------------------------------------------
  alpha Z        PSCENC =       751.52011321
  Ewald energy   TEWEN  =    -12691.52230794
  -Hartree energ DENC   =     -8317.92850556
  -exchange      EXHF   =         0.00000000
  -V(xc)+E(xc)   XCENC  =      1119.11658640
  PAW double counting   =     17983.41466660   -18106.29620883
  entropy T*S    EENTRO =        -0.00184704
  eigenvalues    EBANDS =     -3249.92676546
  atomic energy  EATOM  =     22302.35321627
  Solvation  Ediel_sol  =         0.00000000
  ---------------------------------------------------
  free energy    TOTEN  =      -209.27105236 eV

  energy without entropy =     -209.26920532  energy(sigma->0) =     -209.27012884


--------------------------------------------------------------------------------------------------------




--------------------------------------- Iteration      1(  14)  ---------------------------------------


    POTLOK:  cpu time    0.3130: real time    0.3480
    SETDIJ:  cpu time    0.8439: real time    0.8428
     EDDAV:  cpu time   23.9324: real time   23.9813
       DOS:  cpu time    0.0060: real time    0.0056
    CHARGE:  cpu time    1.1638: real time    1.1615
    MIXING:  cpu time    0.0030: real time    0.0036
    --------------------------------------------
      LOOP:  cpu time   26.2620: real time   26.3428

 eigenvalue-minimisations  : 16224
 total energy-change (2. order) : 0.4303632E-04  (-0.1920270E-06)
 number of electron     240.0000003 magnetization      -0.0012584
 augmentation part       61.9659473 magnetization      -0.0009047

 Broyden mixing:
  rms(total) = 0.50625E-02    rms(broyden)= 0.50620E-02
  rms(prec ) = 0.94119E-02
  weight for this iteration     100.00

 eigenvalues of (default mixing * dielectric matrix)
  average eigenvalue GAMMA=   0.6062
  1.4697  1.4697  0.5834  0.7315  0.7315  0.1605  0.6653  0.5070  0.5070  0.2500
  0.2500  0.2492  0.3061

 Free energy of the ion-electron system (eV)
  ---------------------------------------------------
  alpha Z        PSCENC =       751.52011321
  Ewald energy   TEWEN  =    -12691.52230794
  -Hartree energ DENC   =     -8317.93205033
  -exchange      EXHF   =         0.00000000
  -V(xc)+E(xc)   XCENC  =      1119.11648328
  PAW double counting   =     17983.43284294   -18106.31435114
  entropy T*S    EENTRO =        -0.00196377
  eigenvalues    EBANDS =     -3249.92299184
  atomic energy  EATOM  =     22302.35321627
  Solvation  Ediel_sol  =         0.00000000
  ---------------------------------------------------
  free energy    TOTEN  =      -209.27100932 eV

  energy without entropy =     -209.26904555  energy(sigma->0) =     -209.27002744


--------------------------------------------------------------------------------------------------------




--------------------------------------- Iteration      1(  15)  ---------------------------------------


    POTLOK:  cpu time    0.1540: real time    0.1713
    SETDIJ:  cpu time    0.8399: real time    0.8416
     EDDAV:  cpu time   22.2456: real time   22.2536
       DOS:  cpu time    0.0050: real time    0.0054
    CHARGE:  cpu time    1.1618: real time    1.1593
    MIXING:  cpu time    0.0040: real time    0.0036
    --------------------------------------------
      LOOP:  cpu time   24.4103: real time   24.4348

 eigenvalue-minimisations  : 14304
 total energy-change (2. order) :-0.1949160E-05  (-0.1121074E-06)
 number of electron     240.0000003 magnetization       0.0005543
 augmentation part       61.9614362 magnetization       0.0089624

 Broyden mixing:
  rms(total) = 0.54428E-02    rms(broyden)= 0.54419E-02
  rms(prec ) = 0.57935E-02
  weight for this iteration     100.00

 eigenvalues of (default mixing * dielectric matrix)
  average eigenvalue GAMMA=   0.6678
  1.7337  1.7337  0.5834  0.8888  0.8888  0.6455  0.6455  0.1605  0.5362  0.5362
  0.2502  0.2502  0.2565  0.2401

 Free energy of the ion-electron system (eV)
  ---------------------------------------------------
  alpha Z        PSCENC =       751.52011321
  Ewald energy   TEWEN  =    -12691.52230794
  -Hartree energ DENC   =     -8317.94684915
  -exchange      EXHF   =         0.00000000
  -V(xc)+E(xc)   XCENC  =      1119.11694183
  PAW double counting   =     17983.46287152   -18106.34422682
  entropy T*S    EENTRO =        -0.00210381
  eigenvalues    EBANDS =     -3249.90866639
  atomic energy  EATOM  =     22302.35321627
  Solvation  Ediel_sol  =         0.00000000
  ---------------------------------------------------
  free energy    TOTEN  =      -209.27101127 eV

  energy without entropy =     -209.26890746  energy(sigma->0) =     -209.26995936


--------------------------------------------------------------------------------------------------------




--------------------------------------- Iteration      1(  16)  ---------------------------------------


    POTLOK:  cpu time    0.2310: real time    0.2515
    SETDIJ:  cpu time    0.8479: real time    0.8477
     EDDAV:  cpu time   20.8848: real time   20.9330
       DOS:  cpu time    0.0050: real time    0.0053
    CHARGE:  cpu time    1.1608: real time    1.1599
    MIXING:  cpu time    0.0040: real time    0.0036
    --------------------------------------------
      LOOP:  cpu time   23.1335: real time   23.2010

 eigenvalue-minimisations  : 13024
 total energy-change (2. order) : 0.2449964E-05  (-0.5805412E-07)
 number of electron     240.0000003 magnetization      -0.0003025
 augmentation part       61.9630934 magnetization      -0.0052413

 Broyden mixing:
  rms(total) = 0.39132E-02    rms(broyden)= 0.39129E-02
  rms(prec ) = 0.42349E-02
  weight for this iteration     100.00

 eigenvalues of (default mixing * dielectric matrix)
  average eigenvalue GAMMA=   0.6919
  1.7915  1.7915  0.5834  0.9429  0.9429  0.1605  0.6815  0.6815  0.7255  0.5391
  0.5391  0.2502  0.2502  0.2574  0.2413

 Free energy of the ion-electron system (eV)
  ---------------------------------------------------
  alpha Z        PSCENC =       751.52011321
  Ewald energy   TEWEN  =    -12691.52230794
  -Hartree energ DENC   =     -8317.94083701
  -exchange      EXHF   =         0.00000000
  -V(xc)+E(xc)   XCENC  =      1119.11675498
  PAW double counting   =     17983.44901296   -18106.33073350
  entropy T*S    EENTRO =        -0.00205519
  eigenvalues    EBANDS =     -3249.91417259
  atomic energy  EATOM  =     22302.35321627
  Solvation  Ediel_sol  =         0.00000000
  ---------------------------------------------------
  free energy    TOTEN  =      -209.27100882 eV

  energy without entropy =     -209.26895363  energy(sigma->0) =     -209.26998122


--------------------------------------------------------------------------------------------------------




--------------------------------------- Iteration      1(  17)  ---------------------------------------


    POTLOK:  cpu time    0.1460: real time    0.1623
    SETDIJ:  cpu time    0.8459: real time    0.8460
     EDDAV:  cpu time   18.7232: real time   18.7665
       DOS:  cpu time    0.0050: real time    0.0054
    CHARGE:  cpu time    1.1638: real time    1.1619
    MIXING:  cpu time    0.0040: real time    0.0038
    --------------------------------------------
      LOOP:  cpu time   20.8878: real time   20.9459

 eigenvalue-minimisations  : 10752
 total energy-change (2. order) : 0.3041274E-05  (-0.1563831E-07)
 number of electron     240.0000003 magnetization       0.0001678
 augmentation part       61.9621276 magnetization       0.0023963

 Broyden mixing:
  rms(total) = 0.15845E-02    rms(broyden)= 0.15843E-02
  rms(prec ) = 0.16544E-02
  weight for this iteration     100.00

 eigenvalues of (default mixing * dielectric matrix)
  average eigenvalue GAMMA=   0.7138
  1.8742  1.8742  0.5834  1.0289  1.0289  0.7492  0.7492  0.1605  0.6406  0.6406
  0.6160  0.4771  0.2502  0.2502  0.2568  0.2407

 Free energy of the ion-electron system (eV)
  ---------------------------------------------------
  alpha Z        PSCENC =       751.52011321
  Ewald energy   TEWEN  =    -12691.52230794
  -Hartree energ DENC   =     -8317.94550383
  -exchange      EXHF   =         0.00000000
  -V(xc)+E(xc)   XCENC  =      1119.11694651
  PAW double counting   =     17983.45466088   -18106.33636252
  entropy T*S    EENTRO =        -0.00208834
  eigenvalues    EBANDS =     -3249.90968003
  atomic energy  EATOM  =     22302.35321627
  Solvation  Ediel_sol  =         0.00000000
  ---------------------------------------------------
  free energy    TOTEN  =      -209.27100578 eV

  energy without entropy =     -209.26891744  energy(sigma->0) =     -209.26996161


--------------------------------------------------------------------------------------------------------




--------------------------------------- Iteration      1(  18)  ---------------------------------------


    POTLOK:  cpu time    0.1840: real time    0.2866
    SETDIJ:  cpu time    0.8439: real time    0.8418
     EDDAV:  cpu time   18.0083: real time   18.0302
       DOS:  cpu time    0.0050: real time    0.0056
    --------------------------------------------
      LOOP:  cpu time   19.0411: real time   19.1642

 eigenvalue-minimisations  : 10240
 total energy-change (2. order) : 0.2926827E-06  (-0.7024069E-08)
 number of electron     240.0000003 magnetization       0.0001678
 augmentation part       61.9621276 magnetization       0.0023963

 Free energy of the ion-electron system (eV)
  ---------------------------------------------------
  alpha Z        PSCENC =       751.52011321
  Ewald energy   TEWEN  =    -12691.52230794
  -Hartree energ DENC   =     -8317.94312765
  -exchange      EXHF   =         0.00000000
  -V(xc)+E(xc)   XCENC  =      1119.11687030
  PAW double counting   =     17983.44876902   -18106.33059451
  entropy T*S    EENTRO =        -0.00206901
  eigenvalues    EBANDS =     -3249.91187517
  atomic energy  EATOM  =     22302.35321627
  Solvation  Ediel_sol  =         0.00000000
  ---------------------------------------------------
  free energy    TOTEN  =      -209.27100549 eV

  energy without entropy =     -209.26893648  energy(sigma->0) =     -209.26997098


--------------------------------------------------------------------------------------------------------




 average (electrostatic) potential at core
  the test charge radii are     1.0397  0.7215  0.7167
  (the norm of the test charge is              1.0000)
       1 -59.9014       2 -59.8009       3 -59.9014       4 -59.8009       5 -58.0985
       6 -57.5538       7 -58.0984       8 -57.5538       9 -72.3780      10 -72.3780
      11 -75.1347      12 -75.1347      13 -72.8175      14 -72.8145      15 -72.8175
      16 -72.8146      17 -79.6094      18 -79.3586      19 -79.6094      20 -79.3586
      21 -79.6094      22 -79.3586      23 -79.6094      24 -79.3586      25 -80.3725
      26 -80.2106      27 -80.3724      28 -80.2107      29 -78.8941      30 -78.8941
      31 -79.7785      32 -79.7784
 
 
 
 E-fermi :   0.9268     XC(G=0):  -8.9424     alpha+bet : -7.5837


 spin component 1

 k-point     1 :       0.1250    0.1250    0.1250
  band No.  band energies     occupation 
      1     -35.9396      1.00000
      2     -35.9040      1.00000
      3     -35.9019      1.00000
      4     -35.8343      1.00000
      5     -35.8209      1.00000
      6     -35.7855      1.00000
      7     -35.7834      1.00000
      8     -35.7393      1.00000
      9     -35.7366      1.00000
     10     -35.7161      1.00000
     11     -35.6105      1.00000
     12     -35.6082      1.00000
     13     -34.2412      1.00000
     14     -34.2390      1.00000
     15     -34.2376      1.00000
     16     -34.1248      1.00000
     17     -33.6838      1.00000
     18     -33.6814      1.00000
     19     -33.6535      1.00000
     20     -33.6515      1.00000
     21     -33.3039      1.00000
     22     -33.3019      1.00000
     23     -33.2214      1.00000
     24     -33.1712      1.00000
     25     -24.2692      1.00000
     26     -24.1002      1.00000
     27     -23.7788      1.00000
     28     -23.6157      1.00000
     29     -23.5360      1.00000
     30     -23.5022      1.00000
     31     -23.3787      1.00000
     32     -23.3724      1.00000
     33     -23.1472      1.00000
     34     -23.1438      1.00000
     35     -23.0168      1.00000
     36     -23.0053      1.00000
     37     -22.7614      1.00000
     38     -22.7230      1.00000
     39     -22.7147      1.00000
     40     -22.2994      1.00000
     41     -17.6002      1.00000
     42     -17.5814      1.00000
     43     -15.8090      1.00000
     44     -15.7281      1.00000
     45     -15.0553      1.00000
     46     -14.8776      1.00000
     47     -14.8706      1.00000
     48     -14.4792      1.00000
     49      -7.8752      1.00000
     50      -7.7279      1.00000
     51      -7.1687      1.00000
     52      -7.0899      1.00000
     53      -6.9934      1.00000
     54      -6.9754      1.00000
     55      -6.6963      1.00000
     56      -6.6942      1.00000
     57      -6.4989      1.00000
     58      -6.4353      1.00000
     59      -6.3522      1.00000
     60      -6.2422      1.00000
     61      -6.2261      1.00000
     62      -6.0033      1.00000
     63      -5.9863      1.00000
     64      -5.8280      1.00000
     65      -5.6685      1.00000
     66      -5.4728      1.00000
     67      -5.4518      1.00000
     68      -5.4461      1.00000
     69      -5.3839      1.00000
     70      -5.2527      1.00000
     71      -5.1780      1.00000
     72      -5.1202      1.00000
     73      -4.9423      1.00000
     74      -4.8335      1.00000
     75      -4.8094      1.00000
     76      -4.6318      1.00000
     77      -4.6305      1.00000
     78      -4.6070      1.00000
     79      -4.6016      1.00000
     80      -4.5727      1.00000
     81      -4.4883      1.00000
     82      -4.4369      1.00000
     83      -4.4195      1.00000
     84      -4.3632      1.00000
     85      -4.3625      1.00000
     86      -4.3291      1.00000
     87      -4.2459      1.00000
     88      -4.1552      1.00000
     89      -4.0901      1.00000
     90      -4.0111      1.00000
     91      -3.9905      1.00000
     92      -3.9610      1.00000
     93      -3.8455      1.00000
     94      -3.8401      1.00000
     95      -3.8215      1.00000
     96      -3.7866      1.00000
     97      -3.7634      1.00000
     98      -3.7564      1.00000
     99      -3.5992      1.00000
    100      -3.5039      1.00000
    101      -3.1540      1.00000
    102      -3.1139      1.00000
    103      -2.7699      1.00000
    104      -2.7670      1.00000
    105      -2.7502      1.00000
    106      -1.8084      1.00000
    107      -1.3998      1.00000
    108      -1.1690      1.00000
    109      -1.1212      1.00000
    110      -0.9921      1.00000
    111      -0.8960      1.00000
    112      -0.8451      1.00000
    113      -0.6486      1.00000
    114      -0.6274      1.00000
    115      -0.4786      1.00000
    116      -0.4586      1.00000
    117       0.1681      1.00000
    118       0.2437      1.00000
    119       0.5238      1.00000
    120       0.7602      1.00000
    121       0.9211      0.78965
    122       1.4633      0.00000
    123       1.5619      0.00000
    124       1.5786      0.00000
    125       1.6686      0.00000
    126       1.6758      0.00000
    127       2.1654      0.00000
    128       2.2916      0.00000
    129       2.3767      0.00000
    130       2.5924      0.00000
    131       2.6259      0.00000
    132       2.8363      0.00000
    133       2.8902      0.00000
    134       2.8969      0.00000
    135       2.9296      0.00000
    136       2.9523      0.00000
    137       2.9849      0.00000
    138       3.0618      0.00000
    139       3.1881      0.00000
    140       3.2087      0.00000
    141       3.4649      0.00000
    142       3.6396      0.00000
    143       3.6705      0.00000
    144       3.9510      0.00000
    145       3.9652      0.00000
    146       4.1608      0.00000
    147       4.5404      0.00000
    148       4.7410      0.00000
    149       4.8493      0.00000
    150       4.8506      0.00000
    151       4.8810      0.00000
    152       4.8931      0.00000
    153       5.1764      0.00000
    154       5.4151      0.00000
    155       5.4160      0.00000
    156       5.4176      0.00000
    157       5.9242      0.00000
    158       6.0430      0.00000
    159       6.5557      0.00000
    160       6.8165      0.00000

 k-point     2 :       0.3750    0.1250    0.1250
  band No.  band energies     occupation 
      1     -35.9396      1.00000
      2     -35.9034      1.00000
      3     -35.9012      1.00000
      4     -35.8343      1.00000
      5     -35.8209      1.00000
      6     -35.7851      1.00000
      7     -35.7829      1.00000
      8     -35.7393      1.00000
      9     -35.7366      1.00000
     10     -35.7161      1.00000
     11     -35.6105      1.00000
     12     -35.6082      1.00000
     13     -34.2424      1.00000
     14     -34.2401      1.00000
     15     -34.2376      1.00000
     16     -34.1248      1.00000
     17     -33.6838      1.00000
     18     -33.6814      1.00000
     19     -33.6546      1.00000
     20     -33.6525      1.00000
     21     -33.3039      1.00000
     22     -33.3019      1.00000
     23     -33.2214      1.00000
     24     -33.1712      1.00000
     25     -24.2670      1.00000
     26     -24.0988      1.00000
     27     -23.7781      1.00000
     28     -23.6146      1.00000
     29     -23.5150      1.00000
     30     -23.4791      1.00000
     31     -23.3102      1.00000
     32     -23.3067      1.00000
     33     -23.1219      1.00000
     34     -23.0948      1.00000
[...]
  0.000  -0.000   0.000   0.000  -0.000   0.000   0.000  -0.000   0.000  -0.000   0.000  -0.000  -0.000  -0.000  -0.000  -0.000
  0.000  -0.000  -0.000   0.000  -0.000  -0.000  -0.000   0.000  -0.000   0.000  -0.000  -0.000  -0.000  -0.000  -0.000  -0.000
  0.000   0.000  -0.000   0.000  -0.000   0.000  -0.000  -0.000  -0.000  -0.000  -0.000   0.000  -0.000   0.000  -0.000  -0.000
  0.000  -0.000  -0.000   0.000  -0.000  -0.000  -0.000  -0.001   0.000  -0.000  -0.000  -0.000  -0.000   0.000  -0.000   0.000
  0.000   0.000  -0.000  -0.000   0.000   0.000  -0.000   0.000  -0.000  -0.000  -0.000   0.000   0.000   0.000   0.000  -0.000
  0.000   0.000  -0.000   0.000   0.000   0.000   0.000  -0.000  -0.000  -0.000  -0.000  -0.000  -0.000   0.000   0.000   0.000
  0.000   0.000   0.000   0.000  -0.000   0.000   0.000   0.000  -0.000  -0.000  -0.000  -0.000   0.000  -0.000   0.000   0.000
  0.000  -0.000  -0.000   0.000  -0.000  -0.000  -0.000   0.000   0.000  -0.000   0.000  -0.000   0.000   0.000   0.000  -0.000
  0.000  -0.000  -0.000  -0.000  -0.000  -0.000  -0.000  -0.000   0.000  -0.000   0.000   0.000   0.000   0.000  -0.000  -0.000


------------------------ aborting loop because EDIFF is reached ----------------------------------------


 


 total charge     
 
# of ion       s       p       d       tot
------------------------------------------
    1        0.314   6.475   1.764   8.552
    2        0.315   6.479   1.756   8.550
    3        0.314   6.475   1.764   8.552
    4        0.315   6.479   1.756   8.550
    5        0.296   6.472   1.781   8.549
    6        0.294   6.435   1.689   8.418
    7        0.296   6.472   1.781   8.549
    8        0.294   6.435   1.689   8.418
    9        1.565   3.394   0.000   4.959
   10        1.565   3.394   0.000   4.959
   11        1.573   3.481   0.000   5.054
   12        1.573   3.481   0.000   5.054
   13        1.570   3.435   0.000   5.005
   14        1.569   3.433   0.000   5.001
   15        1.570   3.435   0.000   5.005
   16        1.569   3.433   0.000   5.001
   17        1.730   4.377   0.000   6.107
   18        1.732   4.371   0.000   6.103
   19        1.730   4.377   0.000   6.107
   20        1.732   4.371   0.000   6.103
   21        1.730   4.377   0.000   6.107
   22        1.732   4.371   0.000   6.103
   23        1.730   4.377   0.000   6.107
   24        1.732   4.371   0.000   6.103
   25        1.730   4.390   0.000   6.120
   26        1.730   4.389   0.000   6.119
   27        1.730   4.390   0.000   6.120
   28        1.730   4.389   0.000   6.119
   29        1.731   4.395   0.000   6.126
   30        1.731   4.395   0.000   6.126
   31        1.731   4.390   0.000   6.121
   32        1.731   4.390   0.000   6.121
--------------------------------------------------
tot         42.682 149.326  13.979 205.987
 


 magnetization (x)
 
# of ion       s       p       d       tot
------------------------------------------
    1        0.000   0.000   0.001   0.001
    2        0.000   0.000   0.001   0.001
    3        0.000   0.000   0.001   0.001
    4        0.000   0.000   0.001   0.001
    5       -0.000   0.000   0.000   0.000
    6       -0.000   0.000   0.000   0.000
    7       -0.000   0.000   0.000   0.000
    8       -0.000   0.000   0.000   0.000
    9        0.000   0.000   0.000   0.000
   10        0.000   0.000   0.000   0.000
   11       -0.000  -0.000   0.000  -0.000
   12       -0.000  -0.000   0.000  -0.000
   13        0.000   0.000   0.000   0.000
   14        0.000   0.000   0.000   0.000
   15        0.000   0.000   0.000   0.000
   16        0.000   0.000   0.000   0.000
   17        0.000   0.000   0.000   0.000
   18        0.000   0.000   0.000   0.000
   19        0.000   0.000   0.000   0.000
   20        0.000   0.000   0.000   0.000
   21        0.000   0.000   0.000   0.000
   22        0.000   0.000   0.000   0.000
   23        0.000   0.000   0.000   0.000
   24        0.000   0.000   0.000   0.000
   25        0.000   0.000   0.000   0.000
   26        0.000   0.000   0.000   0.000
   27        0.000   0.000   0.000   0.000
   28        0.000   0.000   0.000   0.000
   29        0.000   0.000   0.000   0.000
   30        0.000   0.000   0.000   0.000
   31       -0.000   0.000   0.000   0.000
   32       -0.000   0.000   0.000   0.000
--------------------------------------------------
tot          0.000   0.000   0.002   0.002
 
    CHARGE:  cpu time    1.1778: real time    1.1758
    FORLOC:  cpu time    0.0100: real time    0.0095
    FORNL :  cpu time    6.9539: real time    6.9498
    STRESS:  cpu time   20.7478: real time   20.7291
    FORCOR:  cpu time    0.1300: real time    0.1301
    FORHAR:  cpu time    0.0210: real time    0.0213
    MIXING:  cpu time    0.0030: real time    0.0032
    OFIELD:  cpu time    0.0000: real time    0.0000

  FORCE on cell =-STRESS in cart. coord.  units (eV):
  Direction    XX          YY          ZZ          XY          YZ          ZX
  --------------------------------------------------------------------------------------
  Alpha Z   751.52011   751.52011   751.52011
  Ewald   -4425.76398 -4183.31301 -4082.50151    -0.00043     0.00000    -0.00015
  Hartree  2637.98257  2818.32040  2861.69543    -0.00023    -0.00003    -0.00008
  E(xc)   -1231.34539 -1231.46694 -1231.99421    -0.00000    -0.00000    -0.00000
  Local   -1843.16592 -2295.72488 -2499.32732     0.00064     0.00004     0.00023
  n-local  -974.60662  -968.20379  -957.73475    -0.00000     0.00000    -0.00000
  augment   742.27254   753.25906   774.03270     0.00000    -0.00000     0.00000
  Kinetic  4343.12259  4355.60515  4384.32012     0.00002    -0.00002     0.00001
  Fock        0.00000     0.00000     0.00000     0.00000     0.00000     0.00000
  -------------------------------------------------------------------------------------
  Total       0.01592    -0.00388     0.01057     0.00001    -0.00001     0.00000
  in kB       0.05473    -0.01334     0.03634     0.00002    -0.00004     0.00001
  external pressure =        0.03 kB  Pullay stress =        0.00 kB


 VOLUME and BASIS-vectors are now :
 -----------------------------------------------------------------------------
  energy-cutoff  :      700.00
  volume of cell :      465.94
      direct lattice vectors                 reciprocal lattice vectors
     7.933594391 -0.000000338 -0.000000097     0.126046272  0.000000005  0.000000001
    -0.000000335  7.777058469  0.000000303     0.000000005  0.128583320 -0.000000005
    -0.000000088  0.000000292  7.551759286     0.000000002 -0.000000005  0.132419475

  length of vectors
     7.933594391  7.777058469  7.551759286     0.126046272  0.128583320  0.132419475


 FORCES acting on ions
    electron-ion (+dipol)            ewald-force                    non-local-force                 convergence-correction
 -----------------------------------------------------------------------------------------------
   -.555E-04 -.143E-02 0.316E+02   0.555E-04 0.145E-02 -.322E+02   0.354E-06 0.191E-04 0.614E+00   0.116E-08 -.542E-04 0.525E-03
   0.471E-05 -.696E-03 -.345E+02   -.465E-05 0.846E-03 0.352E+02   -.458E-07 -.359E-05 -.737E+00   0.138E-08 -.562E-04 -.805E-03
   -.552E-04 0.141E-02 0.316E+02   0.552E-04 -.143E-02 -.322E+02   0.349E-06 -.192E-04 0.614E+00   0.112E-08 0.542E-04 0.525E-03
   0.550E-05 0.552E-03 -.345E+02   -.545E-05 -.703E-03 0.352E+02   -.555E-07 0.614E-05 -.737E+00   0.124E-08 0.562E-04 -.805E-03
   0.764E-04 -.520E-03 0.146E+02   -.756E-04 0.593E-03 -.146E+02   -.850E-06 0.496E-05 -.613E-02   -.145E-08 -.600E-04 0.954E-04
   -.122E-04 -.164E-02 -.165E+02   0.117E-04 0.137E-02 0.165E+02   0.436E-06 0.556E-04 0.444E-01   -.136E-08 0.562E-05 -.867E-04
   0.763E-04 0.505E-03 0.146E+02   -.755E-04 -.561E-03 -.146E+02   -.850E-06 -.121E-04 -.613E-02   -.143E-08 0.599E-04 0.956E-04
   -.118E-04 -.830E-02 -.165E+02   0.113E-04 0.830E-02 0.165E+02   0.420E-06 0.791E-04 0.444E-01   -.120E-08 -.634E-05 -.868E-04
   -.482E-06 0.776E-02 -.786E+01   0.354E-07 -.866E-02 0.794E+01   0.443E-06 0.988E-03 -.749E-01   -.605E-09 0.301E-06 -.562E-04
   -.428E-06 0.103E-01 -.786E+01   -.126E-07 -.113E-01 0.794E+01   0.435E-06 0.976E-03 -.749E-01   -.613E-09 -.109E-06 -.554E-04
   -.439E-04 0.614E-03 0.107E+02   0.456E-04 -.739E-03 -.116E+02   -.146E-05 0.210E-03 0.849E+00   0.178E-08 -.398E-04 -.811E-03
   -.438E-04 -.624E-03 0.107E+02   0.455E-04 0.747E-03 -.116E+02   -.144E-05 -.207E-03 0.849E+00   0.174E-08 0.398E-04 -.811E-03
   -.427E-05 -.529E-03 -.518E+02   0.420E-05 0.619E-03 0.544E+02   0.323E-06 -.456E-04 -.263E+01   -.812E-09 -.304E-04 0.259E-02
   0.395E-04 -.260E-03 0.543E+02   -.402E-04 0.319E-03 -.571E+02   0.472E-06 -.868E-05 0.279E+01   -.467E-09 -.307E-04 -.258E-02
   -.424E-05 -.285E-02 -.518E+02   0.417E-05 0.306E-02 0.544E+02   0.321E-06 -.261E-03 -.263E+01   -.770E-09 0.304E-04 0.259E-02
   0.399E-04 -.244E-02 0.543E+02   -.407E-04 0.256E-02 -.571E+02   0.500E-06 -.147E-03 0.279E+01   -.444E-09 0.307E-04 -.258E-02
   -.775E+02 -.241E-03 0.105E+01   0.855E+02 0.277E-03 0.106E+01   -.807E+01 0.377E-04 -.211E+01   0.132E-01 -.560E-04 0.573E-03
   -.112E+03 -.802E-03 -.186E+01   0.123E+03 0.995E-03 -.170E+00   -.107E+02 -.135E-03 0.203E+01   0.156E-01 -.459E-04 -.471E-03
   -.775E+02 0.373E-03 0.105E+01   0.855E+02 -.434E-03 0.106E+01   -.807E+01 -.119E-04 -.211E+01   0.132E-01 0.560E-04 0.574E-03
   -.112E+03 -.110E-02 -.186E+01   0.123E+03 0.113E-02 -.171E+00   -.107E+02 -.785E-04 0.203E+01   0.156E-01 0.458E-04 -.471E-03
   0.775E+02 -.254E-03 0.105E+01   -.855E+02 0.294E-03 0.106E+01   0.807E+01 0.328E-04 -.211E+01   -.132E-01 -.560E-04 0.573E-03
   0.112E+03 -.802E-03 -.186E+01   -.123E+03 0.996E-03 -.170E+00   0.107E+02 -.136E-03 0.203E+01   -.156E-01 -.459E-04 -.471E-03
   0.775E+02 0.360E-03 0.105E+01   -.855E+02 -.416E-03 0.106E+01   0.807E+01 -.167E-04 -.211E+01   -.132E-01 0.560E-04 0.574E-03
   0.112E+03 -.110E-02 -.186E+01   -.123E+03 0.113E-02 -.171E+00   0.107E+02 -.800E-04 0.203E+01   -.156E-01 0.458E-04 -.471E-03
   -.289E-05 0.774E-04 -.204E+01   -.148E-05 -.511E-04 0.509E+01   0.437E-05 -.320E-04 -.305E+01   -.591E-09 0.179E-06 0.127E-02
   -.120E-04 -.566E-03 -.217E+00   0.145E-04 0.595E-03 -.245E+01   -.245E-05 -.653E-05 0.268E+01   0.197E-08 -.703E-08 -.118E-02
   -.280E-05 -.823E-04 -.204E+01   -.158E-05 0.566E-04 0.509E+01   0.438E-05 0.317E-04 -.305E+01   -.583E-09 -.178E-06 0.128E-02
   -.120E-04 0.702E-03 -.215E+00   0.145E-04 -.738E-03 -.246E+01   -.242E-05 0.146E-04 0.268E+01   0.197E-08 0.817E-08 -.118E-02
   -.169E-05 0.183E-02 0.814E+01   0.775E-05 -.192E-02 -.820E+01   -.598E-05 0.412E-04 0.669E-01   -.326E-08 -.952E-07 0.507E-04
   -.179E-05 -.161E-02 0.814E+01   0.787E-05 0.166E-02 -.820E+01   -.599E-05 0.234E-04 0.668E-01   -.333E-08 0.906E-07 0.502E-04
   0.241E-04 -.861E-04 -.502E+01   -.256E-04 0.190E-03 0.520E+01   0.119E-05 -.379E-04 -.185E+00   0.101E-09 -.518E-04 0.875E-03
   0.247E-04 0.766E-04 -.502E+01   -.262E-04 -.182E-03 0.520E+01   0.125E-05 0.398E-04 -.185E+00   0.323E-10 0.518E-04 0.875E-03
 -----------------------------------------------------------------------------------------------
   0.489E-05 -.133E-02 -.384E+00   -.323E-13 0.114E-12 -.394E-12   -.485E-05 0.132E-02 0.378E+00   -.459E-08 -.500E-06 0.205E-03
 
 
 POSITION                                       TOTAL-FORCE (eV/Angst)
 -----------------------------------------------------------------------------------
      7.93359      7.77706      7.46543         0.000000     -0.000013     -0.001001
     -0.00000      7.77706      3.85060         0.000000      0.000090     -0.003131
      7.93359      3.88853      7.46543         0.000000      0.000013     -0.000702
     -0.00000      3.88853      3.85060        -0.000000     -0.000088     -0.003322
      3.96680      7.77706      0.00442        -0.000000      0.000018      0.004977
      3.96680      7.77705      3.77437        -0.000000     -0.000209     -0.000269
      3.96680      3.88853      0.00442        -0.000000     -0.000008      0.005079
      3.96680      3.88851      3.77437        -0.000000      0.000082     -0.000357
      3.96680      1.94427      3.78140        -0.000000      0.000088      0.002347
      3.96680      5.83280      3.78140        -0.000000     -0.000029      0.002352
     -0.00000      7.77705      5.67030         0.000000      0.000046     -0.003611
     -0.00000      3.88854      5.67030         0.000000     -0.000045     -0.003757
      3.96680      0.00000      1.84060         0.000000      0.000014      0.000432
      3.96680      0.00000      5.71753        -0.000000      0.000019      0.002145
      3.96680      3.88854      1.84060         0.000000     -0.000015      0.000643
      3.96680      3.88853      5.71754        -0.000000      0.000007      0.001930
      1.90238      7.77706      0.03946        -0.000410      0.000018      0.001343
      1.87968      0.00000      3.73321        -0.000766      0.000012     -0.001839
      1.90238      3.88853      0.03946        -0.000446     -0.000017      0.001330
      1.87968      3.88853      3.73321        -0.000765     -0.000006     -0.001821
      6.03121      7.77706      0.03946         0.000410      0.000017      0.001342
      6.05391      0.00000      3.73321         0.000766      0.000012     -0.001839
      6.03121      3.88853      0.03946         0.000446     -0.000017      0.001330
      6.05391      3.88853      3.73321         0.000765     -0.000006     -0.001821
      7.93359      1.94426      0.04521        -0.000000     -0.000005     -0.004439
     -0.00000      1.94426      3.73308        -0.000000      0.000023      0.003313
      7.93359      5.83279      0.04521        -0.000000      0.000006     -0.004412
     -0.00000      5.83279      3.73309        -0.000000     -0.000021      0.003277
      3.96680      1.94427      0.00159         0.000000     -0.000056      0.001852
      3.96680      5.83279      0.00159         0.000000      0.000069      0.001843
      7.93359      7.77706      1.88069        -0.000000      0.000015     -0.001618
      7.93359      3.88853      1.88069        -0.000000     -0.000014     -0.001595
 -----------------------------------------------------------------------------------
    total drift:                                0.000000     -0.000004     -0.006282


--------------------------------------------------------------------------------------------------------



  FREE ENERGIE OF THE ION-ELECTRON SYSTEM (eV)
  ---------------------------------------------------
  free  energy   TOTEN  =      -209.27100549 eV

  energy  without entropy=     -209.26893648  energy(sigma->0) =     -209.26997098
 


--------------------------------------------------------------------------------------------------------


    POTLOK:  cpu time    1.0058: real time    1.0049


--------------------------------------------------------------------------------------------------------


 stress matrix after NEB project (eV)
      0.01592      0.00001      0.00000
      0.00001     -0.00388     -0.00001
      0.00000     -0.00001      0.01057
  FORCES: max atom, RMS     0.005079    0.002603
  FORCE total and by dimension    0.014725    0.005079
  Stress total and by dimension    0.019496    0.015915
 Quasi-Newton relaxation of ions (Broydens 2nd method)
  g(Force)  = 0.105E-04   g(Stress)= 0.573E-06

 Reset! Starting new Quasi-Newton update for ions 


--------------------------------------------------------------------------------------------------------


  
 reached required accuracy - stopping structural energy minimisation
 writing wavefunctions
     LOOP+:  cpu time  632.9088: real time  636.5912
    4ORBIT:  cpu time    0.0000: real time    0.0000
 


 total charge     
 
# of ion       s       p       d       tot
------------------------------------------
    1        0.314   6.475   1.764   8.552
    2        0.315   6.479   1.756   8.550
    3        0.314   6.475   1.764   8.552
    4        0.315   6.479   1.756   8.550
    5        0.296   6.472   1.781   8.549
    6        0.294   6.435   1.689   8.418
    7        0.296   6.472   1.781   8.549
    8        0.294   6.435   1.689   8.418
    9        1.565   3.394   0.000   4.959
   10        1.565   3.394   0.000   4.959
   11        1.573   3.481   0.000   5.054
   12        1.573   3.481   0.000   5.054
   13        1.570   3.435   0.000   5.005
   14        1.569   3.433   0.000   5.001
   15        1.570   3.435   0.000   5.005
   16        1.569   3.433   0.000   5.001
   17        1.730   4.377   0.000   6.107
   18        1.732   4.371   0.000   6.103
   19        1.730   4.377   0.000   6.107
   20        1.732   4.371   0.000   6.103
   21        1.730   4.377   0.000   6.107
   22        1.732   4.371   0.000   6.103
   23        1.730   4.377   0.000   6.107
   24        1.732   4.371   0.000   6.103
   25        1.730   4.390   0.000   6.120
   26        1.730   4.389   0.000   6.119
   27        1.730   4.390   0.000   6.120
   28        1.730   4.389   0.000   6.119
   29        1.731   4.395   0.000   6.126
   30        1.731   4.395   0.000   6.126
   31        1.731   4.390   0.000   6.121
   32        1.731   4.390   0.000   6.121
--------------------------------------------------
tot         42.682 149.326  13.979 205.987
 


 magnetization (x)
 
# of ion       s       p       d       tot
------------------------------------------
    1        0.000   0.000   0.001   0.001
    2        0.000   0.000   0.001   0.001
    3        0.000   0.000   0.001   0.001
    4        0.000   0.000   0.001   0.001
    5       -0.000   0.000   0.000   0.000
    6       -0.000   0.000   0.000   0.000
    7       -0.000   0.000   0.000   0.000
    8       -0.000   0.000   0.000   0.000
    9        0.000   0.000   0.000   0.000
   10        0.000   0.000   0.000   0.000
   11       -0.000  -0.000   0.000  -0.000
   12       -0.000  -0.000   0.000  -0.000
   13        0.000   0.000   0.000   0.000
   14        0.000   0.000   0.000   0.000
   15        0.000   0.000   0.000   0.000
   16        0.000   0.000   0.000   0.000
   17        0.000   0.000   0.000   0.000
   18        0.000   0.000   0.000   0.000
   19        0.000   0.000   0.000   0.000
   20        0.000   0.000   0.000   0.000
   21        0.000   0.000   0.000   0.000
   22        0.000   0.000   0.000   0.000
   23        0.000   0.000   0.000   0.000
   24        0.000   0.000   0.000   0.000
   25        0.000   0.000   0.000   0.000
   26        0.000   0.000   0.000   0.000
   27        0.000   0.000   0.000   0.000
   28        0.000   0.000   0.000   0.000
   29        0.000   0.000   0.000   0.000
   30        0.000   0.000   0.000   0.000
   31       -0.000   0.000   0.000   0.000
   32       -0.000   0.000   0.000   0.000
--------------------------------------------------
tot          0.000   0.000   0.002   0.002
 

 total amount of memory used by VASP MPI-rank0   107124. kBytes
=======================================================================

   base      :      30000. kBytes
   nonlr-proj:       8513. kBytes
   fftplans  :       8423. kBytes
   grid      :       8783. kBytes
   one-center:        124. kBytes
   wavefun   :      51281. kBytes
 
  
  
 General timing and accounting informations for this job:
 ========================================================
  
                  Total CPU time used (sec):      682.856
                            User time (sec):      648.166
                          System time (sec):       34.690
                         Elapsed time (sec):      693.072
  
                   Maximum memory used (kb):      224216.
                   Average memory used (kb):           0.
  
                          Minor page faults:       169208
                          Major page faults:            2
                 Voluntary context switches:        90279
