LTO                                     
           1
     7.933594   -0.000000   -0.000000
    -0.000000    7.777058    0.000000
    -0.000000    0.000000    7.551759
   Ti   O    F 
   8   8  16
Direct configuration=     1
   0.99999999  0.99999995  0.98856892
   0.00000001  0.99999961  0.50989421
   0.99999999  0.50000000  0.98856805
   0.00000001  0.50000036  0.50989462
   0.50000000  0.99999997  0.00058526
   0.50000000  0.99999938  0.49980008
   0.50000000  0.50000028  0.00058498
   0.50000000  0.49999726  0.49980044
   0.50000000  0.25000057  0.50073130
   0.50000000  0.75000094  0.50073127
   0.00000001  0.99999892  0.75085774
   0.00000001  0.50000101  0.75085803
   0.50000000  0.00000030  0.24373178
   0.49999999  0.00000011  0.75711291
   0.50000000  0.50000084  0.24373100
   0.49999999  0.50000036  0.75711344
   0.23978833  0.99999995  0.00522502
   0.23692665  0.00000052  0.49434935
   0.23978844  0.49999997  0.00522491
   0.23692663  0.49999952  0.49434916
   0.76021166  0.99999997  0.00522499
   0.76307336  0.00000052  0.49434940
   0.76021155  0.49999999  0.00522488
   0.76307338  0.49999953  0.49434920
   0.99999997  0.24999999  0.00598623
   0.00000002  0.24999993  0.49433304
   0.99999997  0.74999995  0.00598629
   0.00000002  0.75000005  0.49433313
   0.50000003  0.25000034  0.00021010
   0.50000003  0.74999996  0.00021026
   0.99999999  0.99999996  0.24904008
   0.99999999  0.49999998  0.24903993
