       N       E                     dE             d eps       ncg     rms          rms(c)
DAV:   1    -0.213590730062E+03   -0.21359E+03   -0.53003E-03 20480   0.421E-01    0.375E-03
DAV:   2    -0.213590729734E+03    0.32753E-06   -0.63782E-07 10816   0.512E-03
   1 F= -.21359073E+03 E0= -.21359073E+03  d E =-.213591E+03  mag=    -0.0000
