LTO                                     
           1
     7.863040   -0.000002   -0.000000
    -0.000002    7.655591   -0.000001
    -0.000000   -0.000001    7.659945
   Ti   O    F 
   8   8  16
Direct configuration=     1
   0.00000000  0.98870381  0.98727790
   0.00000000  0.98870378  0.51272205
   1.00000000  0.51129600  0.01272232
   0.99999999  0.51129597  0.48727779
   0.50000001  0.98870401  0.01272226
   0.50000001  0.98870388  0.48727786
   0.49999999  0.51129611  0.98727779
   0.50000000  0.51129624  0.51272207
   0.00000000  0.75000004  0.00000001
   1.00000000  0.75000014  0.50000000
   0.50000000  0.75000006  0.00000015
   0.50000000  0.75000006  0.49999985
   0.00000001  0.00482348  0.75000004
   0.99999999  0.49517634  0.24999989
   0.50000001  0.00482365  0.24999985
   0.49999999  0.49517684  0.75000016
   0.25000001  0.00639107  0.00000002
   0.24999995  0.00639102  0.50000003
   0.25000005  0.49360893  0.99999998
   0.25000001  0.49360899  0.49999997
   0.75000000  0.00639107  0.00000002
   0.75000005  0.00639103  0.50000002
   0.74999995  0.49360892  0.99999998
   0.74999999  0.49360900  0.49999997
   0.00000000  0.24999988  0.99999996
   0.00000000  0.24999986  0.50000004
   0.50000000  0.25000005  0.99999985
   0.50000000  0.25000004  0.50000014
   0.00000001  0.00921792  0.25000004
   0.99999999  0.49078195  0.74999999
   0.50000001  0.00921772  0.75000013
   0.49999999  0.49078216  0.24999986
