 vasp.5.4.4.18Apr17-6-g9f103f2a35 (build Jul 16 2019 12:12:28) complex          
  
 executed on             LinuxIFC date 2020.01.06  10:23:54
 running on   96 total cores
 distrk:  each k-point on   96 cores,    1 groups
 distr:  one band on NCORES_PER_BAND=   8 cores,   12 groups


--------------------------------------------------------------------------------------------------------


 INCAR:
 POTCAR:    PAW_PBE Li_sv 10Sep2004               
 POTCAR:    PAW_PBE Ti_pv 07Sep2000               
 POTCAR:    PAW_PBE O 08Apr2002                   
 POTCAR:    PAW_PBE F 08Apr2002                   
 POTCAR:    PAW_PBE Li_sv 10Sep2004               
   VRHFIN =Li: 1s2s2p                                                           
   LEXCH  = PE                                                                  
   EATOM  =   202.7858 eV,   14.9043 Ry                                         
                                                                                
   TITEL  = PAW_PBE Li_sv 10Sep2004                                             
   LULTRA =        F    use ultrasoft PP ?                                      
   IUNSCR =        0    unscreen: 0-lin 1-nonlin 2-no                           
   RPACOR =    0.000    partial core radius                                     
   POMASS =    7.010; ZVAL   =    3.000    mass and valenz                      
   RCORE  =    1.700    outmost cutoff radius                                   
   RWIGS  =    2.050; RWIGS  =    1.085    wigner-seitz radius (au A)           
   ENMAX  =  499.034; ENMIN  =  374.276 eV                                      
   ICORE  =        2    local potential                                         
   LCOR   =        T    correct aug charges                                     
   LPAW   =        T    paw PP                                                  
   EAUG   =  628.945                                                            
   RMAX   =    1.732    core radius for proj-oper                               
   RAUG   =    1.300    factor for augmentation sphere                          
   RDEP   =    1.728    radius for radial grids                                 
   RDEPT  =    1.329    core radius for aug-charge                              
                                                                                
   Atomic configuration                                                         
    4 entries                                                                   
     n  l   j            E        occ.                                          
     1  0  0.50       -51.8549   2.0000                                         
     2  0  0.50        -2.8742   1.0000                                         
     2  1  0.50        -1.3606   0.0000                                         
     3  2  1.50        -1.3606   0.0000                                         
   Description                                                                  
     l       E           TYP  RCUT    TYP  RCUT                                 
     0    -51.8548813     23  1.400                                             
     0     -2.8742052     23  1.700                                             
     1     -1.3605826     23  1.400                                             
     2     -1.3605826     23  1.400                                             
  local pseudopotential read in
  atomic valenz-charges read in
  non local Contribution for L=           0  read in
    real space projection operators read in
  non local Contribution for L=           0  read in
    real space projection operators read in
  non local Contribution for L=           1  read in
    real space projection operators read in
    PAW grid and wavefunctions read in
 
   number of l-projection  operators is LMAX  =           3
   number of lm-projection operators is LMMAX =           5
 
 POTCAR:    PAW_PBE Ti_pv 07Sep2000               
   VRHFIN =Ti: d3 s1                                                            
   LEXCH  = PE                                                                  
   EATOM  =  1042.5995 eV,   76.6289 Ry                                         
                                                                                
   TITEL  = PAW_PBE Ti_pv 07Sep2000                                             
   LULTRA =        F    use ultrasoft PP ?                                      
   IUNSCR =        1    unscreen: 0-lin 1-nonlin 2-no                           
   RPACOR =    2.200    partial core radius                                     
   POMASS =   47.880; ZVAL   =   10.000    mass and valenz                      
   RCORE  =    2.500    outmost cutoff radius                                   
   RWIGS  =    2.500; RWIGS  =    1.323    wigner-seitz radius (au A)           
   ENMAX  =  222.335; ENMIN  =  166.751 eV                                      
   RCLOC  =    1.701    cutoff for local pot                                    
   LCOR   =        T    correct aug charges                                     
   LPAW   =        T    paw PP                                                  
   EAUG   =  482.848                                                            
   DEXC   =    0.000                                                            
   RMAX   =    2.564    core radius for proj-oper                               
   RAUG   =    1.300    factor for augmentation sphere                          
   RDEP   =    2.538    radius for radial grids                                 
   RDEPT  =    1.952    core radius for aug-charge                              
                                                                                
   Atomic configuration                                                         
    8 entries                                                                   
     n  l   j            E        occ.                                          
     1  0  0.50     -4865.3608   2.0000                                         
     2  0  0.50      -533.1368   2.0000                                         
     2  1  1.50      -440.5031   6.0000                                         
     3  0  0.50       -59.3186   2.0000                                         
     3  1  1.50       -35.7012   6.0000                                         
     3  2  2.50        -1.9157   3.0000                                         
     4  0  0.50        -3.7291   1.0000                                         
     4  3  2.50        -1.3606   0.0000                                         
   Description                                                                  
     l       E           TYP  RCUT    TYP  RCUT                                 
     1    -35.7012140     23  2.300                                             
     1     -1.3605826     23  2.300                                             
     2     -1.9156996     23  2.500                                             
     2     -0.4063033     23  2.500                                             
     0     -3.7290856     23  2.500                                             
     0     20.4087390     23  2.500                                             
  local pseudopotential read in
  partial core-charges read in
  partial kinetic energy density read in
  atomic valenz-charges read in
  non local Contribution for L=           1  read in
    real space projection operators read in
  non local Contribution for L=           1  read in
    real space projection operators read in
  non local Contribution for L=           2  read in
    real space projection operators read in
  non local Contribution for L=           2  read in
    real space projection operators read in
  non local Contribution for L=           0  read in
    real space projection operators read in
  non local Contribution for L=           0  read in
    real space projection operators read in
    PAW grid and wavefunctions read in
 
   number of l-projection  operators is LMAX  =           6
   number of lm-projection operators is LMMAX =          18
 
 POTCAR:    PAW_PBE O 08Apr2002                   
   VRHFIN =O: s2p4                                                              
   LEXCH  = PE                                                                  
   EATOM  =   432.3788 eV,   31.7789 Ry                                         
                                                                                
   TITEL  = PAW_PBE O 08Apr2002                                                 
   LULTRA =        F    use ultrasoft PP ?                                      
   IUNSCR =        1    unscreen: 0-lin 1-nonlin 2-no                           
   RPACOR =    1.200    partial core radius                                     
   POMASS =   16.000; ZVAL   =    6.000    mass and valenz                      
   RCORE  =    1.520    outmost cutoff radius                                   
   RWIGS  =    1.550; RWIGS  =    0.820    wigner-seitz radius (au A)           
   ENMAX  =  400.000; ENMIN  =  300.000 eV                                      
   ICORE  =        2    local potential                                         
   LCOR   =        T    correct aug charges                                     
   LPAW   =        T    paw PP                                                  
   EAUG   =  605.392                                                            
   DEXC   =    0.000                                                            
   RMAX   =    1.553    core radius for proj-oper                               
   RAUG   =    1.300    factor for augmentation sphere                          
   RDEP   =    1.550    radius for radial grids                                 
   RDEPT  =    1.329    core radius for aug-charge                              
                                                                                
   Atomic configuration                                                         
    4 entries                                                                   
     n  l   j            E        occ.                                          
     1  0  0.50      -514.6923   2.0000                                         
     2  0  0.50       -23.9615   2.0000                                         
     2  1  0.50        -9.0305   4.0000                                         
     3  2  1.50        -9.5241   0.0000                                         
   Description                                                                  
     l       E           TYP  RCUT    TYP  RCUT                                 
     0    -23.9615318     23  1.200                                             
     0     -9.5240782     23  1.200                                             
     1     -9.0304911     23  1.520                                             
     1      8.1634956     23  1.520                                             
     2     -9.5240782      7  1.500                                             
  local pseudopotential read in
  partial core-charges read in
  partial kinetic energy density read in
  kinetic energy density of atom read in
  atomic valenz-charges read in
  non local Contribution for L=           0  read in
    real space projection operators read in
  non local Contribution for L=           0  read in
    real space projection operators read in
  non local Contribution for L=           1  read in
    real space projection operators read in
  non local Contribution for L=           1  read in
    real space projection operators read in
    PAW grid and wavefunctions read in
 
   number of l-projection  operators is LMAX  =           4
   number of lm-projection operators is LMMAX =           8
 
 POTCAR:    PAW_PBE F 08Apr2002                   
   VRHFIN =F: s2p5                                                              
   LEXCH  = PE                                                                  
   EATOM  =   659.6475 eV,   48.4827 Ry                                         
                                                                                
   TITEL  = PAW_PBE F 08Apr2002                                                 
   LULTRA =        F    use ultrasoft PP ?                                      
   IUNSCR =        1    unscreen: 0-lin 1-nonlin 2-no                           
   RPACOR =    1.200    partial core radius                                     
   POMASS =   18.998; ZVAL   =    7.000    mass and valenz                      
   RCORE  =    1.520    outmost cutoff radius                                   
   RWIGS  =    1.500; RWIGS  =    0.794    wigner-seitz radius (au A)           
   ENMAX  =  400.000; ENMIN  =  300.000 eV                                      
   ICORE  =        2    local potential                                         
   LCOR   =        T    correct aug charges                                     
   LPAW   =        T    paw PP                                                  
   EAUG   =  613.614                                                            
   RMAX   =    1.555    core radius for proj-oper                               
   RAUG   =    1.300    factor for augmentation sphere                          
   RDEP   =    1.539    radius for radial grids                                 
   RDEPT  =    1.299    core radius for aug-charge                              
                                                                                
   Atomic configuration                                                         
    4 entries                                                                   
     n  l   j            E        occ.                                          
     1  0  0.50      -663.3661   2.0000                                         
     2  0  0.50       -29.8995   2.0000                                         
     2  1  0.50       -11.1114   5.0000                                         
     3  2  1.50       -10.8847   0.0000                                         
   Description                                                                  
     l       E           TYP  RCUT    TYP  RCUT                                 
     0    -29.8995018     23  1.200                                             
     0     -9.5240782     23  1.200                                             
     1    -11.1113914     23  1.520                                             
     1      1.3605826     23  1.520                                             
     2    -10.8846608      7  1.500                                             
  local pseudopotential read in
  partial core-charges read in
  partial kinetic energy density read in
  atomic valenz-charges read in
  non local Contribution for L=           0  read in
    real space projection operators read in
  non local Contribution for L=           0  read in
    real space projection operators read in
  non local Contribution for L=           1  read in
    real space projection operators read in
  non local Contribution for L=           1  read in
    real space projection operators read in
    PAW grid and wavefunctions read in
 
   number of l-projection  operators is LMAX  =           4
   number of lm-projection operators is LMMAX =           8
 
 Optimization of the real space projectors (new method)

 maximal supplied QI-value         = 22.11
 optimisation between [QCUT,QGAM] = [ 11.28, 22.77] = [ 35.61,145.23] Ry 
 Optimized for a Real-space Cutoff    1.31 Angstroem

   l    n(q)    QCUT    max X(q) W(low)/X(q) W(high)/X(q)  e(spline) 
   0      9    11.276    10.506    0.19E-04    0.17E-04    0.32E-07
   0      9    11.276     8.367    0.38E-04    0.40E-04    0.65E-07
   1      8    11.276     8.983    0.55E-04    0.98E-04    0.20E-06
 Optimization of the real space projectors (new method)

 maximal supplied QI-value         = 15.12
 optimisation between [QCUT,QGAM] = [ 11.34, 22.83] = [ 36.00,145.93] Ry 
 Optimized for a Real-space Cutoff    1.56 Angstroem

   l    n(q)    QCUT    max X(q) W(low)/X(q) W(high)/X(q)  e(spline) 
   1     10    11.338     4.216    0.27E-04    0.12E-04    0.66E-07
   1     10    11.338     5.422    0.81E-04    0.24E-04    0.19E-06
   2     10    11.338    72.084    0.64E-04    0.21E-03    0.51E-06
   2     10    11.338    65.965    0.63E-04    0.21E-03    0.50E-06
   0     11    11.338    41.531    0.33E-04    0.54E-04    0.13E-06
   0     11    11.338    16.290    0.26E-04    0.41E-04    0.11E-06
 Optimization of the real space projectors (new method)

 maximal supplied QI-value         = 24.76
 optimisation between [QCUT,QGAM] = [ 11.39, 22.77] = [ 36.31,145.25] Ry 
 Optimized for a Real-space Cutoff    1.20 Angstroem

   l    n(q)    QCUT    max X(q) W(low)/X(q) W(high)/X(q)  e(spline) 
   0      8    11.387    20.381    0.89E-04    0.31E-03    0.27E-06
   0      8    11.387    15.268    0.93E-04    0.32E-03    0.29E-06
   1      8    11.387     5.964    0.53E-04    0.28E-03    0.29E-06
   1      8    11.387     5.382    0.37E-04    0.22E-03    0.26E-06
 Optimization of the real space projectors (new method)

 maximal supplied QI-value         = 24.76
 optimisation between [QCUT,QGAM] = [ 11.39, 22.77] = [ 36.31,145.25] Ry 
 Optimized for a Real-space Cutoff    1.20 Angstroem

   l    n(q)    QCUT    max X(q) W(low)/X(q) W(high)/X(q)  e(spline) 
   0      8    11.387    14.049    0.69E-04    0.23E-03    0.18E-06
   0      8    11.387     8.945    0.88E-04    0.30E-03    0.26E-06
   1      8    11.387     7.086    0.62E-04    0.27E-03    0.27E-06
   1      8    11.387     6.747    0.46E-04    0.23E-03    0.25E-06

 ----------------------------------------------------------------------------- 
|                                                                             |
|  ADVICE TO THIS USER RUNNING 'VASP/VAMP'   (HEAR YOUR MASTER'S VOICE ...):  |
|                                                                             |
|      You enforced a specific xc-type in the INCAR file,                     |
|      a different type was found on the POTCAR file                          |
|          I HOPE YOU KNOW, WHAT YOU ARE  DOING                               |
|                                                                             |
 ----------------------------------------------------------------------------- 

  PAW_PBE Li_sv 10Sep2004               :
 energy of atom  1       EATOM= -202.7858
 kinetic energy error for atom=    0.0143 (will be added to EATOM!!)
  PAW_PBE Ti_pv 07Sep2000               :
 energy of atom  2       EATOM=-1042.5995
 kinetic energy error for atom=    0.0024 (will be added to EATOM!!)
  PAW_PBE O 08Apr2002                   :
 energy of atom  3       EATOM= -432.3788
 kinetic energy error for atom=    0.0224 (will be added to EATOM!!)
  PAW_PBE F 08Apr2002                   :
 energy of atom  4       EATOM= -659.6475
 kinetic energy error for atom=    0.0354 (will be added to EATOM!!)
 
 
 POSCAR: config 43                               
  positions in direct lattice
  velocities in cartesian coordinates
 exchange correlation table for  LEXCH =       14
   RHO(1)=    0.500       N(1)  =     2000
   RHO(2)=  100.500       N(2)  =     4000

 VTST: version 3.2, (02/03/18)

 CHAIN: initializing optimizer
 
 OPT: Using VASP QUASI-newton optimizer
 CHAIN: Read ICHAIN            0
 
 POSCAR: config 43                               
  positions in direct lattice
  velocities in cartesian coordinates
 


--------------------------------------------------------------------------------------------------------


 ion  position               nearest neighbor table
   1  0.555  0.622  0.627- 218 1.94 136 1.94 116 1.95  73 2.05  33 2.73
   2  0.995  0.996  0.995- 118 1.86  68 1.88 103 1.89 171 2.02 212 2.04 130 2.04
   3  1.000  0.992  0.493- 119 1.81  67 1.82 172 1.94 193 1.95 131 2.01 213 2.08
   4  0.006  0.496  0.997-  89 1.84 117 1.86 138 1.93 132 1.98 214 2.01 194 2.03
   5  0.995  0.503  0.508-  66 1.82 104 1.84 215 1.92 223 2.00 173 2.01 137 2.03
   6  0.494  0.994  0.999- 101 1.83 121 1.84 140 1.95 133 1.96 216 2.02 174 2.03
   7  0.501  0.007  0.500- 112 1.79 191 1.91 134 1.92 139 1.92 175 1.94 225 1.94
   8  0.504  0.496  0.998-  70 1.87 120 1.88  90 1.88 135 2.01 192 2.03 217 2.04
   9  0.491  0.496  0.493- 102 1.80  69 1.83 224 1.94 218 1.98 176 2.07 136 2.07
  10  0.007  0.003  0.256-  91 1.83  67 1.86 219 1.94 227 1.97 130 2.00 197 2.06
  11  0.002  0.007  0.757-  68 1.79 113 1.84 177 1.95 198 1.98 228 2.04 131 2.06
  12  0.994  0.494  0.252- 107 1.82 122 1.86 137 1.93 132 1.96 220 2.00 178 2.03
  13  0.993  0.499  0.742- 108 1.82  66 1.83 226 1.93 221 1.96 138 2.02 179 2.05
  14  0.506  0.008  0.250- 114 1.82  92 1.84 133 1.92 139 1.97 195 2.00 231 2.03
  15  0.493  0.006  0.752- 105 1.80 115 1.83 140 1.93 134 1.98 232 2.02 180 2.03
  16  0.492  0.498  0.256-  69 1.83 106 1.83 229 1.95 222 1.99 135 1.99 181 2.05
  17  0.501  0.503  0.762-  70 1.78 116 1.86 182 1.96 196 1.97 230 2.02 136 2.14
  18  0.996  0.257  0.001- 117 1.82 110 1.87 141 1.96 146 1.96 183 2.00 212 2.02
  19  0.999  0.248  0.491-  74 1.77 213 1.91 184 1.93 202 1.93 223 1.94 142 2.01
  20  0.998  0.758  0.006- 118 1.81  71 1.85 203 1.94 185 1.97 148 2.04 214 2.06
  21  0.997  0.757  0.506- 119 1.83  72 1.83 204 1.93 186 1.96 147 2.02 215 2.02
  22  0.495  0.258  0.001- 120 1.80 109 1.84 150 1.95 143 1.97 187 2.03 216 2.06
  23  0.509  0.244  0.500-  93 1.80 112 1.87 144 1.92 149 1.94 224 1.98 199 2.00
  24  0.508  0.756  0.998-  94 1.83 121 1.84 152 1.91 145 1.97 217 2.02 200 2.02
  25  0.504  0.754  0.502-  95 1.90  73 1.96 201 2.00 225 2.00 151 2.04 218 2.06
  26  1.000  0.258  0.255- 122 1.79  74 1.88 209 1.94 188 1.95 141 1.99 219 2.02
  27  0.007  0.243  0.747- 113 1.80  96 1.83 142 1.96 146 1.97 210 2.05 226 2.05
  28  0.007  0.749  0.243-  71 1.82  97 1.84 220 1.95 227 1.98 147 2.05 211 2.05
  29  0.993  0.750  0.743- 111 1.83  72 1.84 228 1.93 221 1.98 189 2.02 148 2.02
  30  0.508  0.242  0.251- 114 1.82  98 1.82 143 1.92 149 1.96 229 2.01 205 2.02
  31  0.507  0.243  0.750-  99 1.84 115 1.84 150 1.93 144 1.97 206 2.02 230 2.02
  32  0.507  0.752  0.249- 100 1.79 151 1.89 145 1.93 231 1.93 222 1.94 207 2.02
  33  0.502  0.745  0.743-  73 1.76 116 1.89 190 1.95 208 1.96 232 2.03 152 2.03   1 2.73
  34  0.257  0.999  0.006-  75 1.84 101 1.86 246 1.93 233 1.96 171 2.01 157 2.04
  35  0.250  0.994  0.507- 128 1.83  76 1.84 172 1.94 191 1.98 156 2.02 234 2.02
  36  0.244  0.508  0.998- 123 1.82  89 1.84 159 1.94 153 1.97 192 2.02 245 2.03
  37  0.254  0.494  0.507-  77 1.85 127 1.88 102 1.88 173 2.03 235 2.04 158 2.05
  38  0.757  0.000  0.994- 103 1.79  81 1.87 236 1.95 249 1.96 154 2.05 174 2.05
  39  0.750  0.006  0.494-  80 1.83 124 1.84 193 1.93 175 1.99 155 2.00 250 2.01
  40  0.742  0.501  0.005-  90 1.80  78 1.87 237 1.95 247 1.96 161 2.03 194 2.05
  41  0.756  0.498  0.506- 104 1.85  79 1.85 248 1.95 238 1.97 160 2.02 176 2.02
  42  0.245  0.003  0.244-  75 1.83  91 1.85 239 1.94 252 1.96 156 2.04 195 2.05
  43  0.258  0.998  0.744-  76 1.84 105 1.84 253 1.93 240 1.97 177 2.02 157 2.02
  44  0.255  0.492  0.252- 129 1.83 106 1.84 158 1.93 153 1.97 178 2.03 241 2.03
  45  0.247  0.506  0.742-  77 1.79 125 1.83 179 1.95 196 1.99 251 2.02 159 2.06
  46  0.745  0.000  0.256-  92 1.85  80 1.86 256 1.94 242 1.95 197 2.00 154 2.00
  47  0.748  0.006  0.756-  81 1.82 126 1.84 180 1.95 198 1.96 257 2.03 155 2.06
  48  0.756  0.499  0.243-  78 1.81 107 1.86 243 1.95 254 1.96 181 2.02 160 2.05
  49  0.758  0.498  0.743- 108 1.83  79 1.84 255 1.93 244 1.98 161 2.03 182 2.04
  50  0.257  0.251  0.006- 109 1.83  82 1.86 245 1.93 233 1.97 168 2.02 183 2.05
  51  0.253  0.257  0.506- 127 1.81  83 1.85 199 1.96 184 2.01 167 2.03 234 2.04
  52  0.252  0.743  0.994- 123 1.82  86 1.83 200 1.94 185 1.96 162 2.03 246 2.04
  53  0.251  0.755  0.493-  85 1.83 128 1.86 201 1.94 186 1.96 235 2.01 163 2.04
  54  0.758  0.251  0.007- 110 1.81  84 1.85 236 1.94 247 1.94 170 2.03 187 2.03
  55  0.743  0.242  0.498- 124 1.82  93 1.84 169 1.93 164 1.95 248 2.02 202 2.03
  56  0.742  0.750  0.994-  94 1.82  88 1.83 237 1.94 249 1.95 203 2.02 165 2.02
  57  0.741  0.753  0.494-  95 1.77  87 1.88 250 1.95 238 1.98 166 2.03 204 2.05
  58  0.252  0.258  0.244- 129 1.82  82 1.83 205 1.96 188 1.99 167 2.03 239 2.03
  59  0.244  0.252  0.744-  83 1.83  96 1.84 251 1.94 240 1.97 168 2.03 206 2.05
  60  0.244  0.748  0.256-  97 1.83  85 1.85 241 1.94 252 1.97 162 2.03 207 2.05
  61  0.247  0.742  0.757- 125 1.81  86 1.83 189 1.93 208 1.98 163 2.03 253 2.04
  62  0.743  0.251  0.242-  84 1.79  98 1.83 254 1.93 242 1.94 209 2.03 169 2.06
  63  0.744  0.242  0.751- 126 1.82  99 1.84 170 1.93 164 1.99 210 2.02 255 2.04
  64  0.746  0.751  0.257-  87 1.80 100 1.90 243 1.94 256 1.95 211 1.98 165 2.03
  65  0.758  0.751  0.757- 111 1.82  88 1.83 257 1.93 244 1.98 190 2.02 166 2.05
  66  0.011  0.502  0.625-   5 1.82  13 1.83
  67  0.996  0.006  0.376-   3 1.82  10 1.86
  68  1.000  0.002  0.873-  11 1.79   2 1.88
  69  0.498  0.498  0.374-   9 1.83  16 1.83
  70  0.490  0.500  0.877-  17 1.78   8 1.87
  71  1.000  0.746  0.126-  28 1.82  20 1.85
  72  0.002  0.746  0.624-  21 1.83  29 1.84
  73  0.508  0.746  0.629-  33 1.76  25 1.96   1 2.05
  74  0.995  0.247  0.376-  19 1.77  26 1.88
  75  0.255  0.003  0.125-  42 1.83  34 1.84
  76  0.254  0.004  0.625-  43 1.84  35 1.84
  77  0.238  0.495  0.626-  45 1.79  37 1.85
  78  0.749  0.493  0.125-  48 1.81  40 1.87
  79  0.742  0.498  0.625-  49 1.84  41 1.85
  80  0.751  0.997  0.376-  39 1.83  46 1.86
  81  0.746  0.997  0.874-  47 1.82  38 1.87
  82  0.247  0.250  0.126-  58 1.83  50 1.86
  83  0.253  0.250  0.625-  59 1.83  51 1.85
  84  0.744  0.256  0.126-  62 1.79  54 1.85
  85  0.256  0.747  0.375-  53 1.83  60 1.85
  86  0.251  0.753  0.875-  61 1.83  52 1.83
  87  0.754  0.754  0.373-  64 1.80  57 1.88
  88  0.750  0.754  0.876-  65 1.83  56 1.83
  89  0.125  0.504  0.993-   4 1.84  36 1.84
  90  0.626  0.507  0.996-  40 1.80   8 1.88
  91  0.126  0.004  0.252-  10 1.83  42 1.85
  92  0.625  0.001  0.250-  14 1.84  46 1.85
  93  0.625  0.257  0.495-  23 1.80  55 1.84
  94  0.625  0.742  0.003-  56 1.82  24 1.83
  95  0.627  0.762  0.493-  57 1.77  25 1.90
  96  0.125  0.254  0.749-  27 1.83  59 1.84
  97  0.126  0.752  0.252-  60 1.83  28 1.84
  98  0.626  0.245  0.261-  30 1.82  62 1.83
  99  0.626  0.255  0.747-  31 1.84  63 1.84
 100  0.623  0.754  0.249-  32 1.79  64 1.90
 101  0.376  0.000  0.992-   6 1.83  34 1.86
 102  0.376  0.505  0.507-   9 1.80  37 1.88
 103  0.873  0.002  0.000-  38 1.79   2 1.89
 104  0.876  0.501  0.503-   5 1.84  41 1.85
 105  0.376  1.000  0.757-  15 1.80  43 1.84
 106  0.374  0.496  0.246-  16 1.83  44 1.84
 107  0.876  0.498  0.251-  12 1.82  48 1.86
 108  0.875  0.510  0.744-  13 1.82  49 1.83
 109  0.376  0.248  0.003-  50 1.83  22 1.84
 110  0.875  0.248  0.004-  54 1.81  18 1.87
 111  0.875  0.741  0.749-  65 1.82  29 1.83
 112  0.511  0.123  0.500-   7 1.79  23 1.87
 113  1.000  0.126  0.744-  27 1.80  11 1.84
 114  0.495  0.125  0.257-  14 1.82  30 1.82
 115  0.504  0.124  0.744-  15 1.83  31 1.84
 116  0.513  0.622  0.746-  17 1.86  33 1.89   1 1.95
 117  0.001  0.375  0.004-  18 1.82   4 1.86
 118  0.002  0.875  0.001-  20 1.81   2 1.86
 119  0.996  0.875  0.498-   3 1.81  21 1.83
 120  0.503  0.374  0.005-  22 1.80   8 1.88
 121  0.505  0.875  0.998-  24 1.84   6 1.84
 122  0.007  0.374  0.248-  26 1.79  12 1.86
 123  0.256  0.625  0.002-  52 1.82  36 1.82
 124  0.743  0.125  0.502-  55 1.82  39 1.84
 125  0.245  0.624  0.751-  61 1.81  45 1.83
 126  0.749  0.125  0.746-  63 1.82  47 1.84
 127  0.253  0.373  0.494-  51 1.81  37 1.88
 128  0.253  0.876  0.500-  35 1.83  53 1.86
 129  0.242  0.375  0.256-  58 1.82  44 1.83
 130  0.000  0.003  0.127-  10 2.00   2 2.04
 131  0.004  0.998  0.624-   3 2.01  11 2.06
 132  0.003  0.508  0.125-  12 1.96   4 1.98
 133  0.495  0.002  0.126-  14 1.92   6 1.96
 134  0.498  0.993  0.624-   7 1.92  15 1.98
 135  0.505  0.504  0.128-  16 1.99   8 2.01
 136  0.515  0.502  0.625-   1 1.94   9 2.07  17 2.14
 137  0.001  0.497  0.376-  12 1.93   5 2.03
 138  0.993  0.498  0.873-   4 1.93  13 2.02
 139  0.503  0.995  0.377-   7 1.92  14 1.97
 140  0.515  0.005  0.875-  15 1.93   6 1.95
 141  0.007  0.246  0.127-  18 1.96  26 1.99
 142  0.999  0.258  0.621-  27 1.96  19 2.01
 143  0.508  0.244  0.127-  30 1.92  22 1.97
 144  0.496  0.252  0.623-  23 1.92  31 1.97
 145  0.495  0.752  0.125-  32 1.93  24 1.97
 146  0.996  0.251  0.874-  18 1.96  27 1.97
 147  0.995  0.750  0.375-  21 2.02  28 2.05
 148  0.002  0.751  0.874-  29 2.02  20 2.04
 149  0.492  0.258  0.376-  23 1.94  30 1.96
 150  0.501  0.248  0.875-  31 1.93  22 1.95
 151  0.491  0.750  0.371-  32 1.89  25 2.04
 152  0.497  0.746  0.874-  24 1.91  33 2.03
 153  0.242  0.495  0.125-  44 1.97  36 1.97
 154  0.750  0.006  0.126-  46 2.00  38 2.05
 155  0.746  0.997  0.623-  39 2.00  47 2.06
 156  0.253  0.001  0.376-  35 2.02  42 2.04
 157  0.243  0.995  0.874-  43 2.02  34 2.04
 158  0.250  0.511  0.375-  44 1.93  37 2.05
 159  0.262  0.498  0.874-  36 1.94  45 2.06
 160  0.749  0.504  0.375-  41 2.02  48 2.05
 161  0.755  0.504  0.874-  49 2.03  40 2.03
 162  0.252  0.754  0.125-  60 2.03  52 2.03
 163  0.248  0.751  0.625-  61 2.03  53 2.04
 164  0.752  0.258  0.623-  55 1.95  63 1.99
 165  0.754  0.747  0.125-  56 2.02  64 2.03
 166  0.746  0.745  0.625-  57 2.03  65 2.05
 167  0.253  0.244  0.375-  58 2.03  51 2.03
 168  0.252  0.251  0.875-  50 2.02  59 2.03
 169  0.762  0.246  0.374-  55 1.93  62 2.06
 170  0.752  0.247  0.876-  63 1.93  54 2.03
 171  0.126  0.002  0.002-  34 2.01   2 2.02
 172  0.125  0.004  0.498-  35 1.94   3 1.94
 173  0.124  0.499  0.491-   5 2.01  37 2.03
 174  0.625  0.002  0.007-   6 2.03  38 2.05
 175  0.624  0.984  0.502-   7 1.94  39 1.99
 176  0.626  0.492  0.496-  41 2.02   9 2.07
 177  0.127  0.997  0.747-  11 1.95  43 2.02
 178  0.124  0.508  0.252-  12 2.03  44 2.03
 179  0.124  0.491  0.764-  45 1.95  13 2.05
 180  0.624  0.991  0.742-  47 1.95  15 2.03
 181  0.625  0.500  0.252-  48 2.02  16 2.05
 182  0.627  0.488  0.759-  17 1.96  49 2.04
 183  0.125  0.250  0.995-  18 2.00  50 2.05
 184  0.124  0.247  0.499-  19 1.93  51 2.01
 185  0.125  0.745  0.001-  52 1.96  20 1.97
 186  0.124  0.750  0.496-  53 1.96  21 1.96
 187  0.626  0.249  0.995-  22 2.03  54 2.03
 188  0.125  0.237  0.256-  26 1.95  58 1.99
 189  0.123  0.757  0.751-  61 1.93  29 2.02
 190  0.627  0.759  0.755-  33 1.95  65 2.02
 191  0.377  0.011  0.496-   7 1.91  35 1.98
 192  0.373  0.496  0.011-  36 2.02   8 2.03
 193  0.875  0.007  0.509-  39 1.93   3 1.95
 194  0.875  0.498  0.001-   4 2.03  40 2.05
 195  0.377  0.996  0.256-  14 2.00  42 2.05
 196  0.376  0.502  0.738-  17 1.97  45 1.99
 197  0.874  0.999  0.247-  46 2.00  10 2.06
 198  0.874  0.997  0.743-  47 1.96  11 1.98
 199  0.379  0.242  0.498-  51 1.96  23 2.00
 200  0.377  0.757  0.001-  52 1.94  24 2.02
 201  0.375  0.740  0.506-  53 1.94  25 2.00
 202  0.875  0.249  0.504-  19 1.93  55 2.03
 203  0.873  0.754  0.999-  20 1.94  56 2.02
 204  0.873  0.742  0.503-  21 1.93  57 2.05
 205  0.378  0.258  0.247-  58 1.96  30 2.02
 206  0.377  0.248  0.753-  31 2.02  59 2.05
 207  0.377  0.749  0.245-  32 2.02  60 2.05
 208  0.375  0.749  0.748-  33 1.96  61 1.98
 209  0.874  0.255  0.245-  26 1.94  62 2.03
 210  0.875  0.252  0.747-  63 2.02  27 2.05
 211  0.875  0.748  0.248-  64 1.98  28 2.05
 212  0.004  0.127  0.001-  18 2.02   2 2.04
 213  0.999  0.126  0.509-  19 1.91   3 2.08
 214  0.994  0.625  0.995-   4 2.01  20 2.06
 215  0.003  0.626  0.493-   5 1.92  21 2.02
 216  0.504  0.125  0.001-   6 2.02  22 2.06
 217  0.490  0.627  0.005-  24 2.02   8 2.04
 218  0.515  0.621  0.508-   1 1.94   9 1.98  25 2.06
 219  0.992  0.128  0.246-  10 1.94  26 2.02
 220  0.999  0.623  0.257-  28 1.95  12 2.00
 221  0.013  0.624  0.756-  13 1.96  29 1.98
 222  0.501  0.626  0.248-  32 1.94  16 1.99
 223  0.002  0.374  0.498-  19 1.94   5 2.00
 224  0.493  0.371  0.505-   9 1.94  23 1.98
 225  0.484  0.883  0.498-   7 1.94  25 2.00
 226  0.994  0.375  0.751-  13 1.93  27 2.05
 227  0.996  0.876  0.252-  10 1.97  28 1.98
 228  0.997  0.876  0.747-  29 1.93  11 2.04
 229  0.505  0.372  0.245-  16 1.95  30 2.01
 230  0.494  0.374  0.747-  17 2.02  31 2.02
 231  0.497  0.877  0.249-  32 1.93  14 2.03
 232  0.499  0.875  0.756-  15 2.02  33 2.03
 233  0.246  0.125  0.994-  34 1.96  50 1.97
 234  0.248  0.125  0.497-  35 2.02  51 2.04
 235  0.244  0.626  0.505-  53 2.01  37 2.04
 236  0.744  0.126  1.000-  54 1.94  38 1.95
 237  0.761  0.625  0.001-  56 1.94  40 1.95
 238  0.743  0.625  0.500-  41 1.97  57 1.98
 239  0.260  0.127  0.254-  42 1.94  58 2.03
 240  0.249  0.125  0.757-  43 1.97  59 1.97
 241  0.252  0.624  0.242-  60 1.94  44 2.03
 242  0.759  0.126  0.251-  62 1.94  46 1.95
 243  0.748  0.625  0.248-  64 1.94  48 1.95
 244  0.735  0.625  0.749-  65 1.98  49 1.98
 245  0.249  0.376  0.998-  50 1.93  36 2.03
 246  0.245  0.874  0.003-  34 1.93  52 2.04
 247  0.748  0.375  0.990-  54 1.94  40 1.96
 248  0.756  0.372  0.493-  41 1.95  55 2.02
 249  0.746  0.875  0.010-  56 1.95  38 1.96
 250  0.763  0.877  0.506-  57 1.95  39 2.01
 251  0.257  0.376  0.756-  59 1.94  45 2.02
 252  0.254  0.876  0.251-  42 1.96  60 1.97
 253  0.251  0.873  0.746-  43 1.93  61 2.04
 254  0.748  0.374  0.262-  62 1.93  48 1.96
 255  0.758  0.374  0.754-  49 1.93  63 2.04
 256  0.754  0.876  0.240-  46 1.94  64 1.95
 257  0.755  0.875  0.742-  65 1.93  47 2.03
 

IMPORTANT INFORMATION: All symmetrisations will be switched off!
NOSYMM: (Re-)initialisation of all symmetry stuff for point group C_1.

 
 
 KPOINTS: Title                                   

Automatic generation of k-mesh.
Space group operators:
 irot       det(A)        alpha          n_x          n_y          n_z        tau_x        tau_y        tau_z
    1     1.000000     0.000001     1.000000     0.000000     0.000000     0.000000     0.000000     0.000000
 
 Subroutine IBZKPT returns following result:
 ===========================================
 
 Found      4 irreducible k-points:
 
 Following reciprocal coordinates:
            Coordinates               Weight
  0.250000  0.250000  0.250000      2.000000
 -0.250000  0.250000  0.250000      2.000000
  0.250000 -0.250000  0.250000      2.000000
 -0.250000 -0.250000  0.250000      2.000000
 
 Following cartesian coordinates:
            Coordinates               Weight
  0.016206  0.016206  0.016206      2.000000
 -0.016206  0.016206  0.016206      2.000000
  0.016206 -0.016206  0.016206      2.000000
 -0.016206 -0.016206  0.016206      2.000000
 


--------------------------------------------------------------------------------------------------------




 Dimension of arrays:
   k-points           NKPTS =      4   k-points in BZ     NKDIM =      4   number of bands    NBANDS=   1164
   number of dos      NEDOS =   3001   number of ions     NIONS =    257
   non local maximal  LDIM  =      6   non local SUM 2l+1 LMDIM =     18
   total plane-waves  NPLWV = ******
   max r-space proj   IRMAX =   7595   max aug-charges    IRDMAX= 146383
   dimension x,y,z NGX =   120 NGY =  120 NGZ =  120
   dimension x,y,z NGXF=   240 NGYF=  240 NGZF=  240
   support grid    NGXF=   480 NGYF=  480 NGZF=  480
   ions per type =               1  64  64 128
   NGX,Y,Z   is equivalent  to a cutoff of  12.93, 12.93, 12.93 a.u.
   NGXF,Y,Z  is equivalent  to a cutoff of  25.86, 25.86, 25.86 a.u.

 SYSTEM =  LTO                                     
 POSCAR =  config 43                               

 Startparameter for this run:
   NWRITE =      2    write-flag & timer
   PREC   = accura    normal or accurate (medium, high low for compatibility)
   ISTART =      1    job   : 0-new  1-cont  2-samecut
   ICHARG =      0    charge: 1-file 2-atom 10-const
   ISPIN  =      2    spin polarized calculation?
   LNONCOLLINEAR =      F non collinear calculations
   LSORBIT =      F    spin-orbit coupling
   INIWAV =      1    electr: 0-lowe 1-rand  2-diag
   LASPH  =      T    aspherical Exc in radial PAW
   METAGGA=      F    non-selfconsistent MetaGGA calc.

 Electronic Relaxation 1
   ENCUT  =  500.0 eV  36.75 Ry    6.06 a.u.  28.13 28.13 28.13*2*pi/ulx,y,z
   ENINI  =  500.0     initial cutoff
   ENAUG  =  628.9 eV  augmentation charge cutoff
   NELM   =     60;   NELMIN=  2; NELMDL=  0     # of ELM steps 
   EDIFF  = 0.1E-05   stopping-criterion for ELM
   LREAL  =      T    real-space projection
   NLSPLINE    = F    spline interpolate recip. space projectors
   LCOMPAT=      F    compatible to vasp.4.4
   GGA_COMPAT  = T    GGA compatible to vasp.4.4-vasp.4.6
   LMAXPAW     = -100 max onsite density
   LMAXMIX     =    4 max onsite mixed and CHGCAR
   VOSKOWN=      0    Vosko Wilk Nusair interpolation
   ROPT   =   -0.00010  -0.00010  -0.00010  -0.00010
 Ionic relaxation
   EDIFFG = -.5E-01   stopping-criterion for IOM
   NSW    =    100    number of steps for IOM
   NBLOCK =      1;   KBLOCK =    100    inner block; outer block 
   IBRION =      1    ionic relax: 0-MD 1-quasi-New 2-CG
   NFREE  =      0    steps in history (QN), initial steepest desc. (CG)
   ISIF   =      2    stress and relaxation
   IWAVPR =     11    prediction:  0-non 1-charg 2-wave 3-comb
   ISYM   =      0    0-nonsym 1-usesym 2-fastsym
   LCORR  =      T    Harris-Foulkes like correction to forces

   POTIM  = 0.5000    time-step for ionic-motion
   TEIN   =    0.0    initial temperature
   TEBEG  =    0.0;   TEEND  =   0.0 temperature during run
   SMASS  =  -3.00    Nose mass-parameter (am)
   estimated Nose-frequenzy (Omega)   =  0.10E-29 period in steps =****** mass=  -0.544E-26a.u.
   SCALEE = 1.0000    scale energy and forces
   NPACO  =    256;   APACO  = 16.0  distance and # of slots for P.C.
   PSTRESS=    0.0 pullay stress

  Mass of Ions in am
   POMASS =   7.01 47.88 16.00 19.00
  Ionic Valenz
   ZVAL   =   3.00 10.00  6.00  7.00
  Atomic Wigner-Seitz radii
   RWIGS  =  -1.00 -1.00 -1.00 -1.00
  virtual crystal weights 
   VCA    =   1.00  1.00  1.00  1.00
   NELECT =    1923.0000    total number of electrons
   NUPDOWN=       1.0000    fix difference up-down

 DOS related values:
   EMIN   =  10.00;   EMAX   =-10.00  energy-range for DOS
   EFERMI =   0.00
   ISMEAR =     0;   SIGMA  =   0.01  broadening in eV -4-tet -1-fermi 0-gaus

 Electronic relaxation 2 (details)
   IALGO  =     38    algorithm
   LDIAG  =      T    sub-space diagonalisation (order eigenvalues)
   LSUBROT=      F    optimize rotation matrix (better conditioning)
   TURBO    =      0    0=normal 1=particle mesh
   IRESTART =      0    0=no restart 2=restart with 2 vectors
   NREBOOT  =      0    no. of reboots
   NMIN     =      0    reboot dimension
   EREF     =   0.00    reference energy to select bands
   IMIX   =      4    mixing-type and parameters
     AMIX     =   0.40;   BMIX     =  1.00
     AMIX_MAG =   1.60;   BMIX_MAG =  1.00
     AMIN     =   0.10
     WC   =   100.;   INIMIX=   1;  MIXPRE=   1;  MAXMIX= -45

 Intra band minimization:
   WEIMIN = 0.0010     energy-eigenvalue tresh-hold
   EBREAK =  0.21E-09  absolut break condition
   DEPER  =   0.30     relativ break condition  

   TIME   =   0.40     timestep for ELM

  volume/ion in A,a.u.               =      14.28        96.39
  Fermi-wavevector in a.u.,A,eV,Ry     =   1.319690  2.493853 23.695660  1.741582
  Thomas-Fermi vector in A             =   2.449570
 
 Write flags
   LWAVE        =      T    write WAVECAR
   LDOWNSAMPLE  =      F    k-point downsampling of WAVECAR
   LCHARG       =      T    write CHGCAR
   LVTOT        =      F    write LOCPOT, total local potential
   LVHAR        =      F    write LOCPOT, Hartree potential only
   LELF         =      F    write electronic localiz. function (ELF)
   LORBIT       =     11    0 simple, 1 ext, 2 COOP (PROOUT), +10 PAW based schemes


 Dipole corrections
   LMONO  =      F    monopole corrections only (constant potential shift)
   LDIPOL =      F    correct potential (dipole corrections)
   IDIPOL =      0    1-x, 2-y, 3-z, 4-all directions 
   EPSILON=  1.0000000 bulk dielectric constant

 LDA+U is selected, type is set to LDAUTYPE =  2
   angular momentum for each species LDAUL =    -1    2   -1   -1
   U (eV)           for each species LDAUU =   0.0  4.2  0.0  0.0
   J (eV)           for each species LDAUJ =   0.0  0.0  0.0  0.0
 Exchange correlation treatment:
   GGA     =    PS    GGA type
   LEXCH   =    14    internal setting for exchange type
   VOSKOWN=      0    Vosko Wilk Nusair interpolation
   LHFCALC =     F    Hartree Fock is set to
   LHFONE  =     F    Hartree Fock one center treatment
   AEXX    =    0.0000 exact exchange contribution

 Linear response parameters
   LEPSILON=     F    determine dielectric tensor
   LRPA    =     F    only Hartree local field effects (RPA)
   LNABLA  =     F    use nabla operator in PAW spheres
   LVEL    =     F    velocity operator in full k-point grid
   LINTERFAST=   F  fast interpolation
   KINTER  =     0    interpolate to denser k-point grid
   CSHIFT  =0.1000    complex shift for real part using Kramers Kronig
   OMEGAMAX=  -1.0    maximum frequency
   DEG_THRESHOLD= 0.2000000E-02 threshold for treating states as degnerate
   RTIME   =   -0.100 relaxation time in fs
  (WPLASMAI=    0.000 imaginary part of plasma frequency in eV, 0.658/RTIME)
   DFIELD  = 0.0000000 0.0000000 0.0000000 field for delta impulse in time
 
 Orbital magnetization related:
   ORBITALMAG=     F  switch on orbital magnetization
   LCHIMAG   =     F  perturbation theory with respect to B field
   DQ        =  0.001000  dq finite difference perturbation B field
   LLRAUG    =     F  two centre corrections for induced B field



--------------------------------------------------------------------------------------------------------


 quasi-Newton-method for relaxation of ions
 charge density and potential will be updated during run
 spin polarized calculation
 Variant of blocked Davidson
 Davidson routine will perform the subspace rotation
 perform sub-space diagonalisation
    after iterative eigenvector-optimisation
 modified Broyden-mixing scheme, WC =      100.0
 initial mixing is a Kerker type mixing with AMIX =  0.4000 and BMIX =      1.0000
 Hartree-type preconditioning will be used
 using additional bands          202
 real space projection scheme for non local part
 use partial core corrections
 calculate Harris-corrections to forces 
   (improved forces if not selfconsistent)
 use gradient corrections 
 use of overlap-Matrix (Vanderbilt PP)
 Gauss-broadening in eV      SIGMA  =   0.01


--------------------------------------------------------------------------------------------------------


  energy-cutoff  :      500.00
  volume of cell :     3671.03
      direct lattice vectors                 reciprocal lattice vectors
    15.426331000  0.000000000  0.000000000     0.064824228  0.000000000  0.000000000
     0.000000000 15.426331000  0.000000000     0.000000000  0.064824228  0.000000000
     0.000000000  0.000000000 15.426331000     0.000000000  0.000000000  0.064824228

  length of vectors
    15.426331000 15.426331000 15.426331000     0.064824228  0.064824228  0.064824228


 
 old parameters found on file WAVECAR:
  energy-cutoff  :      500.00
  volume of cell :     3671.03
      direct lattice vectors                 reciprocal lattice vectors
    15.426331000  0.000000000  0.000000000     0.064824228  0.000000000  0.000000000
     0.000000000 15.426331000  0.000000000     0.000000000  0.064824228  0.000000000
     0.000000000  0.000000000 15.426331000     0.000000000  0.000000000  0.064824228

  length of vectors

 
 k-points in units of 2pi/SCALE and weight: Title                                   
   0.01620606  0.01620606  0.01620606       0.250
  -0.01620606  0.01620606  0.01620606       0.250
   0.01620606 -0.01620606  0.01620606       0.250
  -0.01620606 -0.01620606  0.01620606       0.250
 
 k-points in reciprocal lattice and weights: Title                                   
   0.25000000  0.25000000  0.25000000       0.250
  -0.25000000  0.25000000  0.25000000       0.250
   0.25000000 -0.25000000  0.25000000       0.250
  -0.25000000 -0.25000000  0.25000000       0.250
 
 position of ions in fractional coordinates (direct lattice) 
   0.55518644  0.62163244  0.62686960
   0.99544644  0.99552505  0.99455946
   0.99950616  0.99178603  0.49344990
   0.00615760  0.49552465  0.99749667
   0.99488232  0.50256877  0.50777396
   0.49441903  0.99428475  0.99896515
   0.50071044  0.00735367  0.50042586
   0.50435640  0.49558876  0.99759475
   0.49142081  0.49613898  0.49250454
   0.00707405  0.00305429  0.25614103
   0.00162570  0.00745753  0.75675474
   0.99354715  0.49397329  0.25151431
   0.99317203  0.49937311  0.74194430
   0.50647823  0.00821830  0.24977097
   0.49299979  0.00615285  0.75167279
   0.49235942  0.49762740  0.25573490
   0.50100151  0.50348890  0.76233155
   0.99567666  0.25749341  0.00117416
   0.99894790  0.24801412  0.49123796
   0.99840775  0.75816349  0.00617116
   0.99705230  0.75650834  0.50597864
   0.49510805  0.25792477  0.00069941
   0.50885418  0.24363575  0.49967451
   0.50750056  0.75638112  0.99752259
   0.50405548  0.75428217  0.50198913
   0.99995540  0.25840105  0.25512194
   0.00705484  0.24263796  0.74724543
   0.00732773  0.74872235  0.24305034
   0.99281068  0.75037405  0.74316785
   0.50841687  0.24220397  0.25134370
   0.50736546  0.24324217  0.74989514
   0.50736333  0.75179551  0.24891366
   0.50223864  0.74469447  0.74265500
   0.25659255  0.99881646  0.00603320
   0.25007701  0.99387621  0.50655192
   0.24396490  0.50792898  0.99763594
   0.25422864  0.49413268  0.50719928
   0.75736775  0.00032370  0.99412627
   0.75037334  0.00622966  0.49418633
   0.74211274  0.50075235  0.00483064
   0.75619573  0.49796055  0.50563841
   0.24513564  0.00252825  0.24378622
   0.25767896  0.99807584  0.74432572
   0.25487644  0.49235062  0.25176461
   0.24688286  0.50602342  0.74155325
   0.74502254  0.00016067  0.25562022
   0.74804830  0.00597342  0.75620435
   0.75561508  0.49930019  0.24255495
   0.75760553  0.49836852  0.74277359
   0.25746719  0.25145229  0.00590786
   0.25340151  0.25659743  0.50564332
   0.25211875  0.74269352  0.99355512
   0.25072991  0.75514590  0.49297646
   0.75753772  0.25072767  0.00686372
   0.74302340  0.24235571  0.49767374
   0.74228346  0.74980773  0.99446029
   0.74107709  0.75300265  0.49363177
   0.25157699  0.25771952  0.24370294
   0.24439346  0.25183146  0.74381102
   0.24449366  0.74829079  0.25575671
   0.24749505  0.74163567  0.75672659
   0.74262507  0.25064122  0.24225558
   0.74438433  0.24202322  0.75069940
   0.74647583  0.75054647  0.25659329
   0.75779075  0.75083271  0.75735212
   0.01086977  0.50173821  0.62494219
   0.99572544  0.00606482  0.37609431
   0.99999022  0.00230673  0.87280530
   0.49768398  0.49797143  0.37426208
   0.49013653  0.50015579  0.87716583
   0.99971020  0.74633061  0.12562213
   0.00173903  0.74578092  0.62425304
   0.50848425  0.74587524  0.62864512
   0.99545536  0.24685595  0.37639025
   0.25504875  0.00334175  0.12542489
   0.25404335  0.00352768  0.62541350
   0.23787049  0.49509534  0.62614444
   0.74891478  0.49335834  0.12545937
   0.74162257  0.49829685  0.62456039
   0.75083760  0.99712663  0.37588448
   0.74632814  0.99664492  0.87352301
   0.24671350  0.24971315  0.12576677
   0.25310938  0.24955378  0.62523763
   0.74360092  0.25622685  0.12609037
   0.25552842  0.74673999  0.37487856
   0.25113244  0.75270539  0.87504894
   0.75406107  0.75394358  0.37270428
   0.75019607  0.75387889  0.87590387
   0.12476384  0.50373770  0.99278045
   0.62591630  0.50747334  0.99637879
   0.12570977  0.00353771  0.25200264
   0.62530819  0.00143177  0.24971429
   0.62498503  0.25714660  0.49518211
   0.62493437  0.74225605  0.00271943
   0.62691999  0.76164747  0.49336808
   0.12510068  0.25418498  0.74908223
   0.12601242  0.75150799  0.25197546
   0.62587406  0.24514060  0.26129389
   0.62578001  0.25518697  0.74722898
   0.62331004  0.75350509  0.24880276
   0.37609683  0.00032487  0.99233640
   0.37574083  0.50487008  0.50678522
   0.87321404  0.00232241  0.00033130
   0.87573175  0.50149498  0.50283736
   0.37628638  0.99968289  0.75658194
   0.37407702  0.49632281  0.24629347
   0.87561522  0.49765516  0.25072097
   0.87537226  0.50983847  0.74354215
   0.37600595  0.24829810  0.00285952
   0.87453757  0.24829686  0.00429872
   0.87501514  0.74096957  0.74905025
   0.51104567  0.12272566  0.49955290
   0.99952400  0.12608065  0.74404309
   0.49489476  0.12525688  0.25703761
   0.50397698  0.12419245  0.74446958
   0.51250297  0.62237415  0.74601958
   0.00068234  0.37527966  0.00382649
   0.00204808  0.87520462  0.00112933
   0.99644193  0.87482923  0.49827334
   0.50316911  0.37418149  0.00465720
   0.50458108  0.87546004  0.99796804
   0.00700143  0.37412000  0.24779456
   0.25559943  0.62522900  0.00165822
   0.74271364  0.12475658  0.50190539
   0.24479899  0.62421604  0.75053674
   0.74871374  0.12451179  0.74616649
   0.25252504  0.37316093  0.49383831
   0.25302579  0.87572816  0.49993584
   0.24223544  0.37476403  0.25631554
   0.00012825  0.00261527  0.12682966
   0.00381693  0.99798277  0.62354449
   0.00274585  0.50799693  0.12527924
   0.49474221  0.00190592  0.12588648
   0.49770256  0.99332472  0.62386600
   0.50525481  0.50354214  0.12760737
   0.51495778  0.50239681  0.62459096
   0.00115180  0.49656665  0.37642852
   0.99328738  0.49823017  0.87276465
   0.50341156  0.99501218  0.37662427
   0.51512584  0.00502208  0.87470605
   0.00683477  0.24583650  0.12721021
   0.99907466  0.25781185  0.62132561
   0.50818254  0.24405645  0.12681001
   0.49570397  0.25181583  0.62328714
   0.49492133  0.75161420  0.12472888
   0.99644029  0.25070450  0.87408424
   0.99467178  0.74963410  0.37508658
   0.00172157  0.75051343  0.87391200
   0.49174850  0.25817639  0.37615842
   0.50109348  0.24841815  0.87452089
   0.49080886  0.75019571  0.37057397
   0.49674661  0.74562600  0.87441327
   0.24221981  0.49501927  0.12498682
   0.74953936  0.00569761  0.12637572
   0.74604456  0.99729920  0.62313671
   0.25286973  0.00140082  0.37573697
   0.24338578  0.99526278  0.87437731
   0.25041365  0.51073014  0.37544325
   0.26197483  0.49754980  0.87379381
   0.74865885  0.50408690  0.37515910
   0.75502464  0.50388267  0.87390742
   0.25187375  0.75449637  0.12475743
   0.24751145  0.75085355  0.62529617
   0.75248073  0.25803223  0.62303918
   0.75362097  0.74675841  0.12515139
   0.74571088  0.74544740  0.62506652
   0.25290550  0.24382024  0.37453876
   0.25175237  0.25107875  0.87524757
   0.76194212  0.24630277  0.37416621
   0.75201934  0.24747029  0.87564462
   0.12624884  0.00249836  0.00224081
   0.12481706  0.00417755  0.49843199
   0.12375066  0.49898480  0.49052350
   0.62536230  0.00203618  0.00744217
   0.62388819  0.98364452  0.50206259
   0.62561645  0.49162626  0.49554819
   0.12697419  0.99681306  0.74721982
   0.12422314  0.50773953  0.25185690
   0.12356270  0.49075888  0.76444924
   0.62358343  0.99133328  0.74178401
   0.62524852  0.50008934  0.25210445
   0.62682984  0.48757606  0.75947037
   0.12527633  0.24969824  0.99523058
   0.12379520  0.24685874  0.49897398
   0.12537067  0.74535804  0.00064526
   0.12380867  0.74992925  0.49567031
   0.62633940  0.24872337  0.99471298
   0.12487474  0.23738994  0.25596559
   0.12328884  0.75682211  0.75087816
   0.62734538  0.75872292  0.75456064
   0.37692160  0.01120101  0.49644340
   0.37347147  0.49560822  0.01120399
   0.87470820  0.00742237  0.50854942
   0.87494935  0.49805406  0.00105194
   0.37744540  0.99604572  0.25609787
   0.37564190  0.50225025  0.73827822
   0.87415817  0.99883226  0.24693620
   0.87431396  0.99655137  0.74252127
   0.37904088  0.24153510  0.49824705
   0.37655677  0.75670786  0.00103871
   0.37517215  0.74023635  0.50603505
   0.87453062  0.24923601  0.50449756
   0.87284914  0.75417183  0.99925236
   0.87297544  0.74214115  0.50343042
   0.37831180  0.25785288  0.24737555
   0.37663998  0.24762851  0.75266629
   0.37666682  0.74923447  0.24510476
   0.37506351  0.74898654  0.74797176
   0.87440431  0.25530111  0.24513867
   0.87461977  0.25156762  0.74733830
   0.87467655  0.74822851  0.24789689
   0.00384288  0.12709011  0.00109576
   0.99885683  0.12562373  0.50891745
   0.99414327  0.62535199  0.99483389
   0.00296222  0.62605265  0.49294216
   0.50443721  0.12476042  0.00105462
   0.49038338  0.62703951  0.00452807
   0.51465135  0.62112790  0.50791575
   0.99207575  0.12777230  0.24641098
   0.99884983  0.62346721  0.25660541
   0.01301032  0.62436087  0.75553908
   0.50066748  0.62593831  0.24840426
   0.00166128  0.37375959  0.49837749
   0.49285982  0.37101797  0.50477445
   0.48431071  0.88252465  0.49770489
   0.99351855  0.37468364  0.75063261
   0.99629399  0.87609987  0.25158363
   0.99709474  0.87554656  0.74736906
   0.50457238  0.37231524  0.24466646
   0.49433012  0.37363106  0.74718168
   0.49702033  0.87671536  0.24863207
   0.49893273  0.87525464  0.75640774
   0.24644709  0.12501197  0.99352852
   0.24799324  0.12473709  0.49685357
   0.24418646  0.62586131  0.50465216
   0.74403524  0.12611108  0.99996601
   0.76115397  0.62546145  0.00146398
   0.74279595  0.62498714  0.49957271
   0.26039797  0.12667556  0.25374068
   0.24871337  0.12460067  0.75729533
   0.25184677  0.62377967  0.24178026
   0.75921205  0.12598069  0.25066330
   0.74776145  0.62506379  0.24846366
   0.73493610  0.62474648  0.74933705
   0.24875176  0.37615572  0.99770313
   0.24548235  0.87418779  0.00282208
   0.74788856  0.37501940  0.98956523
   0.75586769  0.37238758  0.49313032
   0.74576153  0.87509236  0.00982243
   0.76318436  0.87678802  0.50555057
   0.25728694  0.37609208  0.75613309
   0.25430493  0.87585420  0.25139594
   0.25085332  0.87329839  0.74639509
   0.74761953  0.37429221  0.26213630
   0.75803026  0.37378670  0.75442803
   0.75417488  0.87559742  0.24049319
   0.75457015  0.87506241  0.74237544
 
 position of ions in cartesian coordinates  (Angst):
   8.56448977  9.58950771  9.67029799
  15.35608631 15.35729901 15.34240349
  15.41871282 15.29961963  7.61212147
   0.09498923  7.64412734 15.38771380
  15.34738403  7.75279223  7.83308915
   7.62707157 15.33816562 15.41036699
   7.72412506  0.11344007  7.71973494
   7.78036878  7.64511622 15.38922689
   7.58082007  7.65360420  7.59753805
   0.10912662  0.04711654  3.95131624
   0.02507859  0.11504235 11.67394913
  15.32678713  7.62019555  3.87994297
  15.32100041  7.70349496 11.44547835
   7.81310086  0.12677828  3.85304963
   7.60517793  0.09491596 11.59555319
   7.59529945  7.67656500  3.94505114
   7.72861510  7.76698644 11.75997877
  15.35963766  3.97217851  0.01811299
  15.41010091  3.82594790  7.57799942
  15.40176845 11.69568087  0.09519830
  15.38085882 11.67014806  7.80539399
   7.63770061  3.97883284  0.01078927
   7.84975298  3.75840575  7.70814434
   7.82887157 11.66818549 15.38811359
   7.77572673 11.63580637  7.74385044
  15.42564299  3.98618013  3.93559551
   0.10883025  3.74301356 11.52725526
   0.11303993 11.55003884  3.74937500
  15.31542624 11.57551848 11.46435317
   7.84300700  3.73631862  3.87731117
   7.82678760  3.75233415 11.56813057
   7.82675462 11.59744643  3.83982452
   7.74769943 11.48790346 11.45644179
   3.95828159 15.40807328  0.09307018
   3.85777068 15.33186343  7.81423752
   3.76348324  7.83548050 15.38986222
   3.92181510  7.62265435  7.82422402
  11.68340561  0.00499355 15.33572091
  11.57550746  0.09610075  7.62348185
  11.44807679  7.72477153  0.07451912
  11.66532566  7.68170432  7.80014553
   3.78154349  0.03900165  3.76072700
   3.97504094 15.39664820 11.48221487
   3.93180830  7.59516364  3.88380421
   3.80849677  7.80608484 11.43944595
  11.49296434  0.00247849  3.94328219
  11.53964066  0.09214794 11.66545864
  11.65636834  7.70236992  3.74173295
  11.68707360  7.68799778 11.45827132
   3.97177417  3.87898624  0.09113662
   3.90905560  3.95835695  7.80022117
   3.88926730 11.45703610 15.32691015
   3.86784259 11.64913067  7.60481802
  11.68602768  3.86780807  0.10588197
  11.46212490  3.73865938  7.67727992
  11.45071042 11.56678217 15.34087354
  11.43210049 11.61606810  7.61492707
   3.88090986  3.97566663  3.75944225
   3.77009436  3.88483542 11.47427497
   3.77164017 11.54338149  3.94538765
   3.81794049 11.44071731 11.67351491
  11.45598011  3.86647445  3.73711474
  11.48311908  3.73353027 11.58053742
  11.51538328 11.57817830  3.95829295
  11.68993094 11.58259398 11.68316444
   0.16768061  7.73997967  9.64056501
  15.36039029  0.09355798  5.80175526
  15.42618016  0.03558445 13.46418342
   7.67743784  7.68187217  5.77349074
   7.56100840  7.71556877 13.53145038
  15.42186040 11.51314310  1.93788854
   0.02682690 11.50466340  9.62993406
   7.84404632 11.50611829  9.69768773
  15.35622383  3.80808163  5.80632054
   3.93446646  0.05155090  1.93484585
   3.91895677  0.05441921  9.64783559
   3.66946894  7.63750459  9.65911139
  11.55300725  7.61070901  1.93537769
  11.44051531  7.68689209  9.63467535
  11.58266930 15.38200548  5.79851845
  11.51310497 15.37457440 13.47525512
   3.80588409  3.85215765  1.94011988
   3.90454904  3.84969916  9.64512259
  11.47103399  3.95264023  1.94511171
   3.94186591 11.51945830  5.78300080
   3.87405211 11.61148252 13.49879460
  11.63239561 11.63058315  5.74945963
  11.57277290 11.62958525 13.51198303
   1.92464831  7.77082455 15.31495981
   9.65559201  7.82845167 15.37046902
   1.93924052  0.05457386  3.88747620
   9.64621113  0.02208695  3.85217537
   9.64122597  3.96682861  7.63884308
   9.64044446 11.45028746  0.04195089
   9.67107523 11.74942593  7.61085925
   1.92984455  3.92114157 11.55559042
   1.94390929 11.59301093  3.88705691
   9.65494035  3.78162005  4.03080610
   9.65348951  3.93659865 11.52700163
   9.61538704 11.62381892  3.83811370
   5.80179413  0.00501152 15.30810980
   5.79630241  7.78829296  7.81783652
  13.47048888  0.03582628  0.00511074
  13.50932777  7.73622757  7.75693553
   5.80471829 15.42143916 11.67128346
   5.77063592  7.65644002  3.79940463
  13.50753022  7.67699327  3.86770474
  13.50378229  7.86493706 11.47012730
   5.80039219  3.83032866  0.04411187
  13.49090606  3.83030948  0.06631353
  13.49827320 11.43044180 11.55509710
   7.88355960  1.89320666  7.70626841
  15.41898810  1.94496180 11.47785505
   7.63441044  1.93225403  3.96514718
   7.77451568  1.91583385 11.48443412
   7.90604045  9.60094961 11.50834490
   0.01052602  5.78918819  0.05902876
   0.03159443 13.50119612  0.01742143
  15.37144298 13.49540534  7.68652940
   7.76205331  5.77224750  0.07184354
   7.78383482 13.50513636 15.39498536
   0.10800637  5.77129901  3.82256098
   3.94296149  9.64498949  0.02558025
  11.45734648  1.92453637  7.74255872
   3.77635025  9.62936321 11.57802819
  11.54990600  1.92076012 11.51061130
   3.89553484  5.75650410  7.61811326
   3.90325966 13.50927245  7.71217573
   3.73680408  5.78123399  3.95400843
   0.00197840  0.04034406  1.95651626
   0.05888124 15.39521249  9.61900377
   0.04235843  7.83652877  1.93259896
   7.63205712  0.02940128  1.94196647
   7.67772436 15.32335585  9.62396336
   7.79422795  7.76780766  1.96851346
   7.94390921  7.75013944  9.63514681
   0.01776797  7.66020146  5.80691094
  15.32277984  7.68586357 13.46355637
   7.76579342 15.34938719  5.80993066
   7.94650176  0.07747227 13.49350504
   0.10543537  3.79235515  1.96238675
  15.41205636  3.97709096  9.58477446
   7.83939210  3.76489558  1.95621318
   7.64689346  3.88459441  9.61503369
   7.63482031 11.59464949  1.92410902
  15.37141776  3.86745054 13.48391285
  15.34413618 11.56410371  5.78620976
   0.02655751 11.57766862 13.48125573
   7.58587515  3.98271449  5.80274425
   7.73003384  3.83218067 13.49064877
   7.57137996 11.57276735  5.71659666
   7.66297763 11.50227349 13.48898851
   3.73656301  7.63633108  1.92808813
  11.56264226  0.08789321  1.94951364
  11.50873032 15.38466755  9.61271315
   3.90085208  0.02160956  5.79624292
   3.75454959 15.35325312 13.48843374
   3.86296387  7.87869212  5.79171186
   4.04131050  7.67536792 13.47943254
  11.54905921  7.77621140  5.78732841
  11.64725997  7.77306080 13.48118520
   3.88548788 11.63911079  1.92454949
   3.81819363 11.58291537  9.64602571
  11.60801683  3.98049060  9.61120856
  11.62560654 11.51974240  1.93062675
  11.50358280 11.49951834  9.64248308
   3.90140397  3.76125174  5.77775893
   3.88361546  3.87322395 13.50185865
  11.75397127  3.79954812  5.77201176
  11.60089919  3.81755867 13.50798377
   1.94755633  0.03854053  0.03456753
   1.92546926  0.06444420  7.68897687
   1.90901868  7.69750469  7.56697794
   9.64704581  0.03141083  0.11480534
   9.62430579 15.17402599  7.74498375
   9.65096640  7.58398947  7.64449040
   1.95874596 15.37716825 11.52686024
   1.91630721  7.83255810  3.88522791
   1.90611916  7.57060897 11.79264706
   9.61960436 15.29263531 11.44300562
   9.64529068  7.71454365  3.88904671
   9.66968458  7.52150973 11.71584137
   1.93255410  3.85192771 15.35275635
   1.90970576  3.80812464  7.69733783
   1.93400943 11.49813986  0.00995406
   1.90991347 11.56865684  7.64637433
   9.66211893  3.83688909 15.34477172
   1.92635914  3.66205583  3.94860991
   1.90189440 11.67498835 11.58329505
   9.67763755 11.70431090 11.64010225
   5.81451735  0.17279053  7.65830024
   5.76129457  7.64541643  0.17283639
  13.49353822  0.11449987  7.84505162
  13.49725827  7.68314686  0.01622763
   5.82259762 15.36533098  3.95065049
   5.79477635  7.74787864 11.38892419
  13.48505324 15.40831711  3.80931958
  13.48745654 15.37313126 11.45437890
   5.84721005  3.72600044  7.68612396
   5.80888936 11.67322591  0.01602355
   5.78752983 11.41913092  7.80626411
  13.49079882  3.84479716  7.78254634
  13.46485979 11.63410435 15.41479773
  13.46680813 11.44851495  7.76608432
   5.83596311  3.97772387  3.81609705
   5.81017307  3.81999934 11.61087933
   5.81058704 11.55793889  3.78106723
   5.78585380 11.55411431 11.53845993
  13.48885031  3.93835943  3.78159019
  13.49217405  3.88076537 11.52868805
  13.49304992 11.54242069  3.82413942
   0.05928149  1.96053403  0.01690354
  15.40869616  1.93791317  7.85072906
  15.33598317  9.64688680 15.34663693
   0.04569626  9.65769537  7.60428899
   7.78161537  1.92459549  0.01626895
   7.56481638  9.67291899  0.06985146
   7.93918205  9.58172459  7.83527641
  15.30408895  1.97105776  3.80121734
  15.40858807  9.61781148  3.95847999
   0.20070149  9.63159750 11.65519588
   7.72346231  9.65593154  3.83196629
   0.02562747  5.76573917  7.68813610
   7.60301877  5.72344606  7.78681778
   7.47113726 13.61411731  7.67776031
  15.32634598  5.77999379 11.57950717
  15.36916084 13.51500659  3.88101239
  15.38151353 13.50647101 11.52916245
   7.78370053  5.74345819  3.77430581
   7.62569998  5.76375648 11.52627193
   7.66720018 13.52450131  3.83548055
   7.69670143 13.50196777 11.66859615
   3.80177438  1.92847598 15.32649976
   3.82562583  1.92423563  7.66462757
   3.76690112  9.65474366  7.78493121
  11.47773386  1.94543134 15.42580666
  11.74181302  9.64857531  0.02258384
  11.45861625  9.64125848  7.70657398
   4.01698530  1.95413906  3.91428776
   3.83673470  1.92213113 11.68228849
   3.88507167  9.62263160  3.72978236
  11.71185635  1.94341987  3.86681499
  11.53521571  9.64244099  3.83288266
  11.33736750  9.63754603 11.55952139
   3.83732701  5.80270263 15.39089865
   3.78689198 13.48551026  0.04353429
  11.53717641  5.78517340 15.26536085
  11.66026512  5.74457411  7.60719153
  11.50436413 13.49946439  0.15152399
  11.77313461 13.52562221  7.79879038
   3.96899348  5.80172091 11.66435938
   3.92299206 13.51121687  3.87811704
   3.86974634 13.47179002 11.51413775
  11.53302637  5.77395549  4.04380128
  11.69362577  5.76615739 11.63805656
  11.63415126 13.50725562  3.70992760
  11.64024893 13.49900244 11.45212920
 


--------------------------------------------------------------------------------------------------------


 k-point  1 :   0.2500 0.2500 0.2500  plane waves:   93161
 k-point  2 :  -0.2500 0.2500 0.2500  plane waves:   93161
 k-point  3 :   0.2500-0.2500 0.2500  plane waves:   93161
 k-point  4 :  -0.2500-0.2500 0.2500  plane waves:   93161

 maximum and minimum number of plane-waves per node :     11686    11606

 maximum number of plane-waves:     93161
 maximum index in each direction: 
   IXMAX=   28   IYMAX=   28   IZMAX=   27
   IXMIN=  -28   IYMIN=  -28   IZMIN=  -28


 real space projection operators:
  total allocation   :     105583.64 KBytes
  max/ min on nodes  :      13234.74      13169.41


 parallel 3D FFT for wavefunctions:
    minimum data exchange during FFTs selected (reduces bandwidth)
 parallel 3D FFT for charge:
    minimum data exchange during FFTs selected (reduces bandwidth)


 total amount of memory used by VASP MPI-rank0   291498. kBytes
=======================================================================

   base      :      30000. kBytes
   nonlr-proj:      49463. kBytes
   fftplans  :      27976. kBytes
   grid      :      34041. kBytes
   one-center:       1026. kBytes
   wavefun   :     148992. kBytes
 
     INWAV:  cpu time   51.9742: real time   52.9262
 Broyden mixing: mesh for mixing (old mesh)
   NGX = 57   NGY = 57   NGZ = 57
  (NGX  =240   NGY  =240   NGZ  =240)
  gives a total of 185193 points

 charge density for first step will be calculated from the start-wavefunctions


--------------------------------------------------------------------------------------------------------


 Maximum index for non-local projection operator          968
 Maximum index for augmentation-charges         3295 (set IRDMAX)


--------------------------------------------------------------------------------------------------------


 initial charge from wavefunction
 First call to EWALD:  gamma=   0.115
 Maximum number of real-space cells 3x 3x 3
 Maximum number of reciprocal cells 3x 3x 3

    FEWALD:  cpu time    0.0175: real time    0.0180


--------------------------------------- Iteration      1(   1)  ---------------------------------------


    POTLOK:  cpu time    0.2801: real time    0.2972
    SETDIJ:  cpu time    1.2435: real time    1.3888
     EDDAV:  cpu time  133.2205: real time  133.8773
       DOS:  cpu time    0.0038: real time    0.0113
    CHARGE:  cpu time    5.2477: real time    5.2528
    MIXING:  cpu time    0.0171: real time    0.0342
    --------------------------------------------
      LOOP:  cpu time  140.0128: real time  140.8617

 eigenvalue-minimisations  : 23436
 total energy-change (2. order) :-0.1849098E+04  (-0.3491668E+03)
 number of electron    1923.0000031 magnetization       1.0000000
 augmentation part      504.3641946 magnetization       0.8929027

 Broyden mixing:
  rms(total) = 0.83906E+01    rms(broyden)= 0.83875E+01
  rms(prec ) = 0.12784E+02
  weight for this iteration     100.00

 Free energy of the ion-electron system (eV)
  ---------------------------------------------------
  alpha Z        PSCENC =      6118.73324990
  Ewald energy   TEWEN  =   -103141.78725881
  -Hartree energ DENC   =    -65465.25061734
  -exchange      EXHF   =         0.00000000
  -V(xc)+E(xc)   XCENC  =      8961.28762590
  PAW double counting   =    198916.10979032  -199912.60988483
  entropy T*S    EENTRO =        -0.00237326
  eigenvalues    EBANDS =    -25902.83108833
  atomic energy  EATOM  =    178577.25249613
  Solvation  Ediel_sol  =         0.00000000
  ---------------------------------------------------
  free energy    TOTEN  =     -1849.09806031 eV

  energy without entropy =    -1849.09568706  energy(sigma->0) =    -1849.09687369


--------------------------------------------------------------------------------------------------------




--------------------------------------- Iteration      1(   2)  ---------------------------------------


    POTLOK:  cpu time    0.2863: real time    0.2893
    SETDIJ:  cpu time    1.4743: real time    1.4754
     EDDAV:  cpu time  148.1761: real time  148.9649
       DOS:  cpu time    0.0029: real time    0.0029
    CHARGE:  cpu time    5.3032: real time    5.3068
    MIXING:  cpu time    0.0235: real time    0.0239
    --------------------------------------------
      LOOP:  cpu time  155.2664: real time  156.0633

 eigenvalue-minimisations  : 26796
 total energy-change (2. order) :-0.4224606E+02  (-0.3406534E+03)
 number of electron    1923.0000031 magnetization       1.0000000
 augmentation part      506.4900771 magnetization       0.3872711

 Broyden mixing:
  rms(total) = 0.10354E+02    rms(broyden)= 0.10350E+02
  rms(prec ) = 0.14991E+02
  weight for this iteration     100.00

 eigenvalues of (default mixing * dielectric matrix)
  average eigenvalue GAMMA=   0.4167
  0.4167

 Free energy of the ion-electron system (eV)
  ---------------------------------------------------
  alpha Z        PSCENC =      6118.73324990
  Ewald energy   TEWEN  =   -103141.78725881
  -Hartree energ DENC   =    -65561.30727076
  -exchange      EXHF   =         0.00000000
  -V(xc)+E(xc)   XCENC  =      8962.06416068
  PAW double counting   =    200928.07601682  -201898.40178477
  entropy T*S    EENTRO =        -0.00106629
  eigenvalues    EBANDS =    -25875.97266205
  atomic energy  EATOM  =    178577.25249613
  Solvation  Ediel_sol  =         0.00000000
  ---------------------------------------------------
  free energy    TOTEN  =     -1891.34411914 eV

  energy without entropy =    -1891.34305285  energy(sigma->0) =    -1891.34358599


--------------------------------------------------------------------------------------------------------




--------------------------------------- Iteration      1(   3)  ---------------------------------------


    POTLOK:  cpu time    0.3111: real time    0.3140
    SETDIJ:  cpu time    1.5083: real time    1.5090
     EDDAV:  cpu time  150.4485: real time  151.5048
       DOS:  cpu time    0.0023: real time    0.0023
    CHARGE:  cpu time    5.3080: real time    5.3125
    MIXING:  cpu time    0.0314: real time    0.0314
    --------------------------------------------
      LOOP:  cpu time  157.6096: real time  158.6740

 eigenvalue-minimisations  : 27876
 total energy-change (2. order) : 0.3850801E+02  (-0.1129356E+03)
 number of electron    1923.0000030 magnetization       1.0000000
 augmentation part      492.9235532 magnetization       0.6309150

 Broyden mixing:
  rms(total) = 0.56853E+01    rms(broyden)= 0.56833E+01
  rms(prec ) = 0.65506E+01
  weight for this iteration     100.00

 eigenvalues of (default mixing * dielectric matrix)
  average eigenvalue GAMMA=   0.4547
  0.4547  0.4547

 Free energy of the ion-electron system (eV)
  ---------------------------------------------------
  alpha Z        PSCENC =      6118.73324990
  Ewald energy   TEWEN  =   -103141.78725881
  -Hartree energ DENC   =    -65635.64026380
  -exchange      EXHF   =         0.00000000
  -V(xc)+E(xc)   XCENC  =      8963.90240085
  PAW double counting   =    200987.83589044  -201953.24759868
  entropy T*S    EENTRO =        -0.00008307
  eigenvalues    EBANDS =    -25769.88493715
  atomic energy  EATOM  =    178577.25249613
  Solvation  Ediel_sol  =         0.00000000
  ---------------------------------------------------
  free energy    TOTEN  =     -1852.83610418 eV

  energy without entropy =    -1852.83602111  energy(sigma->0) =    -1852.83606264


--------------------------------------------------------------------------------------------------------




--------------------------------------- Iteration      1(   4)  ---------------------------------------


    POTLOK:  cpu time    0.3227: real time    0.3257
    SETDIJ:  cpu time    1.4599: real time    1.4604
     EDDAV:  cpu time  142.3611: real time  143.0032
       DOS:  cpu time    0.0018: real time    0.0018
    CHARGE:  cpu time    5.2525: real time    5.2563
    MIXING:  cpu time    0.0075: real time    0.0079
    --------------------------------------------
      LOOP:  cpu time  149.4055: real time  150.0554

 eigenvalue-minimisations  : 25596
 total energy-change (2. order) : 0.4575222E+02  (-0.3065630E+02)
 number of electron    1923.0000030 magnetization       1.0000000
 augmentation part      493.9917354 magnetization       0.5982885

 Broyden mixing:
  rms(total) = 0.41515E+01    rms(broyden)= 0.41507E+01
  rms(prec ) = 0.48288E+01
  weight for this iteration     100.00

 eigenvalues of (default mixing * dielectric matrix)
  average eigenvalue GAMMA=   0.5744
  0.6312  0.6312  0.4608

 Free energy of the ion-electron system (eV)
  ---------------------------------------------------
  alpha Z        PSCENC =      6118.73324990
  Ewald energy   TEWEN  =   -103141.78725881
  -Hartree energ DENC   =    -65596.79740453
  -exchange      EXHF   =         0.00000000
  -V(xc)+E(xc)   XCENC  =      8969.31685477
  PAW double counting   =    201006.21391092  -201987.84411925
  entropy T*S    EENTRO =        -0.00000000
  eigenvalues    EBANDS =    -25752.17161717
  atomic energy  EATOM  =    178577.25249613
  Solvation  Ediel_sol  =         0.00000000
  ---------------------------------------------------
  free energy    TOTEN  =     -1807.08388803 eV

  energy without entropy =    -1807.08388803  energy(sigma->0) =    -1807.08388803


--------------------------------------------------------------------------------------------------------




--------------------------------------- Iteration      1(   5)  ---------------------------------------


    POTLOK:  cpu time    0.2628: real time    0.2630
    SETDIJ:  cpu time    1.3773: real time    1.3778
     EDDAV:  cpu time  148.3624: real time  149.1862
       DOS:  cpu time    0.0019: real time    0.0019
    CHARGE:  cpu time    5.2881: real time    5.2924
    MIXING:  cpu time    0.0087: real time    0.0087
    --------------------------------------------
      LOOP:  cpu time  155.3012: real time  156.1301

 eigenvalue-minimisations  : 26880
 total energy-change (2. order) : 0.3402273E+02  (-0.1077589E+02)
 number of electron    1923.0000030 magnetization       1.0000000
 augmentation part      494.4161654 magnetization       0.6001665

 Broyden mixing:
  rms(total) = 0.23640E+01    rms(broyden)= 0.23633E+01
  rms(prec ) = 0.27514E+01
  weight for this iteration     100.00

 eigenvalues of (default mixing * dielectric matrix)
  average eigenvalue GAMMA=   0.6422
  0.8009  0.8009  0.4835  0.4835

 Free energy of the ion-electron system (eV)
  ---------------------------------------------------
  alpha Z        PSCENC =      6118.73324990
  Ewald energy   TEWEN  =   -103141.78725881
  -Hartree energ DENC   =    -65598.77200606
  -exchange      EXHF   =         0.00000000
  -V(xc)+E(xc)   XCENC  =      8974.23293158
  PAW double counting   =    200493.86864197  -201488.99348420
  entropy T*S    EENTRO =        -0.00000000
  eigenvalues    EBANDS =    -25707.59572937
  atomic energy  EATOM  =    178577.25249613
  Solvation  Ediel_sol  =         0.00000000
  ---------------------------------------------------
  free energy    TOTEN  =     -1773.06115885 eV

  energy without entropy =    -1773.06115885  energy(sigma->0) =    -1773.06115885


--------------------------------------------------------------------------------------------------------




--------------------------------------- Iteration      1(   6)  ---------------------------------------


    POTLOK:  cpu time    0.2610: real time    0.2635
    SETDIJ:  cpu time    1.4006: real time    1.4019
     EDDAV:  cpu time  150.2470: real time  151.1057
       DOS:  cpu time    0.0019: real time    0.0019
    CHARGE:  cpu time    5.2779: real time    5.2818
    MIXING:  cpu time    0.0084: real time    0.0084
    --------------------------------------------
      LOOP:  cpu time  157.1967: real time  158.0632

 eigenvalue-minimisations  : 27048
 total energy-change (2. order) : 0.1198002E+02  (-0.4636944E+01)
 number of electron    1923.0000030 magnetization       1.0000000
 augmentation part      495.5661372 magnetization       0.5524863

 Broyden mixing:
  rms(total) = 0.14831E+01    rms(broyden)= 0.14828E+01
  rms(prec ) = 0.16260E+01
  weight for this iteration     100.00

 eigenvalues of (default mixing * dielectric matrix)
  average eigenvalue GAMMA=   0.6899
  0.9337  0.9337  0.4531  0.5644  0.5644

 Free energy of the ion-electron system (eV)
  ---------------------------------------------------
  alpha Z        PSCENC =      6118.73324990
  Ewald energy   TEWEN  =   -103141.78725881
  -Hartree energ DENC   =    -65544.83272118
  -exchange      EXHF   =         0.00000000
  -V(xc)+E(xc)   XCENC  =      8974.40133747
  PAW double counting   =    200073.59733117  -201075.06403061
  entropy T*S    EENTRO =        -0.00000000
  eigenvalues    EBANDS =    -25743.38154394
  atomic energy  EATOM  =    178577.25249613
  Solvation  Ediel_sol  =         0.00000000
  ---------------------------------------------------
  free energy    TOTEN  =     -1761.08113987 eV

  energy without entropy =    -1761.08113987  energy(sigma->0) =    -1761.08113987


--------------------------------------------------------------------------------------------------------




--------------------------------------- Iteration      1(   7)  ---------------------------------------


    POTLOK:  cpu time    0.2632: real time    0.2654
    SETDIJ:  cpu time    1.4069: real time    1.4086
     EDDAV:  cpu time  154.7602: real time  155.5842
       DOS:  cpu time    0.0020: real time    0.0020
    CHARGE:  cpu time    5.2636: real time    5.2673
    MIXING:  cpu time    0.0084: real time    0.0084
    --------------------------------------------
      LOOP:  cpu time  161.7044: real time  162.5359

 eigenvalue-minimisations  : 28452
 total energy-change (2. order) : 0.2027201E+01  (-0.8789017E+00)
 number of electron    1923.0000030 magnetization       1.0000000
 augmentation part      496.3794375 magnetization       0.5733951

 Broyden mixing:
  rms(total) = 0.10529E+01    rms(broyden)= 0.10524E+01
  rms(prec ) = 0.11199E+01
  weight for this iteration     100.00

 eigenvalues of (default mixing * dielectric matrix)
  average eigenvalue GAMMA=   0.8274
  1.2807  1.2807  0.6788  0.6788  0.5227  0.5227

 Free energy of the ion-electron system (eV)
  ---------------------------------------------------
  alpha Z        PSCENC =      6118.73324990
  Ewald energy   TEWEN  =   -103141.78725881
  -Hartree energ DENC   =    -65512.08201699
  -exchange      EXHF   =         0.00000000
  -V(xc)+E(xc)   XCENC  =      8973.43641770
  PAW double counting   =    199726.91083996  -200731.79766086
  entropy T*S    EENTRO =        -0.00000000
  eigenvalues    EBANDS =    -25769.72000589
  atomic energy  EATOM  =    178577.25249613
  Solvation  Ediel_sol  =         0.00000000
  ---------------------------------------------------
  free energy    TOTEN  =     -1759.05393885 eV

  energy without entropy =    -1759.05393885  energy(sigma->0) =    -1759.05393885


--------------------------------------------------------------------------------------------------------




--------------------------------------- Iteration      1(   8)  ---------------------------------------


    POTLOK:  cpu time    0.2630: real time    0.2639
    SETDIJ:  cpu time    1.4126: real time    1.4134
     EDDAV:  cpu time  141.6228: real time  142.3845
       DOS:  cpu time    0.0020: real time    0.0020
    CHARGE:  cpu time    5.1531: real time    5.2594
    MIXING:  cpu time    0.0154: real time    0.0158
    --------------------------------------------
      LOOP:  cpu time  148.4689: real time  149.3390

 eigenvalue-minimisations  : 25404
 total energy-change (2. order) :-0.3843859E+00  (-0.1059066E+01)
[...]
   81        1.574   3.461   0.000   5.035
   82        1.574   3.462   0.000   5.036
   83        1.574   3.461   0.000   5.036
   84        1.576   3.473   0.000   5.049
   85        1.575   3.462   0.000   5.037
   86        1.575   3.467   0.000   5.042
   87        1.576   3.465   0.000   5.040
   88        1.575   3.467   0.000   5.042
   89        1.575   3.462   0.000   5.037
   90        1.575   3.458   0.000   5.033
   91        1.574   3.461   0.000   5.035
   92        1.574   3.461   0.000   5.036
   93        1.577   3.473   0.000   5.050
   94        1.576   3.473   0.000   5.049
   95        1.576   3.480   0.000   5.056
   96        1.575   3.464   0.000   5.039
   97        1.575   3.466   0.000   5.041
   98        1.576   3.475   0.000   5.051
   99        1.575   3.464   0.000   5.038
  100        1.575   3.458   0.000   5.034
  101        1.574   3.459   0.000   5.033
  102        1.574   3.461   0.000   5.036
  103        1.576   3.460   0.000   5.035
  104        1.574   3.462   0.000   5.036
  105        1.577   3.472   0.000   5.049
  106        1.575   3.464   0.000   5.038
  107        1.575   3.463   0.000   5.038
  108        1.576   3.471   0.000   5.047
  109        1.575   3.463   0.000   5.038
  110        1.575   3.461   0.000   5.036
  111        1.576   3.473   0.000   5.049
  112        1.577   3.472   0.000   5.049
  113        1.576   3.474   0.000   5.050
  114        1.577   3.477   0.000   5.054
  115        1.575   3.468   0.000   5.042
  116        1.566   3.491   0.000   5.057
  117        1.575   3.461   0.000   5.036
  118        1.575   3.463   0.000   5.039
  119        1.576   3.477   0.000   5.053
  120        1.575   3.462   0.000   5.038
  121        1.575   3.465   0.000   5.039
  122        1.577   3.469   0.000   5.046
  123        1.577   3.474   0.000   5.051
  124        1.576   3.472   0.000   5.048
  125        1.576   3.476   0.000   5.051
  126        1.576   3.471   0.000   5.047
  127        1.575   3.460   0.000   5.034
  128        1.574   3.460   0.000   5.034
  129        1.576   3.471   0.000   5.047
  130        1.737   4.369   0.000   6.106
  131        1.737   4.370   0.000   6.107
  132        1.737   4.379   0.000   6.116
  133        1.738   4.388   0.000   6.127
  134        1.739   4.386   0.000   6.125
  135        1.738   4.376   0.000   6.114
  136        1.735   4.379   0.000   6.114
  137        1.738   4.380   0.000   6.118
  138        1.738   4.380   0.000   6.119
  139        1.739   4.389   0.000   6.128
  140        1.739   4.388   0.000   6.127
  141        1.738   4.381   0.000   6.119
  142        1.738   4.380   0.000   6.118
  143        1.738   4.388   0.000   6.127
  144        1.739   4.388   0.000   6.127
  145        1.739   4.387   0.000   6.126
  146        1.737   4.382   0.000   6.119
  147        1.736   4.369   0.000   6.105
  148        1.736   4.368   0.000   6.104
  149        1.739   4.387   0.000   6.126
  150        1.738   4.389   0.000   6.127
  151        1.739   4.383   0.000   6.122
  152        1.739   4.382   0.000   6.121
  153        1.737   4.381   0.000   6.119
  154        1.737   4.371   0.000   6.108
  155        1.737   4.372   0.000   6.109
  156        1.737   4.369   0.000   6.106
  157        1.737   4.368   0.000   6.104
  158        1.738   4.375   0.000   6.113
  159        1.738   4.375   0.000   6.113
  160        1.737   4.368   0.000   6.105
  161        1.736   4.370   0.000   6.106
  162        1.736   4.369   0.000   6.106
  163        1.736   4.368   0.000   6.104
  164        1.738   4.380   0.000   6.118
  165        1.737   4.371   0.000   6.108
  166        1.736   4.368   0.000   6.104
  167        1.737   4.370   0.000   6.106
  168        1.737   4.370   0.000   6.107
  169        1.738   4.377   0.000   6.116
  170        1.738   4.380   0.000   6.118
  171        1.737   4.370   0.000   6.107
  172        1.738   4.388   0.000   6.126
  173        1.737   4.371   0.000   6.108
  174        1.737   4.369   0.000   6.106
  175        1.739   4.382   0.000   6.121
  176        1.737   4.367   0.000   6.104
  177        1.738   4.380   0.000   6.117
  178        1.737   4.369   0.000   6.106
  179        1.738   4.374   0.000   6.112
  180        1.738   4.379   0.000   6.117
  181        1.736   4.369   0.000   6.105
  182        1.738   4.376   0.000   6.113
  183        1.737   4.369   0.000   6.106
  184        1.738   4.380   0.000   6.118
  185        1.737   4.383   0.000   6.120
  186        1.738   4.383   0.000   6.121
  187        1.737   4.371   0.000   6.107
  188        1.738   4.379   0.000   6.117
  189        1.738   4.381   0.000   6.119
  190        1.738   4.382   0.000   6.120
  191        1.739   4.386   0.000   6.126
  192        1.737   4.369   0.000   6.106
  193        1.739   4.388   0.000   6.127
  194        1.737   4.368   0.000   6.104
  195        1.737   4.370   0.000   6.107
  196        1.737   4.379   0.000   6.116
  197        1.737   4.369   0.000   6.106
  198        1.737   4.380   0.000   6.118
  199        1.738   4.381   0.000   6.119
  200        1.738   4.381   0.000   6.119
  201        1.738   4.386   0.000   6.124
  202        1.738   4.380   0.000   6.118
  203        1.738   4.381   0.000   6.119
  204        1.738   4.378   0.000   6.117
  205        1.737   4.378   0.000   6.116
  206        1.737   4.368   0.000   6.105
  207        1.737   4.370   0.000   6.107
  208        1.737   4.383   0.000   6.120
  209        1.738   4.378   0.000   6.116
  210        1.737   4.370   0.000   6.107
  211        1.737   4.372   0.000   6.109
  212        1.737   4.369   0.000   6.106
  213        1.739   4.375   0.000   6.114
  214        1.736   4.367   0.000   6.104
  215        1.739   4.380   0.000   6.119
  216        1.736   4.368   0.000   6.105
  217        1.737   4.368   0.000   6.105
  218        1.736   4.396   0.000   6.131
  219        1.738   4.379   0.000   6.117
  220        1.738   4.381   0.000   6.119
  221        1.738   4.379   0.000   6.117
  222        1.738   4.382   0.000   6.119
  223        1.738   4.382   0.000   6.119
  224        1.738   4.386   0.000   6.125
  225        1.738   4.385   0.000   6.123
  226        1.738   4.378   0.000   6.116
  227        1.737   4.380   0.000   6.117
  228        1.738   4.378   0.000   6.115
  229        1.738   4.380   0.000   6.118
  230        1.737   4.371   0.000   6.108
  231        1.738   4.379   0.000   6.118
  232        1.736   4.372   0.000   6.108
  233        1.738   4.381   0.000   6.119
  234        1.737   4.370   0.000   6.107
  235        1.737   4.370   0.000   6.107
  236        1.739   4.388   0.000   6.127
  237        1.739   4.387   0.000   6.126
  238        1.737   4.381   0.000   6.118
  239        1.738   4.378   0.000   6.116
  240        1.737   4.380   0.000   6.118
  241        1.738   4.377   0.000   6.115
  242        1.738   4.387   0.000   6.126
  243        1.738   4.388   0.000   6.126
  244        1.737   4.378   0.000   6.116
  245        1.738   4.379   0.000   6.117
  246        1.738   4.378   0.000   6.116
  247        1.738   4.386   0.000   6.125
  248        1.738   4.380   0.000   6.118
  249        1.738   4.386   0.000   6.124
  250        1.738   4.379   0.000   6.118
  251        1.738   4.380   0.000   6.118
  252        1.737   4.381   0.000   6.118
  253        1.738   4.379   0.000   6.117
  254        1.739   4.388   0.000   6.127
  255        1.738   4.377   0.000   6.115
  256        1.739   4.386   0.000   6.125
  257        1.738   4.379   0.000   6.117
--------------------------------------------------
tot        345.6131195.774 112.7521654.138
 


 magnetization (x)
 
# of ion       s       p       d       tot
------------------------------------------
    1       -0.000  -0.000   0.000  -0.000
    2        0.000   0.000   0.000   0.000
    3        0.000   0.000   0.000   0.000
    4       -0.000  -0.000  -0.000  -0.000
    5       -0.000  -0.000   0.000   0.000
    6        0.000   0.000   0.000   0.000
    7        0.000   0.000   0.019   0.019
    8        0.000   0.000   0.001   0.001
    9       -0.000  -0.000   0.003   0.003
   10        0.000  -0.000  -0.000  -0.000
   11        0.000   0.000   0.000   0.000
   12        0.000  -0.000   0.000   0.000
   13       -0.000  -0.000  -0.000  -0.000
   14        0.000   0.000   0.001   0.001
   15        0.000   0.000   0.002   0.002
   16        0.000   0.000   0.001   0.001
   17        0.000   0.000   0.004   0.004
   18       -0.000  -0.000  -0.000  -0.000
   19        0.000   0.000   0.000   0.000
   20        0.000   0.000  -0.000  -0.000
   21       -0.000  -0.000  -0.000  -0.000
   22        0.000   0.000   0.000   0.000
   23        0.000   0.000   0.003   0.003
   24       -0.000  -0.000   0.000   0.000
   25        0.005   0.007   0.875   0.886
   26       -0.000  -0.000  -0.000  -0.000
   27       -0.000   0.000  -0.000  -0.000
   28       -0.000  -0.000   0.000   0.000
   29       -0.000  -0.000  -0.000  -0.000
   30        0.000   0.000   0.000   0.000
   31        0.000   0.000   0.001   0.001
   32        0.000   0.000   0.016   0.017
   33        0.000   0.001   0.051   0.052
   34       -0.000  -0.000  -0.000  -0.000
   35       -0.000  -0.000   0.000   0.000
   36        0.000  -0.000   0.000   0.000
   37       -0.000  -0.000  -0.000  -0.000
   38        0.000  -0.000   0.000   0.000
   39       -0.000  -0.000   0.000   0.000
   40       -0.000  -0.000  -0.000  -0.000
   41        0.000   0.000   0.000   0.000
   42        0.000  -0.000   0.000   0.000
   43       -0.000  -0.000   0.000   0.000
   44       -0.000  -0.000  -0.000  -0.000
   45       -0.000  -0.000   0.000   0.000
   46       -0.000  -0.000  -0.000  -0.000
   47       -0.000  -0.000   0.000   0.000
   48       -0.000  -0.000   0.000   0.000
   49       -0.000  -0.000   0.000   0.000
   50       -0.000  -0.000  -0.000  -0.000
   51       -0.000  -0.000   0.000   0.000
   52        0.000  -0.000   0.000   0.000
   53       -0.000  -0.000   0.000  -0.000
   54        0.000  -0.000   0.000   0.000
   55       -0.000  -0.000  -0.000  -0.000
   56       -0.000  -0.000   0.000   0.000
   57       -0.000  -0.000  -0.003  -0.003
   58        0.000   0.000  -0.000  -0.000
   59       -0.000  -0.000   0.000   0.000
   60       -0.000  -0.000   0.000   0.000
   61       -0.000  -0.000   0.000   0.000
   62       -0.000  -0.000  -0.000  -0.000
   63       -0.000  -0.000  -0.000  -0.000
   64       -0.000  -0.000  -0.000  -0.000
   65       -0.000  -0.000   0.000   0.000
   66       -0.000  -0.000   0.000  -0.000
   67        0.000   0.000   0.000   0.000
   68       -0.000  -0.000   0.000  -0.000
   69       -0.000  -0.001   0.000  -0.001
   70       -0.000  -0.000   0.000  -0.000
   71       -0.000  -0.000   0.000  -0.000
   72        0.000   0.000   0.000   0.000
   73       -0.001  -0.021   0.000  -0.022
   74        0.000  -0.000   0.000  -0.000
   75       -0.000  -0.000   0.000  -0.000
   76       -0.000  -0.000   0.000  -0.000
   77        0.000  -0.000   0.000  -0.000
   78        0.000  -0.000   0.000  -0.000
   79       -0.000  -0.000   0.000  -0.000
   80       -0.000  -0.000   0.000  -0.000
   81        0.000  -0.000   0.000  -0.000
   82        0.000   0.000   0.000   0.000
   83        0.000  -0.000   0.000  -0.000
   84        0.000  -0.000   0.000  -0.000
   85       -0.000  -0.000   0.000  -0.000
   86       -0.000  -0.000   0.000  -0.000
   87       -0.000  -0.000   0.000  -0.000
   88       -0.000  -0.000   0.000  -0.000
   89        0.000  -0.000   0.000  -0.000
   90       -0.000  -0.000   0.000  -0.000
   91       -0.000  -0.000   0.000  -0.000
   92       -0.000  -0.000   0.000  -0.000
   93       -0.000  -0.000   0.000  -0.000
   94       -0.000  -0.000   0.000  -0.000
   95       -0.001  -0.015   0.000  -0.015
   96        0.000  -0.000   0.000  -0.000
   97       -0.000  -0.000   0.000  -0.000
   98       -0.000  -0.000   0.000  -0.000
   99       -0.000  -0.000   0.000  -0.000
  100       -0.000  -0.001   0.000  -0.001
  101       -0.000  -0.000   0.000  -0.000
  102       -0.000  -0.000   0.000  -0.000
  103        0.000   0.000   0.000   0.000
  104       -0.000  -0.000   0.000  -0.000
  105       -0.000  -0.000   0.000  -0.000
  106       -0.000  -0.000   0.000  -0.000
  107       -0.000  -0.000   0.000  -0.000
  108       -0.000  -0.000   0.000  -0.000
  109       -0.000  -0.000   0.000  -0.000
  110        0.000   0.000   0.000   0.000
  111       -0.000  -0.000   0.000  -0.000
  112       -0.000  -0.002   0.000  -0.002
  113        0.000   0.000   0.000   0.000
  114       -0.000  -0.000   0.000  -0.000
  115       -0.000  -0.000   0.000  -0.000
  116       -0.000  -0.000   0.000  -0.000
  117        0.000   0.000   0.000   0.000
  118       -0.000   0.000   0.000   0.000
  119        0.000  -0.000   0.000  -0.000
  120       -0.000  -0.000   0.000  -0.000
  121       -0.000  -0.000   0.000  -0.000
  122        0.000   0.000   0.000   0.000
  123       -0.000  -0.000   0.000  -0.000
  124       -0.000  -0.000   0.000  -0.000
  125       -0.000  -0.000   0.000  -0.000
  126       -0.000  -0.000   0.000  -0.000
  127       -0.000  -0.000   0.000  -0.000
  128       -0.000  -0.000   0.000  -0.000
  129        0.000  -0.000   0.000  -0.000
  130        0.000  -0.000   0.000  -0.000
  131       -0.000  -0.000   0.000  -0.000
  132       -0.000   0.000   0.000   0.000
  133        0.000   0.000   0.000   0.000
  134        0.000   0.000   0.000   0.000
  135        0.000   0.000   0.000   0.000
  136       -0.000   0.000   0.000   0.000
  137       -0.000  -0.000   0.000  -0.000
  138        0.000   0.000   0.000   0.000
  139        0.000   0.000   0.000   0.000
  140        0.000   0.000   0.000   0.000
  141        0.000   0.000   0.000   0.000
  142       -0.000   0.000   0.000   0.000
  143       -0.000  -0.000   0.000  -0.000
  144       -0.000  -0.000   0.000  -0.000
  145       -0.000  -0.000   0.000  -0.000
  146        0.000   0.000   0.000   0.000
  147        0.000  -0.000   0.000  -0.000
  148       -0.000  -0.000   0.000  -0.000
  149       -0.000  -0.000   0.000  -0.000
  150       -0.000  -0.000   0.000  -0.000
  151       -0.000  -0.001   0.000  -0.001
  152       -0.000  -0.000   0.000  -0.000
  153       -0.000  -0.000   0.000  -0.000
  154        0.000  -0.000   0.000  -0.000
  155       -0.000  -0.000   0.000  -0.000
  156       -0.000  -0.000   0.000  -0.000
  157       -0.000  -0.000   0.000  -0.000
  158       -0.000  -0.000   0.000  -0.000
  159       -0.000  -0.000   0.000  -0.000
  160       -0.000  -0.000   0.000  -0.000
  161       -0.000  -0.000   0.000  -0.000
  162       -0.000  -0.000   0.000  -0.000
  163       -0.000  -0.000   0.000  -0.000
  164        0.000  -0.000   0.000  -0.000
  165       -0.000  -0.000   0.000  -0.000
  166       -0.000  -0.000   0.000  -0.000
  167       -0.000  -0.000   0.000  -0.000
  168        0.000  -0.000   0.000  -0.000
  169       -0.000  -0.000   0.000  -0.000
  170        0.000  -0.000   0.000  -0.000
  171        0.000   0.000   0.000   0.000
  172       -0.000  -0.000   0.000  -0.000
  173       -0.000  -0.000   0.000  -0.000
  174       -0.000  -0.000   0.000  -0.000
  175       -0.000  -0.000   0.000  -0.000
  176       -0.000  -0.000   0.000  -0.000
  177       -0.000  -0.000   0.000  -0.000
  178       -0.000  -0.000   0.000  -0.000
  179       -0.000  -0.000   0.000  -0.000
  180       -0.000  -0.000   0.000  -0.000
  181       -0.000  -0.000   0.000  -0.000
  182       -0.000  -0.000   0.000  -0.000
  183        0.000   0.000   0.000   0.000
  184       -0.000  -0.000   0.000  -0.000
  185       -0.000  -0.000   0.000  -0.000
  186       -0.000  -0.000   0.000  -0.000
  187       -0.000  -0.000   0.000  -0.000
  188        0.000   0.000   0.000   0.000
  189       -0.000  -0.000   0.000  -0.000
  190       -0.000  -0.001   0.000  -0.001
  191       -0.000  -0.000   0.000  -0.000
  192       -0.000  -0.000   0.000  -0.000
  193       -0.000  -0.000   0.000  -0.000
  194       -0.000  -0.000   0.000  -0.000
  195       -0.000  -0.000   0.000  -0.000
  196       -0.000  -0.000   0.000  -0.000
  197        0.000  -0.000   0.000  -0.000
  198       -0.000  -0.000   0.000  -0.000
  199       -0.000  -0.000   0.000  -0.000
  200       -0.000  -0.000   0.000  -0.000
  201       -0.000  -0.005   0.000  -0.005
  202       -0.000  -0.000   0.000  -0.000
  203       -0.000  -0.000   0.000  -0.000
  204       -0.000  -0.000   0.000  -0.000
  205       -0.000  -0.000   0.000  -0.000
  206       -0.000  -0.000   0.000  -0.000
  207       -0.000  -0.000   0.000  -0.000
  208       -0.000  -0.001   0.000  -0.001
  209        0.000   0.000   0.000   0.000
  210        0.000  -0.000   0.000  -0.000
  211       -0.000  -0.000   0.000  -0.000
  212        0.000   0.000   0.000   0.000
  213       -0.000  -0.000   0.000  -0.000
  214       -0.000  -0.000   0.000  -0.000
  215        0.000  -0.000   0.000  -0.000
  216       -0.000  -0.000   0.000  -0.000
  217       -0.000  -0.000   0.000  -0.000
  218       -0.000   0.002   0.000   0.001
  219        0.000   0.000   0.000   0.000
  220       -0.000  -0.000   0.000  -0.000
  221       -0.000   0.000   0.000   0.000
  222       -0.000  -0.000   0.000  -0.000
  223        0.000  -0.000   0.000  -0.000
  224        0.000  -0.000   0.000  -0.000
  225       -0.000  -0.001   0.000  -0.001
  226        0.000   0.000   0.000   0.000
  227       -0.000  -0.000   0.000  -0.000
  228       -0.000  -0.000   0.000  -0.000
  229       -0.000  -0.000   0.000  -0.000
  230        0.000   0.000   0.000   0.000
  231       -0.000  -0.000   0.000  -0.000
  232       -0.000  -0.000   0.000  -0.000
  233        0.000  -0.000   0.000  -0.000
  234       -0.000  -0.000   0.000  -0.000
  235       -0.000  -0.000   0.000  -0.000
  236       -0.000   0.000   0.000   0.000
  237        0.000  -0.000   0.000  -0.000
  238       -0.000  -0.000   0.000  -0.000
  239        0.000  -0.000   0.000  -0.000
  240       -0.000  -0.000   0.000  -0.000
  241       -0.000  -0.000   0.000  -0.000
  242        0.000   0.000   0.000   0.000
  243       -0.000  -0.000   0.000  -0.000
  244       -0.000  -0.000   0.000  -0.000
  245        0.000   0.000   0.000   0.000
  246        0.000  -0.000   0.000  -0.000
  247        0.000  -0.000   0.000  -0.000
  248       -0.000  -0.000   0.000  -0.000
  249       -0.000  -0.000   0.000  -0.000
  250       -0.000  -0.000   0.000  -0.000
  251       -0.000  -0.000   0.000  -0.000
  252       -0.000  -0.000   0.000  -0.000
  253       -0.000  -0.000   0.000  -0.000
  254       -0.000  -0.000   0.000  -0.000
  255       -0.000  -0.000   0.000  -0.000
  256       -0.000  -0.000   0.000  -0.000
  257       -0.000  -0.000   0.000  -0.000
--------------------------------------------------
tot          0.001  -0.043   0.977   0.935
 

 total amount of memory used by VASP MPI-rank0   291498. kBytes
=======================================================================

   base      :      30000. kBytes
   nonlr-proj:      49463. kBytes
   fftplans  :      27976. kBytes
   grid      :      34041. kBytes
   one-center:       1026. kBytes
   wavefun   :     148992. kBytes
 
  
  
 General timing and accounting informations for this job:
 ========================================================
  
                  Total CPU time used (sec):     4111.454
                            User time (sec):     3717.721
                          System time (sec):      393.733
                         Elapsed time (sec):     4144.933
  
                   Maximum memory used (kb):      618088.
                   Average memory used (kb):           0.
  
                          Minor page faults:       407726
                          Major page faults:           38
                 Voluntary context switches:        30748
