 vasp.5.4.4.18Apr17-6-g9f103f2a35 (build Apr 30 2017 20:10:35) complex          
  
 executed on             LinuxIFC date 2017.08.17  14:45:09
 running on  128 total cores
 distrk:  each k-point on  128 cores,    1 groups
 distr:  one band on NCORES_PER_BAND=   8 cores,   16 groups


--------------------------------------------------------------------------------------------------------


 INCAR:
 POTCAR:   PAW_PBE Ti_pv 07Sep2000                
 POTCAR:   PAW_PBE O 08Apr2002                    
 POTCAR:    PAW_PBE F 08Apr2002                   
 POTCAR:   PAW_PBE Ti_pv 07Sep2000                
   VRHFIN =Ti: d3 s1                                                            
   LEXCH  = PE                                                                  
   EATOM  =  1042.3781 eV,   76.6126 Ry                                         
                                                                                
   TITEL  = PAW_PBE Ti_pv 07Sep2000                                             
   LULTRA =        F    use ultrasoft PP ?                                      
   IUNSCR =        1    unscreen: 0-lin 1-nonlin 2-no                           
   RPACOR =    2.200    partial core radius                                     
   POMASS =   47.880; ZVAL   =   10.000    mass and valenz                      
   RCORE  =    2.500    outmost cutoff radius                                   
   RWIGS  =    2.500; RWIGS  =    1.323    wigner-seitz radius (au A)           
   ENMAX  =  222.338; ENMIN  =  166.753 eV                                      
   RCLOC  =    1.701    cutoff for local pot                                    
   LCOR   =        T    correct aug charges                                     
   LPAW   =        T    paw PP                                                  
   EAUG   =  482.848                                                            
   DEXC   =    -.008                                                            
   RMAX   =    3.092    core radius for proj-oper                               
   RAUG   =    1.300    factor for augmentation sphere                          
   RDEP   =    2.538    radius for radial grids                                 
   QCUT   =   -4.042; QGAM   =    8.085    optimization parameters              
                                                                                
   Description                                                                  
     l     E      TYP  RCUT    TYP  RCUT                                        
     1   .000     23  2.300                                                     
     1  -.100     23  2.300                                                     
     2   .000     23  2.500                                                     
     2   .000     23  2.500                                                     
     0   .000     23  2.500                                                     
     0  1.500     23  2.500                                                     
     3   .000      7   .000                                                     
  local pseudopotential read in
  partial core-charges read in
  atomic valenz-charges read in
  non local Contribution for L=           1  read in
    real space projection operators read in
  non local Contribution for L=           1  read in
    real space projection operators read in
  non local Contribution for L=           2  read in
    real space projection operators read in
  non local Contribution for L=           2  read in
    real space projection operators read in
  non local Contribution for L=           0  read in
    real space projection operators read in
  non local Contribution for L=           0  read in
    real space projection operators read in
    PAW grid and wavefunctions read in
 
   number of l-projection  operators is LMAX  =           6
   number of lm-projection operators is LMMAX =          18
 
 POTCAR:   PAW_PBE O 08Apr2002                    
   VRHFIN =O: s2p4                                                              
   LEXCH  = PE                                                                  
   EATOM  =   432.3788 eV,   31.7789 Ry                                         
                                                                                
   TITEL  = PAW_PBE O 08Apr2002                                                 
   LULTRA =        F    use ultrasoft PP ?                                      
   IUNSCR =        0    unscreen: 0-lin 1-nonlin 2-no                           
   RPACOR =     .000    partial core radius                                     
   POMASS =   16.000; ZVAL   =    6.000    mass and valenz                      
   RCORE  =    1.520    outmost cutoff radius                                   
   RWIGS  =    1.550; RWIGS  =     .820    wigner-seitz radius (au A)           
   ENMAX  =  400.000; ENMIN  =  300.000 eV                                      
   ICORE  =        2    local potential                                         
   LCOR   =        T    correct aug charges                                     
   LPAW   =        T    paw PP                                                  
   EAUG   =  605.392                                                            
   DEXC   =     .000                                                            
   RMAX   =    2.264    core radius for proj-oper                               
   RAUG   =    1.300    factor for augmentation sphere                          
   RDEP   =    1.550    radius for radial grids                                 
   QCUT   =   -5.520; QGAM   =   11.041    optimization parameters              
                                                                                
   Description                                                                  
     l     E      TYP  RCUT    TYP  RCUT                                        
     0   .000     23  1.200                                                     
     0  -.700     23  1.200                                                     
     1   .000     23  1.520                                                     
     1   .600     23  1.520                                                     
     2   .000      7  1.500                                                     
  local pseudopotential read in
  atomic valenz-charges read in
  non local Contribution for L=           0  read in
    real space projection operators read in
  non local Contribution for L=           0  read in
    real space projection operators read in
  non local Contribution for L=           1  read in
    real space projection operators read in
  non local Contribution for L=           1  read in
    real space projection operators read in
    PAW grid and wavefunctions read in
 
   number of l-projection  operators is LMAX  =           4
   number of lm-projection operators is LMMAX =           8
 
 POTCAR:    PAW_PBE F 08Apr2002                   
   VRHFIN =F: s2p5                                                              
   LEXCH  = PE                                                                  
   EATOM  =   659.6475 eV,   48.4827 Ry                                         
                                                                                
   TITEL  = PAW_PBE F 08Apr2002                                                 
   LULTRA =        F    use ultrasoft PP ?                                      
   IUNSCR =        1    unscreen: 0-lin 1-nonlin 2-no                           
   RPACOR =    1.200    partial core radius                                     
   POMASS =   18.998; ZVAL   =    7.000    mass and valenz                      
   RCORE  =    1.520    outmost cutoff radius                                   
   RWIGS  =    1.500; RWIGS  =    0.794    wigner-seitz radius (au A)           
   ENMAX  =  400.000; ENMIN  =  300.000 eV                                      
   ICORE  =        2    local potential                                         
   LCOR   =        T    correct aug charges                                     
   LPAW   =        T    paw PP                                                  
   EAUG   =  613.614                                                            
   RMAX   =    1.555    core radius for proj-oper                               
   RAUG   =    1.300    factor for augmentation sphere                          
   RDEP   =    1.539    radius for radial grids                                 
   RDEPT  =    1.299    core radius for aug-charge                              
                                                                                
   Atomic configuration                                                         
    4 entries                                                                   
     n  l   j            E        occ.                                          
     1  0  0.50      -663.3661   2.0000                                         
     2  0  0.50       -29.8995   2.0000                                         
     2  1  0.50       -11.1114   5.0000                                         
     3  2  1.50       -10.8847   0.0000                                         
   Description                                                                  
     l       E           TYP  RCUT    TYP  RCUT                                 
     0    -29.8995018     23  1.200                                             
     0     -9.5240782     23  1.200                                             
     1    -11.1113914     23  1.520                                             
     1      1.3605826     23  1.520                                             
     2    -10.8846608      7  1.500                                             
  local pseudopotential read in
  partial core-charges read in
  partial kinetic energy density read in
  atomic valenz-charges read in
  non local Contribution for L=           0  read in
    real space projection operators read in
  non local Contribution for L=           0  read in
    real space projection operators read in
  non local Contribution for L=           1  read in
    real space projection operators read in
  non local Contribution for L=           1  read in
    real space projection operators read in
    PAW grid and wavefunctions read in
 
   number of l-projection  operators is LMAX  =           4
   number of lm-projection operators is LMMAX =           8
 
 Optimization of the real space projectors (new method)

 maximal supplied QI-value         = 15.12
 optimisation between [QCUT,QGAM] = [ 13.45, 27.06] = [ 50.69,205.06] Ry 
 Optimized for a Real-space Cutoff    1.49 Angstroem

   l    n(q)    QCUT    max X(q) W(low)/X(q) W(high)/X(q)  e(spline) 
   1     12    13.455     4.841    0.13E-05    0.83E-06    0.56E-07
   1     12    13.455     5.701    0.32E-04    0.25E-04    0.17E-06
   2     11    13.455     4.569    0.64E-05    0.34E-05    0.50E-07
   2     11    13.455    32.276    0.49E-04    0.38E-04    0.46E-06
   0     12    13.455    30.046    0.17E-04    0.41E-05    0.51E-07
   0     12    13.455    45.433    0.12E-04    0.27E-04    0.38E-06
 Optimization of the real space projectors (new method)

 maximal supplied QI-value         = 24.76
 optimisation between [QCUT,QGAM] = [ 13.37, 26.98] = [ 50.04,203.89] Ry 
 Optimized for a Real-space Cutoff    1.17 Angstroem

   l    n(q)    QCUT    max X(q) W(low)/X(q) W(high)/X(q)  e(spline) 
   0      9    13.368     4.192    0.20E-04    0.58E-05    0.56E-07
   0      9    13.368     8.473    0.60E-04    0.52E-04    0.21E-06
   1      9    13.368     2.474    0.22E-04    0.17E-04    0.28E-07
   1      9    13.368     3.912    0.94E-04    0.97E-04    0.20E-06
 Optimization of the real space projectors (new method)

 maximal supplied QI-value         = 24.76
 optimisation between [QCUT,QGAM] = [ 13.37, 26.98] = [ 50.04,203.89] Ry 
 Optimized for a Real-space Cutoff    1.17 Angstroem

   l    n(q)    QCUT    max X(q) W(low)/X(q) W(high)/X(q)  e(spline) 
   0      9    13.368    14.049    0.39E-04    0.34E-04    0.16E-06
   0      9    13.368     8.945    0.54E-04    0.47E-04    0.20E-06
   1      9    13.368     7.086    0.99E-04    0.10E-03    0.23E-06
   1      9    13.368     6.747    0.86E-04    0.89E-04    0.21E-06

 ----------------------------------------------------------------------------- 
|                                                                             |
|  ADVICE TO THIS USER RUNNING 'VASP/VAMP'   (HEAR YOUR MASTER'S VOICE ...):  |
|                                                                             |
|      You enforced a specific xc-type in the INCAR file,                     |
|      a different type was found on the POTCAR file                          |
|          I HOPE YOU KNOW, WHAT YOU ARE  DOING                               |
|                                                                             |
 ----------------------------------------------------------------------------- 

 PAW_PBE Ti_pv 07Sep2000                :
 energy of atom  1       EATOM=-1042.3781
 kinetic energy error for atom=    0.0006 (will be added to EATOM!!)
 PAW_PBE O 08Apr2002                    :
 energy of atom  2       EATOM= -432.3788
 kinetic energy error for atom=    0.0091 (will be added to EATOM!!)
  PAW_PBE F 08Apr2002                   :
 energy of atom  3       EATOM= -659.6475
 kinetic energy error for atom=    0.0140 (will be added to EATOM!!)
 
 
 POSCAR: Ti64 O64 F128                           
  positions in direct lattice
  velocities in cartesian coordinates
 exchange correlation table for  LEXCH =       14
   RHO(1)=    0.500       N(1)  =     2000
   RHO(2)=  100.500       N(2)  =     4000

 VTST: version 3.1, (03/28/14)

 CHAIN: initializing optimizer
 
 OPT: Using VASP QUASI-newton optimizer
 CHAIN: Read ICHAIN            0
 
 POSCAR: Ti64 O64 F128                           
  positions in direct lattice
  velocities in cartesian coordinates
 


--------------------------------------------------------------------------------------------------------


 ion  position               nearest neighbor table
   1  0.007  0.002  0.007-  65 1.82  88 1.82 216 1.95 229 1.96 196 2.02 132 2.04
   2  0.007  0.002  0.507-  66 1.82  89 1.83 217 1.94 230 1.96 197 2.02 131 2.04
   3  0.001  0.493  0.005- 109 1.82  67 1.88 198 1.93 170 1.93 134 1.99 218 1.99
   4  0.001  0.493  0.506- 110 1.83  68 1.83 171 1.93 199 1.97 219 2.00 133 2.06
   5  0.498  0.006  0.006-  69 1.84 106 1.84 193 1.95 172 1.97 233 2.02 136 2.03
   6  0.498  0.007  0.506-  70 1.83 107 1.84 194 1.94 173 1.96 234 2.01 135 2.03
   7  0.500  0.507  0.994- 108 1.83  72 1.83 174 1.95 195 1.96 129 2.03 231 2.04
   8  0.492  0.497  0.494-  97 1.82  71 1.84 232 1.94 220 1.96 130 2.02 175 2.05
   9  0.993  0.000  0.244- 100 1.82  65 1.84 237 1.92 221 1.96 131 2.02 176 2.05
  10  1.000  0.991  0.744- 111 1.77  66 1.84 202 1.93 177 1.98 132 2.02 222 2.07
  11  0.002  0.500  0.243-  67 1.79 178 1.89 223 1.90 203 1.94 235 1.94 133 2.00
  12  0.008  0.502  0.743-  90 1.82  68 1.82 224 1.91 236 1.99 204 2.02 134 2.06
  13  0.494  1.000  0.244-  69 1.83  98 1.84 239 1.94 225 1.96 135 2.02 179 2.04
  14  0.500  0.994  0.744- 113 1.82  70 1.84 180 1.94 200 1.98 136 2.02 226 2.03
  15  0.492  0.499  0.256-  99 1.80  71 1.84 227 1.94 238 1.95 129 2.02 181 2.07
  16  0.498  0.494  0.756- 112 1.83  72 1.84 201 1.95 182 1.97 130 2.03 228 2.03
  17  0.001  0.257  0.994- 109 1.82  75 1.85 183 1.91 208 1.95 216 1.99 137 2.03
  18  0.992  0.257  0.502- 102 1.81 110 1.81 138 1.95 143 1.98 217 2.01 184 2.04
  19  0.007  0.748  0.993-  77 1.80  91 1.84 218 1.95 229 1.98 209 2.03 139 2.04
  20  0.007  0.749  0.494-  92 1.82  76 1.85 219 1.95 230 1.98 140 2.02 210 2.05
  21  0.493  0.244  0.002- 106 1.82 101 1.84 141 1.94 144 1.96 231 2.02 185 2.04
  22  0.501  0.243  0.492- 107 1.80  78 1.83 186 1.94 205 1.98 142 2.02 232 2.03
  23  0.498  0.744  0.005- 108 1.84  73 1.85 206 1.94 187 1.97 146 2.02 233 2.04
  24  0.507  0.752  0.505-  93 1.84  74 1.85 234 1.95 220 1.97 145 2.02 207 2.03
  25  0.992  0.249  0.250- 104 1.77 221 1.91 137 1.93 143 1.93 235 1.94 188 2.02
  26  0.998  0.248  0.758-  75 1.78 214 1.89 222 1.89 236 1.94 189 1.95 138 2.02
  27  0.007  0.751  0.256-  76 1.82  94 1.83 237 1.93 223 1.97 139 2.03 215 2.04
  28  0.993  0.756  0.756- 105 1.83 111 1.86  77 1.87 224 2.02 140 2.02 190 2.06
  29  0.492  0.251  0.258-  78 1.81 103 1.83 238 1.94 225 1.94 141 2.02 191 2.08
  30  0.508  0.256  0.748-  95 1.80 112 1.84 142 1.94 144 1.97 226 2.03 211 2.06
  31  0.507  0.750  0.243-  73 1.83  96 1.84 239 1.94 227 1.95 145 2.02 212 2.03
  32  0.502  0.756  0.743-  74 1.83 113 1.86 192 1.93 213 1.99 228 2.01 146 2.03
  33  0.242  0.993  1.000- 119 1.82  88 1.82 147 1.93 155 1.96 193 2.03 240 2.04
  34  0.242  0.006  0.499-  89 1.81 114 1.84 154 1.93 148 1.97 253 2.00 194 2.03
  35  0.249  0.493  0.009-  79 1.79 118 1.85 195 1.95 170 1.98 241 2.03 157 2.05
  36  0.258  0.507  0.498- 115 1.81  97 1.83 156 1.93 149 1.98 171 2.05 252 2.05
  37  0.752  0.994  0.994-  81 1.84 122 1.84 196 1.95 172 1.97 150 2.03 242 2.03
  38  0.752  0.994  0.494- 123 1.83  80 1.84 197 1.95 173 1.98 151 2.02 243 2.04
  39  0.750  0.493  0.993-  83 1.82 120 1.84 174 1.94 198 1.97 244 2.02 152 2.05
  40  0.747  0.494  0.494- 121 1.85  82 1.85 175 1.93 199 1.98 153 2.01 245 2.01
  41  0.256  0.006  0.250-  98 1.83 116 1.85 154 1.94 147 1.94 255 2.01 176 2.04
  42  0.250  0.992  0.751- 125 1.76 200 1.92 155 1.92 148 1.93 177 1.93 246 2.04
  43  0.258  0.505  0.244-  99 1.84 117 1.86  79 1.86 156 2.02 254 2.04 178 2.09
  44  0.243  0.492  0.753-  90 1.83 124 1.83 157 1.93 149 1.97 201 2.02 247 2.03
  45  0.756  0.003  0.257-  80 1.82 100 1.86 248 1.94 256 1.96 179 2.03 150 2.03
  46  0.750  0.994  0.757- 128 1.83  81 1.83 180 1.95 202 1.96 249 2.03 151 2.04
  47  0.747  0.494  0.256-  82 1.82 126 1.85 181 1.92 250 2.00 203 2.01 152 2.02
  48  0.752  0.493  0.756- 127 1.81  83 1.85 204 1.96 182 1.98 251 2.03 153 2.04
  49  0.258  0.256  0.998- 101 1.81 118 1.83 164 1.94 158 1.97 240 2.03 183 2.08
  50  0.248  0.244  0.508-  84 1.82 114 1.84 184 1.94 205 1.97 252 2.01 163 2.02
  51  0.242  0.755  0.998-  91 1.81 119 1.85 166 1.93 159 1.96 241 2.02 206 2.04
  52  0.245  0.745  0.505-  92 1.87 115 1.87  85 1.88 165 2.01 207 2.04 253 2.04
  53  0.749  0.256  0.991-  87 1.79 120 1.84 185 1.94 208 2.01 242 2.02 160 2.05
  54  0.757  0.256  0.502- 121 1.83 102 1.84 161 1.91 167 1.98 243 2.01 186 2.04
  55  0.752  0.756  0.007-  86 1.82 122 1.83 209 1.94 187 1.97 169 2.02 244 2.03
  56  0.745  0.756  0.498-  93 1.84 123 1.84 168 1.94 162 1.96 245 2.03 210 2.03
  57  0.254  0.244  0.252- 116 1.83 103 1.86 163 1.94 158 1.97 254 2.00 188 2.06
  58  0.253  0.255  0.743-  84 1.81 124 1.83 211 1.91 189 2.01 246 2.02 164 2.03
  59  0.245  0.743  0.251- 117 1.82  94 1.86 165 1.93 159 1.97 212 2.04 255 2.05
  60  0.249  0.752  0.741-  85 1.76 190 1.93 125 1.94 213 1.96 247 1.98 166 2.04
  61  0.753  0.258  0.248- 126 1.79 160 1.91 104 1.94 167 1.97 191 1.97 248 2.01
  62  0.742  0.255  0.756-  95 1.84  87 1.85 127 1.87 249 2.02 161 2.03 214 2.10
  63  0.744  0.748  0.243-  86 1.81  96 1.84 250 1.94 256 1.96 168 2.03 215 2.03
  64  0.758  0.755  0.752- 105 1.81 128 1.86 169 1.94 162 1.96 251 2.02 192 2.05
  65  0.003  0.003  0.125-   1 1.82   9 1.84
  66  0.001  0.003  0.625-   2 1.82  10 1.84
  67  0.004  0.497  0.126-  11 1.79   3 1.88
  68  0.001  0.499  0.625-  12 1.82   4 1.83
  69  0.499  0.996  0.125-  13 1.83   5 1.84
  70  0.496  1.000  0.624-   6 1.83  14 1.84
  71  0.505  0.494  0.375-  15 1.84   8 1.84
  72  0.501  0.498  0.875-   7 1.83  16 1.84
  73  0.500  0.756  0.125-  31 1.83  23 1.85
  74  0.500  0.752  0.624-  32 1.83  24 1.85
  75  0.996  0.250  0.874-  26 1.78  17 1.85
  76  0.998  0.750  0.374-  27 1.82  20 1.85
  77  0.002  0.748  0.877-  19 1.80  28 1.87
  78  0.502  0.257  0.375-  29 1.81  22 1.83
  79  0.243  0.499  0.124-  35 1.79  43 1.86
  80  0.749  0.002  0.375-  45 1.82  38 1.84
  81  0.750  0.005  0.875-  46 1.83  37 1.84
  82  0.745  0.499  0.374-  47 1.82  40 1.85
  83  0.748  0.500  0.876-  39 1.82  48 1.85
  84  0.251  0.250  0.626-  58 1.81  50 1.82
  85  0.254  0.751  0.626-  60 1.76  52 1.88
  86  0.748  0.749  0.125-  63 1.81  55 1.82
  87  0.756  0.247  0.876-  53 1.79  62 1.85
  88  0.124  0.000  0.994-  33 1.82   1 1.82
  89  0.126  0.998  0.501-  34 1.81   2 1.83
  90  0.125  0.497  0.756-  12 1.82  44 1.83
  91  0.125  0.749  0.006-  51 1.81  19 1.84
  92  0.125  0.753  0.500-  20 1.82  52 1.87
  93  0.626  0.751  0.495-  24 1.84  56 1.84
  94  0.125  0.750  0.247-  27 1.83  59 1.86
  95  0.624  0.248  0.749-  30 1.80  62 1.84
  96  0.626  0.747  0.254-  63 1.84  31 1.84
  97  0.375  0.494  0.498-   8 1.82  36 1.83
  98  0.375  0.003  0.251-  41 1.83  13 1.84
  99  0.376  0.493  0.251-  15 1.80  43 1.84
 100  0.876  0.006  0.249-   9 1.82  45 1.86
 101  0.374  0.253  0.002-  49 1.81  21 1.84
 102  0.876  0.247  0.498-  18 1.81  54 1.84
 103  0.374  0.252  0.249-  29 1.83  57 1.86
 104  0.877  0.247  0.251-  25 1.77  61 1.94
 105  0.875  0.751  0.750-  64 1.81  28 1.83
 106  0.500  0.126  0.001-  21 1.82   5 1.84
 107  0.496  0.126  0.496-  22 1.80   6 1.84
 108  0.499  0.625  0.002-   7 1.83  23 1.84
 109  0.002  0.375  0.000-  17 1.82   3 1.82
 110  0.999  0.375  0.498-  18 1.81   4 1.83
 111  0.005  0.876  0.750-  10 1.77  28 1.86
 112  0.496  0.375  0.746-  16 1.83  30 1.84
 113  0.501  0.876  0.753-  14 1.82  32 1.86
 114  0.252  0.125  0.496-  34 1.84  50 1.84
 115  0.252  0.624  0.496-  36 1.81  52 1.87
 116  0.245  0.126  0.254-  57 1.83  41 1.85
 117  0.252  0.625  0.255-  59 1.82  43 1.86
 118  0.243  0.374  0.995-  49 1.83  35 1.85
 119  0.251  0.876  0.996-  33 1.82  51 1.85
 120  0.753  0.375  0.004-  39 1.84  53 1.84
 121  0.750  0.374  0.501-  54 1.83  40 1.85
 122  0.754  0.875  0.998-  55 1.83  37 1.84
 123  0.754  0.875  0.501-  38 1.83  56 1.84
 124  0.253  0.373  0.756-  44 1.83  58 1.83
 125  0.248  0.878  0.754-  42 1.76  60 1.94
 126  0.750  0.374  0.247-  61 1.79  47 1.85
 127  0.753  0.375  0.746-  48 1.81  62 1.87
 128  0.747  0.875  0.750-  46 1.83  64 1.86
 129  0.500  0.499  0.125-  15 2.02   7 2.03
 130  0.499  0.505  0.625-   8 2.02  16 2.03
 131  0.000  0.999  0.375-   9 2.02   2 2.04
 132  0.996  0.005  0.875-  10 2.02   1 2.04
 133  0.998  0.501  0.373-  11 2.00   4 2.06
 134  0.995  0.500  0.876-   3 1.99  12 2.06
 135  0.503  0.002  0.374-  13 2.02   6 2.03
 136  0.500  0.003  0.875-  14 2.02   5 2.03
 137  0.003  0.249  0.125-  25 1.93  17 2.03
 138  0.004  0.248  0.627-  18 1.95  26 2.02
 139  0.995  0.750  0.125-  27 2.03  19 2.04
 140  0.001  0.747  0.625-  28 2.02  20 2.02
 141  0.505  0.249  0.127-  21 1.94  29 2.02
 142  0.493  0.246  0.623-  30 1.94  22 2.02
 143  0.005  0.248  0.374-  25 1.93  18 1.98
 144  0.500  0.253  0.876-  21 1.96  30 1.97
 145  0.496  0.746  0.374-  24 2.02  31 2.02
 146  0.501  0.748  0.875-  23 2.02  32 2.03
 147  0.248  0.001  0.125-  33 1.93  41 1.94
 148  0.254  0.002  0.627-  42 1.93  34 1.97
 149  0.247  0.499  0.626-  44 1.97  36 1.98
 150  0.748  1.000  0.125-  45 2.03  37 2.03
 151  0.751  0.003  0.625-  38 2.02  46 2.04
 152  0.755  0.505  0.126-  47 2.02  39 2.05
 153  0.755  0.505  0.624-  40 2.01  48 2.04
 154  0.249  0.991  0.375-  34 1.93  41 1.94
 155  0.254  0.010  0.874-  42 1.92  33 1.96
 156  0.245  0.492  0.374-  36 1.93  43 2.02
 157  0.257  0.506  0.877-  44 1.93  35 2.05
 158  0.243  0.250  0.125-  49 1.97  57 1.97
 159  0.259  0.749  0.124-  51 1.96  59 1.97
 160  0.749  0.245  0.124-  61 1.91  53 2.05
 161  0.752  0.246  0.626-  54 1.91  62 2.03
 162  0.746  0.746  0.625-  64 1.96  56 1.96
 163  0.246  0.256  0.377-  57 1.94  50 2.02
 164  0.246  0.240  0.874-  49 1.94  58 2.03
 165  0.253  0.761  0.375-  59 1.93  52 2.01
 166  0.247  0.745  0.873-  51 1.93  60 2.04
 167  0.746  0.246  0.374-  61 1.97  54 1.98
 168  0.759  0.748  0.373-  56 1.94  63 2.03
 169  0.749  0.744  0.877-  64 1.94  55 2.02
 170  0.124  0.508  0.990-   3 1.93  35 1.98
 171  0.125  0.500  0.497-   4 1.93  36 2.05
 172  0.625  0.998  0.999-   5 1.97  37 1.97
 173  0.624  0.999  0.503-   6 1.96  38 1.98
 174  0.625  0.499  0.007-  39 1.94   7 1.95
 175  0.624  0.503  0.507-  40 1.93   8 2.05
 176  0.125  0.995  0.253-  41 2.04   9 2.05
 177  0.126  0.007  0.755-  42 1.93  10 1.98
 178  0.123  0.500  0.256-  11 1.89  43 2.09
 179  0.625  0.999  0.249-  45 2.03  13 2.04
 180  0.625  0.009  0.748-  14 1.94  46 1.95
 181  0.624  0.506  0.242-  47 1.92  15 2.07
 182  0.625  0.503  0.745-  16 1.97  48 1.98
 183  0.124  0.243  0.999-  17 1.91  49 2.08
 184  0.123  0.248  0.501-  50 1.94  18 2.04
 185  0.624  0.252  0.999-  53 1.94  21 2.04
 186  0.626  0.248  0.505-  22 1.94  54 2.04
 187  0.625  0.752  0.995-  55 1.97  23 1.97
 188  0.122  0.255  0.250-  25 2.02  57 2.06
 189  0.123  0.250  0.751-  26 1.95  58 2.01
 190  0.125  0.745  0.748-  60 1.93  28 2.06
 191  0.626  0.248  0.248-  61 1.97  29 2.08
 192  0.626  0.746  0.753-  32 1.93  64 2.05
 193  0.372  0.002  0.999-   5 1.95  33 2.03
 194  0.373  0.997  0.496-   6 1.94  34 2.03
 195  0.375  0.495  0.003-  35 1.95   7 1.96
 196  0.877  0.005  0.001-  37 1.95   1 2.02
 197  0.877  0.008  0.499-  38 1.95   2 2.02
 198  0.877  0.504  0.002-   3 1.93  39 1.97
 199  0.875  0.503  0.497-   4 1.97  40 1.98
 200  0.374  0.004  0.753-  42 1.92  14 1.98
 201  0.373  0.505  0.747-  16 1.95  44 2.02
 202  0.876  0.003  0.750-  10 1.93  46 1.96
 203  0.876  0.498  0.251-  11 1.94  47 2.01
 204  0.878  0.503  0.752-  48 1.96  12 2.02
 205  0.374  0.259  0.497-  50 1.97  22 1.98
 206  0.374  0.750  0.995-  23 1.94  51 2.04
 207  0.376  0.752  0.497-  24 2.03  52 2.04
 208  0.877  0.247  0.008-  17 1.95  53 2.01
 209  0.876  0.745  0.999-  55 1.94  19 2.03
 210  0.875  0.745  0.505-  56 2.03  20 2.05
 211  0.376  0.244  0.755-  58 1.91  30 2.06
 212  0.376  0.753  0.251-  31 2.03  59 2.04
 213  0.375  0.749  0.756-  60 1.96  32 1.99
 214  0.877  0.247  0.743-  26 1.89  62 2.10
 215  0.875  0.750  0.247-  63 2.03  27 2.04
 216  0.998  0.128  0.001-   1 1.95  17 1.99
 217  0.004  0.127  0.496-   2 1.94  18 2.01
 218  0.998  0.622  0.003-  19 1.95   3 1.99
 219  0.001  0.622  0.498-  20 1.95   4 2.00
 220  0.498  0.624  0.498-   8 1.96  24 1.97
 221  0.010  0.126  0.254-  25 1.91   9 1.96
 222  0.002  0.125  0.751-  26 1.89  10 2.07
 223  0.996  0.624  0.248-  11 1.90  27 1.97
 224  0.002  0.625  0.750-  12 1.91  28 2.02
 225  0.506  0.126  0.250-  29 1.94  13 1.96
 226  0.496  0.125  0.752-  30 2.03  14 2.03
 227  0.496  0.624  0.248-  15 1.94  31 1.95
 228  0.499  0.625  0.750-  32 2.01  16 2.03
 229  0.993  0.876  1.000-   1 1.96  19 1.98
 230  0.991  0.876  0.501-   2 1.96  20 1.98
 231  0.503  0.375  0.004-  21 2.02   7 2.04
 232  0.507  0.373  0.510-   8 1.94  22 2.03
 233  0.498  0.876  0.993-   5 2.02  23 2.04
 234  0.499  0.877  0.492-  24 1.95   6 2.01
 235  0.999  0.375  0.254-  25 1.94  11 1.94
 236  0.996  0.373  0.750-  26 1.94  12 1.99
 237  0.997  0.876  0.249-   9 1.92  27 1.93
 238  0.511  0.374  0.241-  29 1.94  15 1.95
 239  0.501  0.875  0.260-  13 1.94  31 1.94
 240  0.250  0.125  0.004-  49 2.03  33 2.04
 241  0.254  0.625  1.000-  51 2.02  35 2.03
 242  0.748  0.125  0.006-  53 2.02  37 2.03
 243  0.746  0.126  0.501-  54 2.01  38 2.04
 244  0.748  0.625  0.001-  39 2.02  55 2.03
 245  0.751  0.625  0.499-  40 2.01  56 2.03
 246  0.248  0.124  0.748-  58 2.02  42 2.04
 247  0.250  0.624  0.750-  60 1.98  44 2.03
 248  0.745  0.127  0.248-  45 1.94  61 2.01
 249  0.754  0.125  0.745-  62 2.02  46 2.03
 250  0.756  0.623  0.251-  63 1.94  47 2.00
 251  0.749  0.625  0.748-  64 2.02  48 2.03
 252  0.243  0.374  0.502-  50 2.01  36 2.05
 253  0.254  0.877  0.504-  34 2.00  52 2.04
 254  0.244  0.374  0.249-  57 2.00  43 2.04
 255  0.251  0.876  0.244-  41 2.01  59 2.05
 256  0.752  0.875  0.251-  45 1.96  63 1.96
 

IMPORTANT INFORMATION: All symmetrisations will be switched off!
NOSYMM: (Re-)initialisation of all symmetry stuff for point group C_1.

 
 
 KPOINTS: Title                                   

Automatic generation of k-mesh.
Space group operators:
 irot       det(A)        alpha          n_x          n_y          n_z        tau_x        tau_y        tau_z
    1     1.000000     0.000000     1.000000     0.000000     0.000000     0.000000     0.000000     0.000000
 
 Subroutine IBZKPT returns following result:
 ===========================================
 
 Found      4 irreducible k-points:
 
 Following reciprocal coordinates:
            Coordinates               Weight
  0.250000  0.250000  0.250000      2.000000
 -0.250000  0.250000  0.250000      2.000000
  0.250000 -0.250000  0.250000      2.000000
 -0.250000 -0.250000  0.250000      2.000000
 
 Following cartesian coordinates:
            Coordinates               Weight
  0.016153  0.016230  0.016242      2.000000
 -0.016145  0.016243  0.016221      2.000000
  0.016166 -0.016235  0.016234      2.000000
 -0.016133 -0.016222  0.016213      2.000000
 


--------------------------------------------------------------------------------------------------------




 Dimension of arrays:
   k-points           NKPTS =      4   k-points in BZ     NKDIM =      4   number of bands    NBANDS=   1280
   number of dos      NEDOS =   3001   number of ions     NIONS =    256
   non local maximal  LDIM  =      6   non local SUM 2l+1 LMDIM =     18
   total plane-waves  NPLWV = ******
   max r-space proj   IRMAX =  10357   max aug-charges    IRDMAX= 232202
   dimension x,y,z NGX =   140 NGY =  140 NGZ =  140
   dimension x,y,z NGXF=   280 NGYF=  280 NGZF=  280
   support grid    NGXF=   560 NGYF=  560 NGZF=  560
   ions per type =              64  64 128
   NGX,Y,Z   is equivalent  to a cutoff of  15.03, 15.11, 15.11 a.u.
   NGXF,Y,Z  is equivalent  to a cutoff of  30.07, 30.22, 30.21 a.u.

 SYSTEM =  LTO                                     
 POSCAR =  Ti64 O64 F128                           

 Startparameter for this run:
   NWRITE =      2    write-flag & timer
   PREC   = accura    normal or accurate (medium, high low for compatibility)
   ISTART =      1    job   : 0-new  1-cont  2-samecut
   ICHARG =      0    charge: 1-file 2-atom 10-const
   ISPIN  =      2    spin polarized calculation?
   LNONCOLLINEAR =      F non collinear calculations
   LSORBIT =      F    spin-orbit coupling
   INIWAV =      1    electr: 0-lowe 1-rand  2-diag
   LASPH  =      T    aspherical Exc in radial PAW
   METAGGA=      F    non-selfconsistent MetaGGA calc.

 Electronic Relaxation 1
   ENCUT  =  700.0 eV  51.45 Ry    7.17 a.u.  33.40 33.22 33.23*2*pi/ulx,y,z
   ENINI  =  700.0     initial cutoff
   ENAUG  =  613.6 eV  augmentation charge cutoff
   NELM   =     60;   NELMIN=  2; NELMDL=  0     # of ELM steps 
   EDIFF  = 0.1E-05   stopping-criterion for ELM
   LREAL  =      T    real-space projection
   NLSPLINE    = F    spline interpolate recip. space projectors
   LCOMPAT=      F    compatible to vasp.4.4
   GGA_COMPAT  = T    GGA compatible to vasp.4.4-vasp.4.6
   LMAXPAW     = -100 max onsite density
   LMAXMIX     =    4 max onsite mixed and CHGCAR
   VOSKOWN=      0    Vosko Wilk Nusair interpolation
   ROPT   =   -0.00010  -0.00010  -0.00010
 Ionic relaxation
   EDIFFG = -.1E-01   stopping-criterion for IOM
   NSW    =    100    number of steps for IOM
   NBLOCK =      1;   KBLOCK =    100    inner block; outer block 
   IBRION =      1    ionic relax: 0-MD 1-quasi-New 2-CG
   NFREE  =      0    steps in history (QN), initial steepest desc. (CG)
   ISIF   =      3    stress and relaxation
   IWAVPR =     11    prediction:  0-non 1-charg 2-wave 3-comb
   ISYM   =      0    0-nonsym 1-usesym 2-fastsym
   LCORR  =      T    Harris-Foulkes like correction to forces

   POTIM  = 0.5000    time-step for ionic-motion
   TEIN   =    0.0    initial temperature
   TEBEG  =    0.0;   TEEND  =   0.0 temperature during run
   SMASS  =  -3.00    Nose mass-parameter (am)
   estimated Nose-frequenzy (Omega)   =  0.10E-29 period in steps =****** mass=  -0.548E-26a.u.
   SCALEE = 1.0000    scale energy and forces
   NPACO  =    256;   APACO  = 16.0  distance and # of slots for P.C.
   PSTRESS=    0.0 pullay stress

  Mass of Ions in am
   POMASS =  47.88 16.00 19.00
  Ionic Valenz
   ZVAL   =  10.00  6.00  7.00
  Atomic Wigner-Seitz radii
   RWIGS  =  -1.00 -1.00 -1.00
  virtual crystal weights 
   VCA    =   1.00  1.00  1.00
   NELECT =    1920.0000    total number of electrons
   NUPDOWN=      -1.0000    fix difference up-down

 DOS related values:
   EMIN   =  10.00;   EMAX   =-10.00  energy-range for DOS
   EFERMI =   0.00
   ISMEAR =     0;   SIGMA  =   0.01  broadening in eV -4-tet -1-fermi 0-gaus

 Electronic relaxation 2 (details)
   IALGO  =     38    algorithm
   LDIAG  =      T    sub-space diagonalisation (order eigenvalues)
   LSUBROT=      F    optimize rotation matrix (better conditioning)
   TURBO    =      0    0=normal 1=particle mesh
   IRESTART =      0    0=no restart 2=restart with 2 vectors
   NREBOOT  =      0    no. of reboots
   NMIN     =      0    reboot dimension
   EREF     =   0.00    reference energy to select bands
   IMIX   =      4    mixing-type and parameters
     AMIX     =   0.40;   BMIX     =  1.00
     AMIX_MAG =   1.60;   BMIX_MAG =  1.00
     AMIN     =   0.10
     WC   =   100.;   INIMIX=   1;  MIXPRE=   1;  MAXMIX= -45

 Intra band minimization:
   WEIMIN = 0.0010     energy-eigenvalue tresh-hold
   EBREAK =  0.20E-09  absolut break condition
   DEPER  =   0.30     relativ break condition  

   TIME   =   0.40     timestep for ELM

  volume/ion in A,a.u.               =      14.35        96.83
  Fermi-wavevector in a.u.,A,eV,Ry     =   1.318754  2.492084 23.662066  1.739113
  Thomas-Fermi vector in A             =   2.448701
 
 Write flags
   LWAVE        =      T    write WAVECAR
   LDOWNSAMPLE  =      F    k-point downsampling of WAVECAR
   LCHARG       =      T    write CHGCAR
   LVTOT        =      F    write LOCPOT, total local potential
   LVHAR        =      F    write LOCPOT, Hartree potential only
   LELF         =      F    write electronic localiz. function (ELF)
   LORBIT       =     11    0 simple, 1 ext, 2 COOP (PROOUT), +10 PAW based schemes


 Dipole corrections
   LMONO  =      F    monopole corrections only (constant potential shift)
   LDIPOL =      F    correct potential (dipole corrections)
   IDIPOL =      0    1-x, 2-y, 3-z, 4-all directions 
   EPSILON=  1.0000000 bulk dielectric constant

 LDA+U is selected, type is set to LDAUTYPE =  2
   angular momentum for each species LDAUL =     2   -1   -1
   U (eV)           for each species LDAUU =   4.2  0.0  0.0
   J (eV)           for each species LDAUJ =   0.0  0.0  0.0
 Exchange correlation treatment:
   GGA     =    PS    GGA type
   LEXCH   =    14    internal setting for exchange type
   VOSKOWN=      0    Vosko Wilk Nusair interpolation
   LHFCALC =     F    Hartree Fock is set to
   LHFONE  =     F    Hartree Fock one center treatment
   AEXX    =    0.0000 exact exchange contribution

 Linear response parameters
   LEPSILON=     F    determine dielectric tensor
   LRPA    =     F    only Hartree local field effects (RPA)
   LNABLA  =     F    use nabla operator in PAW spheres
   LVEL    =     F    velocity operator in full k-point grid
   LINTERFAST=   F  fast interpolation
   KINTER  =     0    interpolate to denser k-point grid
   CSHIFT  =0.1000    complex shift for real part using Kramers Kronig
   OMEGAMAX=  -1.0    maximum frequency
   DEG_THRESHOLD= 0.2000000E-02 threshold for treating states as degnerate
   RTIME   =   -0.100 relaxation time in fs
  (WPLASMAI=    0.000 imaginary part of plasma frequency in eV, 0.658/RTIME)
   DFIELD  = 0.0000000 0.0000000 0.0000000 field for delta impulse in time
 
 Orbital magnetization related:
   ORBITALMAG=     F  switch on orbital magnetization
   LCHIMAG   =     F  perturbation theory with respect to B field
   DQ        =  0.001000  dq finite difference perturbation B field
   LLRAUG    =     F  two centre corrections for induced B field



--------------------------------------------------------------------------------------------------------


 quasi-Newton-method for relaxation of ions
 charge density and potential will be updated during run
 spin polarized calculation
 Variant of blocked Davidson
 Davidson routine will perform the subspace rotation
 perform sub-space diagonalisation
    after iterative eigenvector-optimisation
 modified Broyden-mixing scheme, WC =      100.0
 initial mixing is a Kerker type mixing with AMIX =  0.4000 and BMIX =      1.0000
 Hartree-type preconditioning will be used
 using additional bands          320
 real space projection scheme for non local part
 use partial core corrections
 calculate Harris-corrections to forces 
   (improved forces if not selfconsistent)
 use gradient corrections 
 use of overlap-Matrix (Vanderbilt PP)
 Gauss-broadening in eV      SIGMA  =   0.01


--------------------------------------------------------------------------------------------------------


  energy-cutoff  :      700.00
  volume of cell :     3673.11
      direct lattice vectors                 reciprocal lattice vectors
    15.480792171  0.006016591 -0.009721712     0.064596213 -0.000025128  0.000040527
     0.005993425 15.401190071 -0.003791726    -0.000025225  0.064930061  0.000015958
    -0.009666981 -0.003790158 15.405893499     0.000040756  0.000015965  0.064910254

  length of vectors
    15.480796392 15.401191704 15.405896998     0.064596230  0.064930068  0.064910268


 
 old parameters found on file WAVECAR:
  energy-cutoff  :      700.00
  volume of cell :     3673.15
      direct lattice vectors                 reciprocal lattice vectors
    15.480861727  0.006006869 -0.009700687     0.064595922 -0.000025087  0.000040439
     0.005983758 15.401238503 -0.003800653    -0.000025184  0.064929857  0.000015996
    -0.009646085 -0.003799069 15.405927831     0.000040668  0.000016002  0.064910109

  length of vectors

 
 k-points in units of 2pi/SCALE and weight: Title                                   
   0.01615294  0.01623022  0.01624168       0.250
  -0.01614517  0.01624279  0.01622142       0.250
   0.01616555 -0.01623481  0.01623371       0.250
  -0.01613256 -0.01622224  0.01621344       0.250
 
 k-points in reciprocal lattice and weights: Title                                   
   0.25000000  0.25000000  0.25000000       0.250
  -0.25000000  0.25000000  0.25000000       0.250
   0.25000000 -0.25000000  0.25000000       0.250
  -0.25000000 -0.25000000  0.25000000       0.250
 
 position of ions in fractional coordinates (direct lattice) 
   0.00710500  0.00172041  0.00691584
   0.00749118  0.00159075  0.50721566
   0.00054901  0.49295681  0.00451137
   0.00140049  0.49291582  0.50596902
   0.49800420  0.00601178  0.00613454
   0.49781295  0.00713047  0.50601122
   0.50021689  0.50659351  0.99384625
   0.49220461  0.49730827  0.49382494
   0.99298141  0.00014743  0.24414638
   0.99979384  0.99079089  0.74418568
   0.00157346  0.50029433  0.24275358
   0.00794858  0.50204037  0.74291397
   0.49354737  0.99974407  0.24361178
   0.50042774  0.99369132  0.74378492
   0.49158160  0.49864070  0.25640413
   0.49819747  0.49382925  0.75559378
   0.00127668  0.25687064  0.99361112
   0.99173270  0.25733724  0.50204534
   0.00735791  0.74821013  0.99331240
   0.00738454  0.74862837  0.49380436
   0.49258612  0.24364224  0.00216915
   0.50129380  0.24273214  0.49244900
   0.49810536  0.74414500  0.00547276
   0.50705001  0.75163101  0.50474671
   0.99170451  0.24870868  0.24975522
   0.99783722  0.24770657  0.75847448
   0.00707299  0.75072282  0.25645120
   0.99283609  0.75597828  0.75579301
   0.49175585  0.25104810  0.25759139
   0.50787861  0.25636614  0.74803049
   0.50713342  0.75030447  0.24345371
   0.50234045  0.75592618  0.74316638
   0.24151642  0.99310964  0.99959003
   0.24223301  0.00618300  0.49907707
   0.24925059  0.49317488  0.00885073
   0.25759338  0.50687699  0.49785793
   0.75158450  0.99406274  0.99364926
   0.75193990  0.99379197  0.49409185
   0.74980160  0.49343301  0.99348962
   0.74749753  0.49425967  0.49440974
   0.25637323  0.00613460  0.25045646
   0.25004551  0.99173854  0.75109297
   0.25753199  0.50539544  0.24437901
   0.24292570  0.49195734  0.75326218
   0.75580597  0.00251076  0.25683110
   0.74967413  0.99396873  0.75667829
   0.74670608  0.49385425  0.25630141
   0.75175624  0.49287370  0.75567509
   0.25758139  0.25620193  0.99835271
   0.24816922  0.24433027  0.50755412
   0.24207674  0.75545829  0.99797995
   0.24502058  0.74496600  0.50477199
   0.74858916  0.25595629  0.99141389
   0.75712202  0.25587762  0.50195674
   0.75163962  0.75633896  0.00723441
   0.74456293  0.75612687  0.49805653
   0.25435116  0.24417126  0.25198824
   0.25302837  0.25496830  0.74335217
   0.24476829  0.74325334  0.25116701
   0.24903931  0.75226136  0.74069138
   0.75254654  0.25772266  0.24753277
   0.74214058  0.25513758  0.75631929
   0.74404542  0.74834531  0.24253430
   0.75807931  0.75544481  0.75150368
   0.00331606  0.00276588  0.12508673
   0.00124958  0.00342868  0.62533807
   0.00436612  0.49736236  0.12649710
   0.00133085  0.49922540  0.62467606
   0.49878374  0.99580070  0.12507555
   0.49607067  0.99992820  0.62438382
   0.50545743  0.49428984  0.37487691
   0.50092240  0.49837506  0.87515069
   0.50041079  0.75567269  0.12475779
   0.50013478  0.75192908  0.62431236
   0.99586133  0.24974299  0.87415243
   0.99808426  0.74995042  0.37418192
   0.00249211  0.74815613  0.87650965
   0.50198545  0.25704972  0.37462690
   0.24258283  0.49926951  0.12441888
   0.74908179  0.00219227  0.37491196
   0.75021878  0.00462861  0.87495959
   0.74543043  0.49939753  0.37416704
   0.74849933  0.50048403  0.87570580
   0.25076197  0.24950469  0.62575794
   0.25403694  0.75079127  0.62635376
   0.74818446  0.74933976  0.12489768
   0.75550822  0.24687197  0.87562964
   0.12419024  0.00019727  0.99427706
   0.12557661  0.99757860  0.50092593
   0.12476220  0.49702799  0.75565090
   0.12538801  0.74887459  0.00558072
   0.12472251  0.75312332  0.49984342
   0.62564216  0.75073218  0.49526521
   0.12504384  0.74973300  0.24712863
   0.62383548  0.24840806  0.74874719
   0.62580834  0.74727222  0.25397019
   0.37505077  0.49357282  0.49836895
   0.37481378  0.00305901  0.25106118
   0.37566056  0.49288046  0.25066772
   0.87572080  0.00627312  0.24939452
   0.37435534  0.25292162  0.00219985
   0.87555227  0.24650448  0.49838100
   0.37409589  0.25166363  0.24896605
   0.87713444  0.24684656  0.25055163
   0.87457190  0.75065162  0.74986431
   0.50030501  0.12550158  0.00130791
   0.49597826  0.12588385  0.49642940
   0.49912595  0.62486800  0.00222604
   0.00239716  0.37476284  0.00033464
   0.99940080  0.37460420  0.49794065
   0.00516643  0.87607858  0.75021736
   0.49631273  0.37510490  0.74591939
   0.50140545  0.87607512  0.75260513
   0.25233254  0.12518755  0.49612084
   0.25154407  0.62413931  0.49605317
   0.24540804  0.12559320  0.25400735
   0.25205466  0.62533316  0.25455763
   0.24282975  0.37422878  0.99483583
   0.25061069  0.87554362  0.99574701
   0.75347943  0.37477829  0.00424615
   0.74960134  0.37445666  0.50119778
   0.75445962  0.87498363  0.99833888
   0.75421840  0.87542576  0.50079922
   0.25305024  0.37340855  0.75579569
   0.24770179  0.87751935  0.75405759
   0.74981044  0.37406455  0.24737751
   0.75255359  0.37548841  0.74640438
   0.74696359  0.87543850  0.75033391
   0.49951162  0.49887883  0.12536063
   0.49909321  0.50483049  0.62461267
   0.00045865  0.99942322  0.37529795
   0.99613482  0.00455470  0.87473505
   0.99836601  0.50132115  0.37281670
   0.99466041  0.50011360  0.87580104
   0.50320388  0.00206820  0.37447226
   0.49953533  0.00302533  0.87465857
   0.00332955  0.24856242  0.12534272
   0.00378705  0.24832545  0.62747169
   0.99504370  0.74987952  0.12492585
   0.00105572  0.74679541  0.62503610
   0.50452637  0.24946177  0.12715348
   0.49311610  0.24603749  0.62329472
   0.00455988  0.24845621  0.37443803
   0.49979391  0.25286277  0.87579252
   0.49554460  0.74556924  0.37411014
   0.50087420  0.74788997  0.87463249
   0.24758897  0.00125854  0.12462686
   0.25361468  0.00167892  0.62651779
   0.24658691  0.49860251  0.62570014
   0.74802154  0.99996195  0.12528151
   0.75138523  0.00292482  0.62490744
   0.75455588  0.50474353  0.12620149
   0.75494582  0.50450895  0.62407071
   0.24910972  0.99058729  0.37487933
   0.25421631  0.01020558  0.87439936
   0.24476598  0.49179833  0.37381528
   0.25675155  0.50636165  0.87686260
   0.24276009  0.25019338  0.12496152
   0.25871594  0.74912840  0.12390551
   0.74923349  0.24535471  0.12431370
   0.75226575  0.24558158  0.62550033
   0.74636796  0.74572065  0.62513479
   0.24649928  0.25644446  0.37675381
   0.24584538  0.23982777  0.87390551
   0.25342943  0.76053224  0.37523864
   0.24702272  0.74475336  0.87319329
   0.74572869  0.24575789  0.37434573
   0.75902930  0.74827801  0.37322468
   0.74945791  0.74358121  0.87650317
   0.12372271  0.50792897  0.98958516
   0.12527242  0.50033240  0.49708149
   0.62460138  0.99782767  0.99922219
   0.62434158  0.99949331  0.50282404
   0.62535812  0.49907462  0.00725879
   0.62397124  0.50339714  0.50738173
   0.12493003  0.99540742  0.25308916
   0.12623116  0.00724548  0.75457689
   0.12303439  0.49991071  0.25621953
   0.62506273  0.99862484  0.24884372
   0.62463029  0.00878514  0.74815734
   0.62422099  0.50598520  0.24221891
   0.62489659  0.50253365  0.74461684
   0.12405626  0.24327559  0.99920352
   0.12298747  0.24810598  0.50052299
   0.62387985  0.25181095  0.99912797
   0.62590927  0.24778142  0.50477212
   0.62487719  0.75206550  0.99495494
   0.12189324  0.25458558  0.25013199
   0.12326451  0.25013613  0.75105585
   0.12507620  0.74539921  0.74803743
   0.62571609  0.24849899  0.24841065
   0.62627589  0.74572648  0.75256189
   0.37247026  0.00205624  0.99860974
   0.37329993  0.99682315  0.49601248
   0.37482403  0.49490011  0.00349343
   0.87661095  0.00534684  0.00085210
   0.87709927  0.00841374  0.49922137
   0.87657430  0.50389997  0.00229197
   0.87520526  0.50334169  0.49676447
   0.37355877  0.00375363  0.75291542
   0.37281641  0.50496665  0.74672981
   0.87561773  0.00322021  0.74950888
   0.87648416  0.49778759  0.25055278
   0.87786048  0.50270214  0.75157159
   0.37436203  0.25895547  0.49710118
   0.37350994  0.74991062  0.99480312
   0.37633706  0.75211637  0.49727015
   0.87689237  0.24683105  0.00825100
   0.87625306  0.74479000  0.99949152
   0.87534462  0.74534921  0.50525707
   0.37561337  0.24351939  0.75526525
   0.37603777  0.75335344  0.25073482
   0.37482782  0.74884347  0.75645758
   0.87674776  0.24710166  0.74262118
   0.87528307  0.75021698  0.24737162
   0.99807611  0.12786428  0.00083790
   0.00443522  0.12732363  0.49636716
   0.99837723  0.62202519  0.00285321
   0.00087218  0.62239023  0.49766693
   0.49784453  0.62412961  0.49794476
   0.01023026  0.12608671  0.25369852
   0.00162971  0.12514503  0.75050840
   0.99602640  0.62354883  0.24846498
   0.00190254  0.62544861  0.75035341
   0.50594190  0.12595125  0.25034229
   0.49643083  0.12544401  0.75222992
   0.49619310  0.62424112  0.24834323
   0.49892307  0.62542948  0.74990156
   0.99288525  0.87562585  0.99995349
   0.99109578  0.87585328  0.50104550
   0.50331041  0.37460301  0.00370709
   0.50736531  0.37306880  0.50968582
   0.49760665  0.87577033  0.99279331
   0.49942011  0.87721366  0.49194700
   0.99924755  0.37452481  0.25373708
   0.99640217  0.37324591  0.74974861
   0.99664336  0.87562214  0.24866592
   0.51071098  0.37447940  0.24134548
   0.50144694  0.87531523  0.25985092
   0.25004732  0.12492309  0.00418030
   0.25400414  0.62462766  0.99974424
   0.74829094  0.12540269  0.00598922
   0.74558521  0.12565376  0.50098730
   0.74843328  0.62460661  0.00131801
   0.75094698  0.62457494  0.49911576
   0.24782199  0.12383113  0.74806877
   0.25023328  0.62374824  0.74959930
   0.74515199  0.12736907  0.24767426
   0.75419624  0.12508366  0.74530075
   0.75623294  0.62303320  0.25064508
   0.74943832  0.62475434  0.74834986
   0.24324758  0.37447334  0.50162034
   0.25429547  0.87722745  0.50420251
   0.24353933  0.37380841  0.24886308
   0.25069863  0.87604022  0.24398825
   0.75190130  0.87532229  0.25078312
 
 position of ions in cartesian coordinates  (Angst):
   0.10993445  0.02651291  0.10646907
   0.11107573  0.02262215  7.81403160
   0.01141001  7.59210778  0.06762717
   0.01974381  7.58958092  7.79302226
   7.70947629  0.09556164  0.08964386
   7.70168996  0.11089494  7.79068832
   7.73718248  7.80138570 15.30430560
   7.61792403  7.66022897  7.60114365
  15.36977954  0.00731959  3.75163914
  15.47634490 15.26255355 11.45136889
   0.02501016  7.70421745  3.73792348
   0.11887755  7.72925128 11.44327264
   7.64414117 15.39929463  3.74446830
   7.74578329 15.30422074 11.45003841
   7.61058255  7.68164609  3.94346506
   7.70814691  7.60569176 11.63388153
   0.01169835  3.95235523 15.30648067
  15.34949691  3.96736382  7.72383992
   0.10878833 11.51960586 15.29995657
   0.11403173 11.52794072  7.60458702
   7.62706271  3.75533589  0.02770506
   7.75711944  3.73951351  7.58082298
   7.71547262 11.46369470  0.07664879
   7.84916134 11.57714966  7.76829468
  15.35144760  3.83542968  3.83711826
  15.44146307  3.81810483 11.67433716
   0.11151583 11.56109533  3.94794457
  15.36711377 11.64607409 11.63114815
   7.61178469  3.86842183  3.96269296
   7.85666853  3.94856421 11.51816852
   7.85297049 11.55771026  3.74284675
   7.77397454 11.64236847 11.44139228
   3.73515456 15.29273484 15.39346394
   3.74517144  0.09479138  7.68634976
   3.86146689  7.59694610  0.13206026
   3.98597477  7.80617176  7.66552007
  11.63147575 15.31050513 15.29697873
  11.64180517 15.30823037  7.60084809
  11.60087612  7.60020141 15.29643493
  11.57003675  7.61481061  7.60768282
   3.96647624  0.09507330  3.85598990
   3.86958566 15.27261136 11.56506697
   3.98746586  7.78431448  3.76045700
   3.75634908  7.57533512 11.60044990
  11.69800738  0.04224271  3.94935531
  11.60419185 15.30994385 11.64624817
  11.56008378  7.60946439  3.93942042
  11.63343100  7.59250034 11.63267274
   3.97944849  3.94358048 15.37703996
   3.83841402  3.76254639  7.81598561
   3.74242009 11.63263063 15.36955488
   3.79269803 11.47292392  7.77125678
  11.58070335  3.94277787 15.26536872
  11.71752975  3.94347264  7.72476139
  11.64043984 11.65301490  0.10127747
  11.52614108 11.64784567  7.66290046
   3.93658483  3.76110322  3.87870550
   3.91142179  3.92552027 11.44857773
   3.79123363 11.44750672  3.86425450
   3.85267421 11.58441126 11.40573902
  11.64916829  3.97282524  3.80517030
  11.48314196  3.93102098 11.64359208
  11.52055312 11.52896578  3.72638667
  11.73293117 11.63646191 11.56735145
   0.05014265  0.04214366  1.92703012
   0.01331994  0.05044314  9.63386660
   0.06934908  7.65951913  1.94687248
   0.01755599  7.68630563  9.62178698
   7.72632661 15.33904277  1.91827580
   7.67952397 15.40070245  9.61057657
   7.82421996  7.61427200  5.76852563
   7.74920243  7.67526599 13.47571886
   7.75007846 11.64079668  1.91427500
   7.74095403 11.58124559  9.61037647
  15.40976863  3.84901770 13.45647079
  15.45201253 11.55471581  5.75206006
   0.03459071 11.51918765 13.50055332
   7.76905149  3.96047197  5.76560727
   3.75716393  7.69033263  1.91253262
  11.59276838  0.03684958  5.76856300
  11.60555047  0.07248360 13.47222330
  11.53922961  7.69438307  5.75523705
  11.58189679  7.70923400 13.48185583
   3.87744008  3.84180611  9.63697628
   3.93113786 11.56223343  9.64422281
  11.58577191 11.54475227  1.91404539
  11.68888058  3.80334899 13.48157606
   1.91295280  0.00001686 15.31651848
   1.94516186 15.36275453  7.71220811
   1.92709168  7.65270915 11.63837986
   1.94554004 11.53429320  0.08191751
   1.93048511 11.59785133  7.69646634
   9.68514806 11.56405604  7.62107418
   1.93788223 11.54659617  3.80317892
   9.65171812  3.82669522 11.52811277
   9.69003240 11.51168409  3.90372039
   5.80422353  7.60197646  7.67230136
   5.80000558  0.04841596  3.86416637
   5.81605389  7.59225582  3.85623922
  13.55447840  0.10093709  3.83360817
   5.79681186  3.89753792  0.02929226
  13.55090234  3.79984118  7.66855813
   5.79040230  3.87722659  3.83095342
  13.57779341  3.80605858  3.85050847
  13.53631581 11.56334816 11.54098107
   7.74585740  1.93587888  0.01480980
   7.67409186  1.93986362  7.64263944
   7.73058868  9.62670545  0.02707245
   0.03935274  5.77180693  0.00371107
  15.46894765  5.77347622  7.66008430
   0.07797881 13.48984030 11.55439663
   7.67835160  5.77722080 11.48530743
   7.76012886 13.49276377 11.58635812
   3.90226198  1.92767499  7.64025711
   3.89304683  9.61212145  7.63733030
   3.79740811  1.93479854  3.91034815
   3.90329295  9.63142649  3.91686628
   3.75182269  5.76125892 15.32255516
   3.87527361 13.48214749 15.33461624
  11.66666359  5.77654898  0.05666962
  11.60182183  5.76968860  7.71269243
  11.67522574 13.47654455 15.36965019
  11.67630385 13.48523822  7.70460775
   3.91234996  5.74959403 11.63983191
   3.83258978 13.51347461 11.61119560
  11.60751009  5.76461286  3.80236382
  11.64516077  5.78466713 11.49028646
  11.56158148 13.48444498 11.54898309
   7.73461373  7.68585790  1.92454480
   7.72334586  7.77562584  9.61594998
   0.00946225 15.39088727  5.77800623
  15.41252733  0.07282570 13.46637355
  15.45489733  7.72553607  5.73196767
  15.39266210  7.70500972 13.48093141
   7.78638700  0.03346101  5.76417997
   7.72476543  0.04628406 13.47002904
   0.05182217  3.82770210  1.93004172
   0.05404907  3.82215206  9.66578362
  15.40735134 11.55455036  1.91207753
   0.01477698 11.49917541  9.62639765
   7.81073383  3.84456170  1.95306220
   7.62927707  3.78987468  9.59668520
   0.06845990  3.82512952  5.76756608
   7.73025485  3.89407519 13.48654862
   7.67227490 11.48421710  5.75585651
   7.74995682 11.51809419 13.46678987
   3.83167613  0.02040034  1.91757632
   3.92010968  0.02500864  9.64959445
   3.81430046  7.67818407  9.63518197
  11.58474810 15.40462971  1.91901004
  11.62601513  0.04719802  9.61994162
  11.68292790  7.77771254  1.93499725
  11.68415016  7.77221506  9.60511462
   3.85872880 15.25630115  5.76917322
   3.92707826  0.15539352 13.46839329
   3.78850511  7.57433546  5.75471407
   3.96927562  7.79679336 13.50443576
   3.75841008  3.85426275  1.92183509
   4.00841975 11.53855585  1.90351941
  11.59899672  3.78279118  1.90694940
  11.64109490  3.78440393  9.62814696
  11.55279347 11.48710666  9.62067651
   3.81389904  3.94960497  5.80086029
   3.79887053  3.69179997 13.45999587
   3.92421911 11.71320417  5.77553899
   3.82012990 11.46826470 13.44709750
  11.54232503  3.78803189  5.75894880
  11.75125166 11.52752403  5.73964334
  11.59818567 11.45322270 13.49320899
   1.90880347  7.81970433 15.24231487
   1.93750969  7.70458411  7.65486944
   9.66564505 15.36770436 15.38405503
   9.66643188 15.39523703  7.73659406
   9.68396008  7.69007812  0.10385626
   9.65768136  7.75474615  7.80869410
   1.93753509 15.33025134  3.89407587
   1.94690730  0.10948846 11.62367652
   1.90518906  7.69898899  3.94419914
   9.68004589 15.38282858  3.82379661
   9.66259195  0.13622414 11.51992658
   9.66412646  7.79561185  3.72361166
   9.66970788  7.74055378 11.46350728
   1.91228789  3.74369288 15.39149452
   1.90059186  3.81997033  7.70886742
   9.65000490  3.87815500 15.38543913
   9.68617675  3.81798140  7.76944103
   9.66848319 11.58269229 15.31924333
   1.88611175  3.92070618  3.85135647
   1.90247104  3.85028903 11.56853960
   1.93351487 11.47795234 11.52014272
   9.68566867  3.83000329  3.81996269
   9.69244135 11.48599092 11.58497225
   5.75649344  0.03012461 15.38084649
   5.78015805 15.35262878  7.63410660
   5.80550522  7.62429263  0.04829889
  13.57065576  0.08761863  0.00458488
  13.57341596  0.13296662  7.68239243
  13.57306248  7.76592446  0.02487734
  13.54708528  7.75544392  7.64268342
   5.77572976  0.05720427 11.59568892
   5.76730129  7.77650028 11.49850086
  13.54802998  0.05202257 11.53832930
  13.56923049  7.67084508  3.84958108
  13.58572312  7.74464428 11.56819148
   5.79216736  3.98859064  7.65366652
   5.77710750 11.54799272 15.31935633
   5.82569643 11.58386675  7.65438046
  13.57638821  3.80673662  0.11765319
  13.55989327 11.47213614 15.38671722
  13.55061104 11.48261648  7.77260058
   5.80895093  3.74988577 11.63096106
   5.82345387 11.60385172  3.85628172
   5.79980710 11.53246872 11.64742156
  13.56705195  3.80812005 11.43128243
  13.55218029 11.55856292  3.79962701
  15.45176707  1.97526388  0.00272076
   0.06462548  1.95908088  7.64645371
  15.45937095  9.58592420  0.03189178
   0.01242138  9.58366927  7.66463529
   7.70595475  9.61344674  7.66407751
   0.15667572  1.94098537  3.90787477
   0.01872409  1.92454773 11.56176214
  15.42061295  9.60844503  3.81577760
   0.02594779  9.62982040 11.55747469
   7.83071626  1.94189434  3.85135047
   7.67862258  1.93212280 11.58347221
   7.68280295  9.61610022  3.81875850
   7.72022354  9.63251787 11.54568172
  15.36623165 13.48786391 15.39220428
  15.34335352 13.49324676  7.70609742
   7.79385311  5.77234627  0.05079761
   7.85172579  5.74682430  7.84581843
   7.69899671 13.48713634 15.28670975
   7.73192074 13.51127462  7.57070170
  15.46893553  5.77317812  3.89791190
  15.42008412  5.75158454 11.53944526
  15.43167283 13.49067696  3.81791143
   7.90612185  5.76958640  3.71175788
   7.76553005 13.48292829  3.99504170
   3.87163891  1.92545281  0.06149671
   3.92626448  9.61774843 15.39711550
  11.58483016  1.93583008  0.08451911
  11.53815971  1.93780452  7.71043223
  11.59007078  9.62418316  0.01066080
  11.62417251  9.62182371  7.67965553
   3.82999131  1.90580247 11.52178903
   3.87030149  9.60512970 11.54344926
  11.53391213  1.96517978  3.80791612
  11.66910004  1.92815008 11.47421764
  11.70839607  9.59905269  3.85169717
  11.59840902  9.62363297 11.51934351
   3.76306039  5.76689741  7.72412489
   3.93707887 13.50996569  7.76189181
   3.77001639  5.75761648  3.83017305
   3.88390528 13.49264552  3.75309810
  11.64284960 13.48457826  3.85290924
 


--------------------------------------------------------------------------------------------------------


 k-point  1 :   0.2500 0.2500 0.2500  plane waves:  154428
 k-point  2 :  -0.2500 0.2500 0.2500  plane waves:  154428
 k-point  3 :   0.2500-0.2500 0.2500  plane waves:  154444
 k-point  4 :  -0.2500-0.2500 0.2500  plane waves:  154418

 maximum and minimum number of plane-waves per node :     19346    19247

 maximum number of plane-waves:    154444
 maximum index in each direction: 
   IXMAX=   33   IYMAX=   33   IZMAX=   32
   IXMIN=  -33   IYMIN=  -33   IZMIN=  -33


 real space projection operators:
  total allocation   :     149029.42 KBytes
  max/ min on nodes  :      19736.38      17527.27


 parallel 3D FFT for wavefunctions:
    minimum data exchange during FFTs selected (reduces bandwidth)
 parallel 3D FFT for charge:
    minimum data exchange during FFTs selected (reduces bandwidth)


 total amount of memory used by VASP MPI-rank0   389781. kBytes
=======================================================================

   base      :      30000. kBytes
   nonlr-proj:      69242. kBytes
   fftplans  :      38734. kBytes
   grid      :      49123. kBytes
   one-center:        995. kBytes
   wavefun   :     201687. kBytes
 
     INWAV:  cpu time  126.4998: real time  135.4908
 Broyden mixing: mesh for mixing (old mesh)
   NGX = 67   NGY = 67   NGZ = 67
  (NGX  =280   NGY  =280   NGZ  =280)
  gives a total of 300763 points

 charge density for first step will be calculated from the start-wavefunctions


--------------------------------------------------------------------------------------------------------


 Maximum index for non-local projection operator         1586
 Maximum index for augmentation-charges         4488 (set IRDMAX)


--------------------------------------------------------------------------------------------------------


 initial charge from wavefunction
 First call to EWALD:  gamma=   0.115
 Maximum number of real-space cells 3x 3x 3
 Maximum number of reciprocal cells 3x 3x 3

    FEWALD:  cpu time    0.0390: real time    0.0392


--------------------------------------- Iteration      1(   1)  ---------------------------------------


    POTLOK:  cpu time    0.9809: real time    1.0386
    SETDIJ:  cpu time    2.5786: real time    2.5891
     EDDAV:  cpu time  123.0383: real time  125.5129
       DOS:  cpu time    0.0060: real time    0.0062
    CHARGE:  cpu time    9.3586: real time    9.4447
    MIXING:  cpu time    0.0080: real time    0.0077
    --------------------------------------------
      LOOP:  cpu time  135.9703: real time  138.5993

 eigenvalue-minimisations  : 11072
 total energy-change (2. order) :-0.1708868E+04  (-0.4374402E-07)
 number of electron    1920.0000025 magnetization       0.0000000
 augmentation part      495.6328308 magnetization      -0.0000000

 Broyden mixing:
  rms(total) = 0.16187E-03    rms(broyden)= 0.14253E-03
  rms(prec ) = 0.19188E-03
  weight for this iteration     100.00
  WARNING: grid for Broyden might be to small

 Free energy of the ion-electron system (eV)
  ---------------------------------------------------
  alpha Z        PSCENC =      6101.26640855
  Ewald energy   TEWEN  =   -102786.12686856
  -Hartree energ DENC   =    -65615.94281381
  -exchange      EXHF   =         0.00000000
  -V(xc)+E(xc)   XCENC  =      8959.00601400
  PAW double counting   =    144219.87434974  -145208.81124594
  entropy T*S    EENTRO =        -0.00000000
  eigenvalues    EBANDS =    -25796.96005112
  atomic energy  EATOM  =    178418.82573015
  Solvation  Ediel_sol  =         0.00000000
  ---------------------------------------------------
  free energy    TOTEN  =     -1708.86847699 eV

  energy without entropy =    -1708.86847699  energy(sigma->0) =    -1708.86847699


--------------------------------------------------------------------------------------------------------




--------------------------------------- Iteration      1(   2)  ---------------------------------------


    POTLOK:  cpu time    0.7469: real time    0.7546
    SETDIJ:  cpu time    2.5516: real time    2.5505
     EDDAV:  cpu time  125.6999: real time  125.4026
       DOS:  cpu time    0.0070: real time    0.0067
    --------------------------------------------
      LOOP:  cpu time  129.0054: real time  128.7144

 eigenvalue-minimisations  : 11072
 total energy-change (2. order) : 0.8026836E-07  (-0.4834321E-07)
 number of electron    1920.0000025 magnetization       0.0000000
 augmentation part      495.6328308 magnetization      -0.0000000

 Free energy of the ion-electron system (eV)
  ---------------------------------------------------
  alpha Z        PSCENC =      6101.26640855
  Ewald energy   TEWEN  =   -102786.12686856
  -Hartree energ DENC   =    -65615.94841422
  -exchange      EXHF   =         0.00000000
  -V(xc)+E(xc)   XCENC  =      8959.00602298
  PAW double counting   =    144219.88575222  -145208.82207520
  entropy T*S    EENTRO =        -0.00000000
  eigenvalues    EBANDS =    -25796.95503283
  atomic energy  EATOM  =    178418.82573015
  Solvation  Ediel_sol  =         0.00000000
  ---------------------------------------------------
  free energy    TOTEN  =     -1708.86847691 eV

  energy without entropy =    -1708.86847691  energy(sigma->0) =    -1708.86847691


--------------------------------------------------------------------------------------------------------




 average (electrostatic) potential at core
  the test charge radii are     1.0397  0.7215  0.7167
  (the norm of the test charge is              1.0000)
       1 -58.8924       2 -58.8900       3 -59.3971       4 -58.9819       5 -58.8526
       6 -58.8591       7 -58.7726       8 -58.7831       9 -58.8844      10 -58.7578
      11 -59.6529      12 -58.9526      13 -58.8509      14 -58.8154      15 -58.7396
      16 -58.7889      17 -59.3409      18 -58.9487      19 -58.7199      20 -58.6880
      21 -58.8633      22 -58.8609      23 -58.7799      24 -58.7272      25 -59.5747
      26 -59.6663      27 -58.7097      28 -58.4725      29 -58.8816      30 -58.6927
      31 -58.7715      32 -58.7813      33 -58.8705      34 -58.8929      35 -58.7685
      36 -58.6856      37 -58.7746      38 -58.7459      39 -58.7630      40 -58.9459
      41 -58.9098      42 -59.4158      43 -58.4657      44 -58.9497      45 -58.8264
      46 -58.7233      47 -58.9751      48 -58.7143      49 -58.8430      50 -58.9590
      51 -58.8496      52 -58.4972      53 -58.7109      54 -58.9277      55 -58.7246
      56 -58.7306      57 -58.9641      58 -58.9512      59 -58.7180      60 -58.8832
      61 -59.1634      62 -58.4185      63 -58.7381      64 -58.6851      65 -74.1221
      66 -74.1016      67 -74.6177      68 -74.2457      69 -74.0431      70 -74.0325
      71 -73.9740      72 -73.9651      73 -73.9309      74 -73.9070      75 -74.7989
      76 -73.9205      77 -73.9149      78 -74.2459      79 -74.0922      80 -73.9692
      81 -73.9425      82 -74.1013      83 -73.9520      84 -74.2949      85 -74.1374
      86 -74.0702      87 -74.0432      88 -74.2275      89 -74.2332      90 -74.2526
      91 -74.1194      92 -73.8001      93 -73.8543      94 -73.9058      95 -74.0691
      96 -73.9252      97 -74.0943      98 -74.0563      99 -74.1046     100 -74.0342
     101 -74.2264     102 -74.2879     103 -74.1681     104 -74.5339     105 -74.0041
     106 -74.0297     107 -74.1879     108 -73.9734     109 -74.6357     110 -74.3130
     111 -74.1958     112 -73.9409     113 -73.9789     114 -74.0978     115 -73.8974
     116 -74.0798     117 -73.8968     118 -74.0522     119 -74.0929     120 -73.9369
     121 -74.0648     122 -73.9463     123 -73.9396     124 -74.1858     125 -74.4556
     126 -74.3749     127 -73.8262     128 -73.9015     129 -78.4095     130 -78.4278
     131 -78.5881     132 -78.6200     133 -78.7993     134 -78.8714     135 -78.4626
     136 -78.5032     137 -79.6145     138 -79.4137     139 -78.3995     140 -78.4139
     141 -79.0832     142 -79.0389     143 -79.6654     144 -79.2041     145 -78.3458
     146 -78.3359     147 -79.5650     148 -79.7192     149 -79.1839     150 -78.4028
     151 -78.4305     152 -78.4515     153 -78.4856     154 -79.5413     155 -79.7232
     156 -78.9578     157 -79.0197     158 -79.2873     159 -79.1293     160 -79.1131
     161 -79.0520     162 -79.0467     163 -79.1171     164 -79.1389     165 -78.9167
     166 -78.9656     167 -79.3296     168 -78.8825     169 -78.8793     170 -79.5893
     171 -79.0054     172 -79.1241     173 -79.1128     174 -79.3880     175 -78.9481
     176 -78.3883     177 -79.6676     178 -79.3266     179 -78.4322     180 -79.4125
     181 -79.0722     182 -79.0450     183 -79.2525     184 -79.0813     185 -79.0237
     186 -79.0676     187 -79.0437     188 -78.6311     189 -79.5246     190 -78.9194
     191 -78.7003     192 -78.8505     193 -78.9740     194 -78.9992     195 -79.3963
     196 -78.9878     197 -78.9503     198 -79.5799     199 -79.1789     200 -79.6337
     201 -78.9470     202 -79.4270     203 -79.4850     204 -78.9643     205 -79.2320
     206 -78.8880     207 -78.2114     208 -79.3751     209 -78.9094     210 -78.2008
     211 -79.0937     212 -78.2952     213 -79.1162     214 -79.3335     215 -78.2960
     216 -79.2868     217 -79.1334     218 -79.2181     219 -79.0459     220 -79.1029
     221 -79.8362     222 -79.4415     223 -79.8019     224 -79.2095     225 -79.4461
     226 -78.4145     227 -79.3926     228 -78.4171     229 -79.3008     230 -79.2029
     231 -78.4443     232 -79.0056     233 -78.4593     234 -78.9286     235 -79.9952
     236 -79.6095     237 -79.5901     238 -79.4455     239 -79.3830     240 -78.5292
     241 -78.5462     242 -78.4378     243 -78.4479     244 -78.4090     245 -78.4489
     246 -78.6614     247 -78.7395     248 -79.0769     249 -78.3367     250 -79.1008
     251 -78.3152     252 -78.4509     253 -78.4545     254 -78.4763     255 -78.4234
     256 -79.1953
 
 
 
 E-fermi :  -0.6630     XC(G=0):  -9.0164     alpha+bet : -7.6961


 spin component 1

 k-point     1 :       0.2500    0.2500    0.2500
  band No.  band energies     occupation 
      1     -35.6643      1.00000
      2     -35.6272      1.00000
      3     -35.6236      1.00000
      4     -35.6142      1.00000
      5     -35.5799      1.00000
      6     -35.5728      1.00000
      7     -35.5034      1.00000
      8     -35.4392      1.00000
      9     -35.4351      1.00000
     10     -35.4257      1.00000
     11     -35.3933      1.00000
     12     -35.3336      1.00000
     13     -35.3204      1.00000
     14     -35.2712      1.00000
     15     -35.2313      1.00000
     16     -35.2181      1.00000
     17     -35.1991      1.00000
     18     -35.1896      1.00000
     19     -35.1380      1.00000
     20     -35.0279      1.00000
     21     -35.0062      1.00000
     22     -34.9831      1.00000
     23     -34.9750      1.00000
     24     -34.9720      1.00000
     25     -34.9663      1.00000
     26     -34.9655      1.00000
     27     -34.9630      1.00000
     28     -34.9598      1.00000
     29     -34.9556      1.00000
     30     -34.9519      1.00000
     31     -34.9305      1.00000
     32     -34.9284      1.00000
     33     -34.9274      1.00000
     34     -34.9242      1.00000
     35     -34.9060      1.00000
     36     -34.9045      1.00000
     37     -34.8989      1.00000
     38     -34.8912      1.00000
     39     -34.8787      1.00000
     40     -34.8769      1.00000
     41     -34.8760      1.00000
     42     -34.8736      1.00000
     43     -34.8696      1.00000
     44     -34.8693      1.00000
     45     -34.8686      1.00000
     46     -34.8645      1.00000
     47     -34.8611      1.00000
     48     -34.8598      1.00000
     49     -34.8519      1.00000
     50     -34.8505      1.00000
     51     -34.8449      1.00000
     52     -34.8444      1.00000
     53     -34.8421      1.00000
     54     -34.8401      1.00000
     55     -34.8275      1.00000
     56     -34.8261      1.00000
     57     -34.8215      1.00000
     58     -34.8132      1.00000
     59     -34.8105      1.00000
     60     -34.8103      1.00000
     61     -34.8087      1.00000
     62     -34.8083      1.00000
     63     -34.8059      1.00000
     64     -34.8047      1.00000
     65     -34.8011      1.00000
     66     -34.8009      1.00000
     67     -34.7978      1.00000
     68     -34.7926      1.00000
     69     -34.7863      1.00000
     70     -34.7853      1.00000
     71     -34.7835      1.00000
     72     -34.7817      1.00000
     73     -34.7797      1.00000
     74     -34.7767      1.00000
     75     -34.7747      1.00000
     76     -34.7743      1.00000
     77     -34.7716      1.00000
     78     -34.7699      1.00000
     79     -34.7685      1.00000
     80     -34.7643      1.00000
     81     -34.7635      1.00000
     82     -34.7597      1.00000
     83     -34.7575      1.00000
     84     -34.7571      1.00000
     85     -34.7540      1.00000
     86     -34.7498      1.00000
     87     -34.7493      1.00000
     88     -34.7461      1.00000
     89     -34.7437      1.00000
     90     -34.7407      1.00000
     91     -34.7400      1.00000
     92     -34.7372      1.00000
     93     -34.7357      1.00000
     94     -34.7349      1.00000
     95     -34.7341      1.00000
     96     -34.7315      1.00000
     97     -34.7261      1.00000
     98     -34.7246      1.00000
     99     -34.7229      1.00000
    100     -34.7202      1.00000
    101     -34.7187      1.00000
    102     -34.7172      1.00000
    103     -34.7167      1.00000
    104     -34.7149      1.00000
    105     -34.7139      1.00000
    106     -34.7110      1.00000
    107     -34.7099      1.00000
    108     -34.7055      1.00000
    109     -34.7048      1.00000
    110     -34.7013      1.00000
    111     -34.6991      1.00000
    112     -34.6958      1.00000
    113     -34.6950      1.00000
    114     -34.6937      1.00000
    115     -34.6909      1.00000
    116     -34.6906      1.00000
    117     -34.6873      1.00000
    118     -34.6859      1.00000
    119     -34.6846      1.00000
    120     -34.6787      1.00000
    121     -34.6739      1.00000
    122     -34.6691      1.00000
    123     -34.6688      1.00000
    124     -34.6659      1.00000
    125     -34.6646      1.00000
    126     -34.6619      1.00000
    127     -34.6593      1.00000
    128     -34.6585      1.00000
    129     -34.6498      1.00000
    130     -34.6478      1.00000
    131     -34.6386      1.00000
    132     -34.6357      1.00000
    133     -34.6350      1.00000
    134     -34.6319      1.00000
    135     -34.6290      1.00000
    136     -34.6278      1.00000
    137     -34.6251      1.00000
    138     -34.6225      1.00000
    139     -34.6186      1.00000
    140     -34.6181      1.00000
    141     -34.6142      1.00000
    142     -34.6126      1.00000
    143     -34.6103      1.00000
    144     -34.6043      1.00000
    145     -34.6033      1.00000
    146     -34.6028      1.00000
    147     -34.6025      1.00000
    148     -34.5987      1.00000
    149     -34.5975      1.00000
    150     -34.5959      1.00000
    151     -34.5905      1.00000
    152     -34.5842      1.00000
    153     -34.5836      1.00000
    154     -34.5794      1.00000
    155     -34.5762      1.00000
    156     -34.5746      1.00000
    157     -34.5730      1.00000
    158     -34.5704      1.00000
    159     -34.5686      1.00000
    160     -34.5681      1.00000
    161     -34.5633      1.00000
    162     -34.5596      1.00000
    163     -34.5549      1.00000
    164     -34.5532      1.00000
    165     -34.5517      1.00000
    166     -34.5500      1.00000
    167     -34.5464      1.00000
    168     -34.5441      1.00000
    169     -34.5409      1.00000
    170     -34.5388      1.00000
    171     -34.5316      1.00000
    172     -34.5280      1.00000
    173     -34.5229      1.00000
    174     -34.5220      1.00000
    175     -34.5194      1.00000
    176     -34.5189      1.00000
    177     -34.5094      1.00000
    178     -34.5003      1.00000
    179     -34.4946      1.00000
    180     -34.4856      1.00000
    181     -34.4191      1.00000
    182     -34.4096      1.00000
    183     -34.4070      1.00000
    184     -34.3741      1.00000
    185     -34.3710      1.00000
    186     -34.3703      1.00000
    187     -34.3591      1.00000
    188     -34.3389      1.00000
    189     -34.3332      1.00000
    190     -34.3330      1.00000
    191     -34.3248      1.00000
    192     -34.2768      1.00000
    193     -23.8143      1.00000
    194     -23.6253      1.00000
    195     -23.5524      1.00000
    196     -23.4767      1.00000
    197     -23.4380      1.00000
    198     -23.4276      1.00000
    199     -23.4150      1.00000
    200     -23.3660      1.00000
    201     -23.3607      1.00000
    202     -23.3200      1.00000
    203     -23.2687      1.00000
    204     -23.2605      1.00000
    205     -23.2364      1.00000
    206     -23.2346      1.00000
    207     -23.2174      1.00000
    208     -23.1904      1.00000
    209     -23.1706      1.00000
    210     -23.1372      1.00000
    211     -23.1182      1.00000
    212     -23.1104      1.00000
    213     -23.0976      1.00000
    214     -23.0899      1.00000
    215     -23.0670      1.00000
    216     -23.0484      1.00000
    217     -23.0330      1.00000
    218     -23.0228      1.00000
    219     -23.0148      1.00000
    220     -23.0102      1.00000
    221     -22.9969      1.00000
    222     -22.9885      1.00000
    223     -22.9846      1.00000
    224     -22.9783      1.00000
    225     -22.9684      1.00000
    226     -22.9490      1.00000
    227     -22.9345      1.00000
    228     -22.9185      1.00000
    229     -22.9138      1.00000
    230     -22.9090      1.00000
    231     -22.8985      1.00000
    232     -22.8946      1.00000
    233     -22.8879      1.00000
    234     -22.8762      1.00000
    235     -22.8680      1.00000
    236     -22.8640      1.00000
    237     -22.8490      1.00000
    238     -22.8355      1.00000
    239     -22.8308      1.00000
    240     -22.8249      1.00000
    241     -22.8061      1.00000
    242     -22.7980      1.00000
    243     -22.7929      1.00000
    244     -22.7761      1.00000
    245     -22.7633      1.00000
    246     -22.7529      1.00000
    247     -22.7456      1.00000
    248     -22.7244      1.00000
    249     -22.7043      1.00000
    250     -22.6906      1.00000
    251     -22.6699      1.00000
    252     -22.6626      1.00000
    253     -22.6594      1.00000
    254     -22.6429      1.00000
    255     -22.6394      1.00000
    256     -22.6334      1.00000
    257     -22.6283      1.00000
    258     -22.6243      1.00000
    259     -22.6142      1.00000
    260     -22.6107      1.00000
    261     -22.6025      1.00000
    262     -22.5958      1.00000
    263     -22.5939      1.00000
    264     -22.5801      1.00000
    265     -22.5661      1.00000
    266     -22.5645      1.00000
    267     -22.5520      1.00000
    268     -22.5314      1.00000
    269     -22.5196      1.00000
    270     -22.5174      1.00000
    271     -22.5085      1.00000
    272     -22.5046      1.00000
    273     -22.4988      1.00000
    274     -22.4815      1.00000
    275     -22.4792      1.00000
    276     -22.4570      1.00000
    277     -22.4365      1.00000
    278     -22.4316      1.00000
    279     -22.4197      1.00000
    280     -22.4119      1.00000
    281     -22.3519      1.00000
    282     -22.3293      1.00000
    283     -22.3239      1.00000
    284     -22.3109      1.00000
    285     -22.2662      1.00000
    286     -22.2523      1.00000
    287     -22.2146      1.00000
    288     -22.1836      1.00000
    289     -22.1831      1.00000
    290     -22.1779      1.00000
    291     -22.1677      1.00000
    292     -22.1536      1.00000
    293     -22.1513      1.00000
    294     -22.1372      1.00000
    295     -22.1297      1.00000
    296     -22.1292      1.00000
    297     -22.1248      1.00000
    298     -22.1115      1.00000
    299     -22.1108      1.00000
    300     -22.1038      1.00000
    301     -22.0945      1.00000
    302     -22.0875      1.00000
    303     -22.0856      1.00000
    304     -22.0679      1.00000
    305     -22.0654      1.00000
    306     -22.0605      1.00000
    307     -22.0519      1.00000
    308     -22.0409      1.00000
    309     -22.0275      1.00000
    310     -22.0262      1.00000
    311     -22.0213      1.00000
    312     -21.9993      1.00000
    313     -21.9867      1.00000
    314     -21.9593      1.00000
    315     -21.9479      1.00000
    316     -21.9436      1.00000
    317     -21.9208      1.00000
    318     -21.9071      1.00000
    319     -21.8292      1.00000
    320     -21.8247      1.00000
    321     -17.3065      1.00000
    322     -17.1626      1.00000
    323     -17.0169      1.00000
    324     -17.0078      1.00000
    325     -16.9039      1.00000
    326     -16.8981      1.00000
    327     -16.8535      1.00000
    328     -16.8398      1.00000
    329     -16.8182      1.00000
    330     -16.8089      1.00000
    331     -16.7933      1.00000
    332     -16.7856      1.00000
    333     -16.7624      1.00000
    334     -16.7482      1.00000
    335     -16.7314      1.00000
    336     -16.7095      1.00000
    337     -16.7033      1.00000
[...]
   79        1.570   3.475   0.000   5.045
   80        1.570   3.468   0.000   5.037
   81        1.569   3.468   0.000   5.038
   82        1.569   3.466   0.000   5.035
   83        1.568   3.468   0.000   5.036
   84        1.570   3.478   0.000   5.049
   85        1.572   3.472   0.000   5.044
   86        1.571   3.479   0.000   5.050
   87        1.570   3.476   0.000   5.046
   88        1.570   3.476   0.000   5.046
   89        1.570   3.476   0.000   5.046
   90        1.570   3.474   0.000   5.043
   91        1.570   3.474   0.000   5.043
   92        1.568   3.461   0.000   5.028
   93        1.568   3.461   0.000   5.029
   94        1.567   3.462   0.000   5.029
   95        1.570   3.478   0.000   5.048
   96        1.568   3.464   0.000   5.032
   97        1.570   3.474   0.000   5.044
   98        1.568   3.464   0.000   5.033
   99        1.570   3.476   0.000   5.046
  100        1.568   3.464   0.000   5.032
  101        1.570   3.475   0.000   5.045
  102        1.570   3.476   0.000   5.046
  103        1.567   3.463   0.000   5.030
  104        1.569   3.454   0.000   5.024
  105        1.570   3.476   0.000   5.046
  106        1.569   3.468   0.000   5.037
  107        1.571   3.478   0.000   5.048
  108        1.569   3.468   0.000   5.037
  109        1.571   3.476   0.000   5.047
  110        1.570   3.479   0.000   5.050
  111        1.571   3.480   0.000   5.051
  112        1.569   3.467   0.000   5.036
  113        1.569   3.466   0.000   5.035
  114        1.568   3.464   0.000   5.032
  115        1.569   3.464   0.000   5.033
  116        1.569   3.464   0.000   5.033
  117        1.568   3.466   0.000   5.034
  118        1.568   3.467   0.000   5.035
  119        1.569   3.468   0.000   5.037
  120        1.568   3.469   0.000   5.037
  121        1.568   3.465   0.000   5.033
  122        1.569   3.468   0.000   5.037
  123        1.569   3.466   0.000   5.035
  124        1.569   3.468   0.000   5.037
  125        1.570   3.457   0.000   5.028
  126        1.571   3.475   0.000   5.046
  127        1.568   3.466   0.000   5.034
  128        1.568   3.464   0.000   5.032
  129        1.729   4.376   0.000   6.105
  130        1.729   4.374   0.000   6.103
  131        1.728   4.374   0.000   6.102
  132        1.728   4.374   0.000   6.102
  133        1.729   4.373   0.000   6.102
  134        1.729   4.374   0.000   6.103
  135        1.729   4.374   0.000   6.103
  136        1.729   4.374   0.000   6.103
  137        1.730   4.383   0.000   6.114
  138        1.730   4.384   0.000   6.114
  139        1.729   4.373   0.000   6.101
  140        1.729   4.374   0.000   6.103
  141        1.730   4.385   0.000   6.116
  142        1.730   4.384   0.000   6.114
  143        1.730   4.389   0.000   6.120
  144        1.729   4.387   0.000   6.117
  145        1.729   4.375   0.000   6.104
  146        1.729   4.374   0.000   6.103
  147        1.730   4.394   0.000   6.125
  148        1.730   4.391   0.000   6.121
  149        1.729   4.384   0.000   6.113
  150        1.729   4.372   0.000   6.101
  151        1.729   4.374   0.000   6.102
  152        1.729   4.373   0.000   6.102
  153        1.729   4.374   0.000   6.103
  154        1.731   4.394   0.000   6.125
  155        1.731   4.393   0.000   6.125
  156        1.730   4.385   0.000   6.115
  157        1.730   4.381   0.000   6.112
  158        1.730   4.386   0.000   6.115
  159        1.730   4.385   0.000   6.115
  160        1.731   4.382   0.000   6.114
  161        1.731   4.385   0.000   6.116
  162        1.730   4.386   0.000   6.116
  163        1.730   4.383   0.000   6.113
  164        1.730   4.383   0.000   6.113
  165        1.730   4.383   0.000   6.113
  166        1.730   4.382   0.000   6.112
  167        1.730   4.384   0.000   6.114
  168        1.730   4.382   0.000   6.112
  169        1.730   4.384   0.000   6.114
  170        1.731   4.387   0.000   6.117
  171        1.730   4.381   0.000   6.111
  172        1.729   4.385   0.000   6.114
  173        1.729   4.384   0.000   6.113
  174        1.730   4.391   0.000   6.121
  175        1.730   4.379   0.000   6.109
  176        1.728   4.369   0.000   6.098
  177        1.730   4.389   0.000   6.120
  178        1.732   4.376   0.000   6.108
  179        1.728   4.372   0.000   6.100
  180        1.730   4.390   0.000   6.121
  181        1.730   4.379   0.000   6.109
  182        1.729   4.382   0.000   6.111
  183        1.731   4.378   0.000   6.109
  184        1.730   4.382   0.000   6.112
  185        1.730   4.382   0.000   6.111
  186        1.730   4.381   0.000   6.111
  187        1.729   4.384   0.000   6.113
  188        1.729   4.372   0.000   6.101
  189        1.729   4.383   0.000   6.112
  190        1.730   4.380   0.000   6.110
  191        1.729   4.374   0.000   6.103
  192        1.730   4.380   0.000   6.111
  193        1.729   4.382   0.000   6.111
  194        1.730   4.382   0.000   6.112
  195        1.730   4.390   0.000   6.120
  196        1.730   4.383   0.000   6.112
  197        1.729   4.381   0.000   6.110
  198        1.731   4.389   0.000   6.120
  199        1.729   4.384   0.000   6.113
  200        1.731   4.391   0.000   6.122
  201        1.730   4.381   0.000   6.110
  202        1.730   4.392   0.000   6.122
  203        1.730   4.383   0.000   6.113
  204        1.729   4.382   0.000   6.111
  205        1.729   4.382   0.000   6.112
  206        1.730   4.381   0.000   6.111
  207        1.729   4.371   0.000   6.099
  208        1.730   4.383   0.000   6.113
  209        1.730   4.382   0.000   6.112
  210        1.728   4.369   0.000   6.097
  211        1.731   4.381   0.000   6.111
  212        1.728   4.371   0.000   6.099
  213        1.729   4.383   0.000   6.112
  214        1.732   4.376   0.000   6.108
  215        1.728   4.372   0.000   6.100
  216        1.730   4.388   0.000   6.118
  217        1.730   4.386   0.000   6.116
  218        1.730   4.387   0.000   6.117
  219        1.730   4.386   0.000   6.116
  220        1.730   4.386   0.000   6.115
  221        1.732   4.392   0.000   6.124
  222        1.732   4.383   0.000   6.114
  223        1.731   4.393   0.000   6.124
  224        1.731   4.387   0.000   6.118
  225        1.730   4.391   0.000   6.121
  226        1.729   4.374   0.000   6.103
  227        1.730   4.392   0.000   6.122
  228        1.729   4.374   0.000   6.103
  229        1.729   4.386   0.000   6.115
  230        1.730   4.384   0.000   6.114
  231        1.729   4.373   0.000   6.102
  232        1.730   4.382   0.000   6.112
  233        1.729   4.372   0.000   6.101
  234        1.730   4.383   0.000   6.113
  235        1.731   4.393   0.000   6.124
  236        1.730   4.387   0.000   6.117
  237        1.731   4.397   0.000   6.128
  238        1.731   4.391   0.000   6.123
  239        1.731   4.392   0.000   6.123
  240        1.729   4.375   0.000   6.103
  241        1.728   4.374   0.000   6.103
  242        1.729   4.374   0.000   6.102
  243        1.729   4.374   0.000   6.103
  244        1.729   4.374   0.000   6.103
  245        1.729   4.375   0.000   6.104
  246        1.729   4.377   0.000   6.106
  247        1.729   4.378   0.000   6.107
  248        1.731   4.385   0.000   6.116
  249        1.729   4.375   0.000   6.104
  250        1.730   4.386   0.000   6.117
  251        1.729   4.374   0.000   6.103
  252        1.729   4.374   0.000   6.103
  253        1.729   4.375   0.000   6.105
  254        1.729   4.375   0.000   6.104
  255        1.729   4.373   0.000   6.102
  256        1.729   4.387   0.000   6.116
--------------------------------------------------
tot        342.2551196.442 112.9251651.622
 


 magnetization (x)
 
# of ion       s       p       d       tot
------------------------------------------
    1        0.000   0.000  -0.000  -0.000
    2       -0.000  -0.000  -0.000  -0.000
    3       -0.000  -0.000  -0.000  -0.000
    4       -0.000  -0.000  -0.000  -0.000
    5       -0.000   0.000   0.000  -0.000
    6        0.000   0.000   0.000   0.000
    7        0.000  -0.000   0.000   0.000
    8       -0.000  -0.000  -0.000  -0.000
    9       -0.000  -0.000  -0.000  -0.000
   10        0.000   0.000   0.000   0.000
   11        0.000  -0.000  -0.000  -0.000
   12        0.000  -0.000   0.000  -0.000
   13        0.000   0.000  -0.000  -0.000
   14        0.000  -0.000  -0.000  -0.000
   15        0.000  -0.000   0.000   0.000
   16       -0.000  -0.000  -0.000  -0.000
   17        0.000   0.000   0.000   0.000
   18       -0.000  -0.000  -0.000  -0.000
   19        0.000  -0.000  -0.000  -0.000
   20       -0.000  -0.000  -0.000  -0.000
   21       -0.000   0.000   0.000   0.000
   22       -0.000  -0.000   0.000  -0.000
   23       -0.000  -0.000   0.000  -0.000
   24        0.000   0.000   0.000   0.000
   25       -0.000  -0.000  -0.000  -0.000
   26       -0.000   0.000  -0.000  -0.000
   27        0.000  -0.000  -0.000  -0.000
   28       -0.000  -0.000  -0.000  -0.000
   29        0.000  -0.000  -0.000  -0.000
   30        0.000   0.000   0.000   0.000
   31       -0.000   0.000   0.000   0.000
   32       -0.000  -0.000  -0.000  -0.000
   33        0.000  -0.000   0.000  -0.000
   34        0.000   0.000   0.000   0.000
   35       -0.000  -0.000  -0.000  -0.000
   36       -0.000  -0.000  -0.000  -0.000
   37       -0.000   0.000  -0.000  -0.000
   38        0.000   0.000   0.000   0.000
   39       -0.000  -0.000   0.000   0.000
   40       -0.000  -0.000  -0.000  -0.000
   41       -0.000   0.000  -0.000  -0.000
   42        0.000  -0.000   0.000   0.000
   43       -0.000  -0.000  -0.000  -0.000
   44       -0.000  -0.000  -0.000  -0.000
   45        0.000   0.000  -0.000  -0.000
   46        0.000   0.000   0.000   0.000
   47       -0.000  -0.000   0.000   0.000
   48       -0.000  -0.000   0.000  -0.000
   49       -0.000  -0.000   0.000   0.000
   50       -0.000  -0.000  -0.000  -0.000
   51       -0.000  -0.000  -0.000  -0.000
   52        0.000   0.000   0.000   0.000
   53        0.000   0.000  -0.000  -0.000
   54        0.000   0.000   0.000   0.000
   55       -0.000   0.000  -0.000  -0.000
   56       -0.000  -0.000  -0.000  -0.000
   57       -0.000  -0.000  -0.000  -0.000
   58        0.000  -0.000   0.000   0.000
   59        0.000   0.000   0.000   0.000
   60       -0.000  -0.000  -0.000  -0.000
   61        0.000  -0.000   0.000   0.000
   62       -0.000   0.000  -0.000  -0.000
   63       -0.000   0.000  -0.000  -0.000
   64       -0.000  -0.000  -0.000  -0.000
   65        0.000   0.000   0.000   0.000
   66        0.000   0.000   0.000   0.000
   67        0.000   0.000   0.000   0.000
   68        0.000   0.000   0.000   0.000
   69        0.000  -0.000   0.000  -0.000
   70       -0.000  -0.000   0.000  -0.000
   71        0.000  -0.000   0.000  -0.000
   72        0.000   0.000   0.000   0.000
   73       -0.000  -0.000   0.000  -0.000
   74       -0.000   0.000   0.000   0.000
   75        0.000   0.000   0.000   0.000
   76        0.000   0.000   0.000   0.000
   77        0.000   0.000   0.000   0.000
   78       -0.000  -0.000   0.000  -0.000
   79        0.000   0.000   0.000   0.000
   80        0.000  -0.000   0.000  -0.000
   81        0.000  -0.000   0.000  -0.000
   82        0.000   0.000   0.000   0.000
   83       -0.000  -0.000   0.000  -0.000
   84        0.000   0.000   0.000   0.000
   85       -0.000   0.000   0.000   0.000
   86        0.000   0.000   0.000   0.000
   87        0.000   0.000   0.000   0.000
   88       -0.000  -0.000   0.000  -0.000
   89        0.000  -0.000   0.000  -0.000
   90       -0.000   0.000   0.000   0.000
   91        0.000   0.000   0.000   0.000
   92        0.000   0.000   0.000   0.000
   93        0.000   0.000   0.000   0.000
   94       -0.000  -0.000   0.000  -0.000
   95       -0.000  -0.000   0.000  -0.000
   96        0.000   0.000   0.000   0.000
   97        0.000   0.000   0.000   0.000
   98        0.000  -0.000   0.000  -0.000
   99        0.000   0.000   0.000   0.000
  100        0.000   0.000   0.000   0.000
  101       -0.000  -0.000   0.000  -0.000
  102        0.000  -0.000   0.000   0.000
  103        0.000   0.000   0.000   0.000
  104        0.000   0.000   0.000   0.000
  105        0.000   0.000   0.000   0.000
  106        0.000  -0.000   0.000  -0.000
  107        0.000   0.000   0.000   0.000
  108        0.000  -0.000   0.000  -0.000
  109        0.000   0.000   0.000   0.000
  110        0.000   0.000   0.000   0.000
  111       -0.000  -0.000   0.000  -0.000
  112       -0.000   0.000   0.000   0.000
  113        0.000   0.000   0.000   0.000
  114       -0.000   0.000   0.000   0.000
  115       -0.000  -0.000   0.000  -0.000
  116        0.000   0.000   0.000   0.000
  117       -0.000  -0.000   0.000  -0.000
  118        0.000   0.000   0.000   0.000
  119        0.000   0.000   0.000   0.000
  120        0.000   0.000   0.000   0.000
  121        0.000   0.000   0.000   0.000
  122        0.000   0.000   0.000   0.000
  123        0.000   0.000   0.000   0.000
  124        0.000  -0.000   0.000  -0.000
  125        0.000   0.000   0.000   0.000
  126       -0.000  -0.000   0.000  -0.000
  127        0.000   0.000   0.000   0.000
  128       -0.000  -0.000   0.000  -0.000
  129       -0.000   0.000   0.000   0.000
  130       -0.000  -0.000   0.000  -0.000
  131       -0.000  -0.000   0.000  -0.000
  132       -0.000   0.000   0.000   0.000
  133        0.000   0.000   0.000   0.000
  134       -0.000   0.000   0.000   0.000
  135       -0.000   0.000   0.000  -0.000
  136       -0.000  -0.000   0.000  -0.000
  137       -0.000  -0.000   0.000  -0.000
  138       -0.000  -0.000   0.000  -0.000
  139        0.000   0.000   0.000   0.000
  140       -0.000  -0.000   0.000  -0.000
  141        0.000   0.000   0.000   0.000
  142       -0.000  -0.000   0.000  -0.000
  143       -0.000   0.000   0.000  -0.000
  144       -0.000  -0.000   0.000  -0.000
  145       -0.000   0.000   0.000   0.000
  146       -0.000  -0.000   0.000  -0.000
  147        0.000   0.000   0.000   0.000
  148        0.000   0.000   0.000   0.000
  149       -0.000   0.000   0.000   0.000
  150       -0.000  -0.000   0.000  -0.000
  151       -0.000  -0.000   0.000  -0.000
  152        0.000  -0.000   0.000  -0.000
  153        0.000   0.000   0.000   0.000
  154       -0.000  -0.000   0.000  -0.000
  155       -0.000  -0.000   0.000  -0.000
  156       -0.000   0.000   0.000   0.000
  157       -0.000   0.000   0.000   0.000
  158        0.000   0.000   0.000   0.000
  159        0.000   0.000   0.000   0.000
  160       -0.000   0.000   0.000   0.000
  161        0.000   0.000   0.000   0.000
  162        0.000   0.000   0.000   0.000
  163        0.000   0.000   0.000   0.000
  164       -0.000  -0.000   0.000  -0.000
  165        0.000  -0.000   0.000  -0.000
  166       -0.000   0.000   0.000   0.000
  167       -0.000   0.000   0.000   0.000
  168        0.000   0.000   0.000   0.000
  169        0.000  -0.000   0.000  -0.000
  170       -0.000  -0.000   0.000  -0.000
  171        0.000   0.000   0.000   0.000
  172       -0.000   0.000   0.000   0.000
  173        0.000   0.000   0.000   0.000
  174       -0.000   0.000   0.000   0.000
  175        0.000   0.000   0.000   0.000
  176        0.000  -0.000   0.000  -0.000
  177       -0.000   0.000   0.000  -0.000
  178       -0.000   0.000   0.000   0.000
  179       -0.000   0.000   0.000   0.000
  180       -0.000  -0.000   0.000  -0.000
  181        0.000  -0.000   0.000  -0.000
  182       -0.000   0.000   0.000   0.000
  183       -0.000  -0.000   0.000  -0.000
  184        0.000   0.000   0.000   0.000
  185       -0.000   0.000   0.000  -0.000
  186        0.000   0.000   0.000   0.000
  187        0.000   0.000   0.000   0.000
  188        0.000   0.000   0.000   0.000
  189       -0.000  -0.000   0.000  -0.000
  190        0.000   0.000   0.000   0.000
  191        0.000   0.000   0.000   0.000
  192       -0.000   0.000   0.000   0.000
  193        0.000  -0.000   0.000  -0.000
  194        0.000  -0.000   0.000  -0.000
  195       -0.000  -0.000   0.000  -0.000
  196       -0.000   0.000   0.000   0.000
  197       -0.000  -0.000   0.000  -0.000
  198       -0.000   0.000   0.000   0.000
  199       -0.000   0.000   0.000   0.000
  200        0.000   0.000   0.000   0.000
  201       -0.000   0.000   0.000   0.000
  202        0.000   0.000   0.000   0.000
  203        0.000   0.000   0.000   0.000
  204       -0.000   0.000   0.000   0.000
  205       -0.000  -0.000   0.000  -0.000
  206        0.000   0.000   0.000   0.000
  207        0.000   0.000   0.000   0.000
  208       -0.000  -0.000   0.000  -0.000
  209       -0.000   0.000   0.000   0.000
  210       -0.000  -0.000   0.000  -0.000
  211       -0.000  -0.000   0.000  -0.000
  212       -0.000  -0.000   0.000  -0.000
  213        0.000   0.000   0.000   0.000
  214       -0.000  -0.000   0.000  -0.000
  215       -0.000  -0.000   0.000  -0.000
  216        0.000   0.000   0.000   0.000
  217       -0.000  -0.000   0.000  -0.000
  218       -0.000  -0.000   0.000  -0.000
  219        0.000  -0.000   0.000  -0.000
  220       -0.000   0.000   0.000   0.000
  221        0.000  -0.000   0.000  -0.000
  222        0.000   0.000   0.000   0.000
  223        0.000  -0.000   0.000   0.000
  224       -0.000   0.000   0.000   0.000
  225        0.000   0.000   0.000   0.000
  226       -0.000   0.000   0.000   0.000
  227       -0.000  -0.000   0.000  -0.000
  228       -0.000  -0.000   0.000  -0.000
  229       -0.000   0.000   0.000   0.000
  230       -0.000  -0.000   0.000  -0.000
  231       -0.000  -0.000   0.000  -0.000
  232       -0.000  -0.000   0.000  -0.000
  233       -0.000  -0.000   0.000  -0.000
  234        0.000   0.000   0.000   0.000
  235        0.000   0.000   0.000   0.000
  236        0.000  -0.000   0.000  -0.000
  237       -0.000  -0.000   0.000  -0.000
  238        0.000  -0.000   0.000  -0.000
  239       -0.000  -0.000   0.000  -0.000
  240        0.000   0.000   0.000   0.000
  241        0.000   0.000   0.000   0.000
  242       -0.000   0.000   0.000   0.000
  243        0.000   0.000   0.000   0.000
  244       -0.000  -0.000   0.000  -0.000
  245        0.000   0.000   0.000   0.000
  246        0.000   0.000   0.000   0.000
  247        0.000   0.000   0.000   0.000
  248       -0.000   0.000   0.000   0.000
  249        0.000   0.000   0.000   0.000
  250        0.000  -0.000   0.000  -0.000
  251       -0.000  -0.000   0.000  -0.000
  252       -0.000  -0.000   0.000  -0.000
  253       -0.000  -0.000   0.000  -0.000
  254       -0.000  -0.000   0.000  -0.000
  255       -0.000   0.000   0.000  -0.000
  256       -0.000   0.000   0.000   0.000
--------------------------------------------------
tot         -0.000   0.000  -0.000  -0.000
 

 total amount of memory used by VASP MPI-rank0   389781. kBytes
=======================================================================

   base      :      30000. kBytes
   nonlr-proj:      69242. kBytes
   fftplans  :      38734. kBytes
   grid      :      49123. kBytes
   one-center:        995. kBytes
   wavefun   :     201687. kBytes
 
  
  
 General timing and accounting informations for this job:
 ========================================================
  
                  Total CPU time used (sec):     1034.496
                            User time (sec):      932.397
                          System time (sec):      102.098
                         Elapsed time (sec):     1060.889
  
                   Maximum memory used (kb):      707812.
                   Average memory used (kb):           0.
  
                          Minor page faults:        36896
                          Major page faults:            2
                 Voluntary context switches:       385666
