 vasp.5.4.4.18Apr17-6-g9f103f2a35 (build Jul 16 2019 12:12:28) complex          
  
 executed on             LinuxIFC date 2020.01.06  12:14:09
 running on   96 total cores
 distrk:  each k-point on   96 cores,    1 groups
 distr:  one band on NCORES_PER_BAND=   8 cores,   12 groups


--------------------------------------------------------------------------------------------------------


 INCAR:
 POTCAR:    PAW_PBE Li_sv 10Sep2004               
 POTCAR:    PAW_PBE Ti_pv 07Sep2000               
 POTCAR:    PAW_PBE O 08Apr2002                   
 POTCAR:    PAW_PBE F 08Apr2002                   
 POTCAR:    PAW_PBE Li_sv 10Sep2004               
   VRHFIN =Li: 1s2s2p                                                           
   LEXCH  = PE                                                                  
   EATOM  =   202.7858 eV,   14.9043 Ry                                         
                                                                                
   TITEL  = PAW_PBE Li_sv 10Sep2004                                             
   LULTRA =        F    use ultrasoft PP ?                                      
   IUNSCR =        0    unscreen: 0-lin 1-nonlin 2-no                           
   RPACOR =    0.000    partial core radius                                     
   POMASS =    7.010; ZVAL   =    3.000    mass and valenz                      
   RCORE  =    1.700    outmost cutoff radius                                   
   RWIGS  =    2.050; RWIGS  =    1.085    wigner-seitz radius (au A)           
   ENMAX  =  499.034; ENMIN  =  374.276 eV                                      
   ICORE  =        2    local potential                                         
   LCOR   =        T    correct aug charges                                     
   LPAW   =        T    paw PP                                                  
   EAUG   =  628.945                                                            
   RMAX   =    1.732    core radius for proj-oper                               
   RAUG   =    1.300    factor for augmentation sphere                          
   RDEP   =    1.728    radius for radial grids                                 
   RDEPT  =    1.329    core radius for aug-charge                              
                                                                                
   Atomic configuration                                                         
    4 entries                                                                   
     n  l   j            E        occ.                                          
     1  0  0.50       -51.8549   2.0000                                         
     2  0  0.50        -2.8742   1.0000                                         
     2  1  0.50        -1.3606   0.0000                                         
     3  2  1.50        -1.3606   0.0000                                         
   Description                                                                  
     l       E           TYP  RCUT    TYP  RCUT                                 
     0    -51.8548813     23  1.400                                             
     0     -2.8742052     23  1.700                                             
     1     -1.3605826     23  1.400                                             
     2     -1.3605826     23  1.400                                             
  local pseudopotential read in
  atomic valenz-charges read in
  non local Contribution for L=           0  read in
    real space projection operators read in
  non local Contribution for L=           0  read in
    real space projection operators read in
  non local Contribution for L=           1  read in
    real space projection operators read in
    PAW grid and wavefunctions read in
 
   number of l-projection  operators is LMAX  =           3
   number of lm-projection operators is LMMAX =           5
 
 POTCAR:    PAW_PBE Ti_pv 07Sep2000               
   VRHFIN =Ti: d3 s1                                                            
   LEXCH  = PE                                                                  
   EATOM  =  1042.5995 eV,   76.6289 Ry                                         
                                                                                
   TITEL  = PAW_PBE Ti_pv 07Sep2000                                             
   LULTRA =        F    use ultrasoft PP ?                                      
   IUNSCR =        1    unscreen: 0-lin 1-nonlin 2-no                           
   RPACOR =    2.200    partial core radius                                     
   POMASS =   47.880; ZVAL   =   10.000    mass and valenz                      
   RCORE  =    2.500    outmost cutoff radius                                   
   RWIGS  =    2.500; RWIGS  =    1.323    wigner-seitz radius (au A)           
   ENMAX  =  222.335; ENMIN  =  166.751 eV                                      
   RCLOC  =    1.701    cutoff for local pot                                    
   LCOR   =        T    correct aug charges                                     
   LPAW   =        T    paw PP                                                  
   EAUG   =  482.848                                                            
   DEXC   =    0.000                                                            
   RMAX   =    2.564    core radius for proj-oper                               
   RAUG   =    1.300    factor for augmentation sphere                          
   RDEP   =    2.538    radius for radial grids                                 
   RDEPT  =    1.952    core radius for aug-charge                              
                                                                                
   Atomic configuration                                                         
    8 entries                                                                   
     n  l   j            E        occ.                                          
     1  0  0.50     -4865.3608   2.0000                                         
     2  0  0.50      -533.1368   2.0000                                         
     2  1  1.50      -440.5031   6.0000                                         
     3  0  0.50       -59.3186   2.0000                                         
     3  1  1.50       -35.7012   6.0000                                         
     3  2  2.50        -1.9157   3.0000                                         
     4  0  0.50        -3.7291   1.0000                                         
     4  3  2.50        -1.3606   0.0000                                         
   Description                                                                  
     l       E           TYP  RCUT    TYP  RCUT                                 
     1    -35.7012140     23  2.300                                             
     1     -1.3605826     23  2.300                                             
     2     -1.9156996     23  2.500                                             
     2     -0.4063033     23  2.500                                             
     0     -3.7290856     23  2.500                                             
     0     20.4087390     23  2.500                                             
  local pseudopotential read in
  partial core-charges read in
  partial kinetic energy density read in
  atomic valenz-charges read in
  non local Contribution for L=           1  read in
    real space projection operators read in
  non local Contribution for L=           1  read in
    real space projection operators read in
  non local Contribution for L=           2  read in
    real space projection operators read in
  non local Contribution for L=           2  read in
    real space projection operators read in
  non local Contribution for L=           0  read in
    real space projection operators read in
  non local Contribution for L=           0  read in
    real space projection operators read in
    PAW grid and wavefunctions read in
 
   number of l-projection  operators is LMAX  =           6
   number of lm-projection operators is LMMAX =          18
 
 POTCAR:    PAW_PBE O 08Apr2002                   
   VRHFIN =O: s2p4                                                              
   LEXCH  = PE                                                                  
   EATOM  =   432.3788 eV,   31.7789 Ry                                         
                                                                                
   TITEL  = PAW_PBE O 08Apr2002                                                 
   LULTRA =        F    use ultrasoft PP ?                                      
   IUNSCR =        1    unscreen: 0-lin 1-nonlin 2-no                           
   RPACOR =    1.200    partial core radius                                     
   POMASS =   16.000; ZVAL   =    6.000    mass and valenz                      
   RCORE  =    1.520    outmost cutoff radius                                   
   RWIGS  =    1.550; RWIGS  =    0.820    wigner-seitz radius (au A)           
   ENMAX  =  400.000; ENMIN  =  300.000 eV                                      
   ICORE  =        2    local potential                                         
   LCOR   =        T    correct aug charges                                     
   LPAW   =        T    paw PP                                                  
   EAUG   =  605.392                                                            
   DEXC   =    0.000                                                            
   RMAX   =    1.553    core radius for proj-oper                               
   RAUG   =    1.300    factor for augmentation sphere                          
   RDEP   =    1.550    radius for radial grids                                 
   RDEPT  =    1.329    core radius for aug-charge                              
                                                                                
   Atomic configuration                                                         
    4 entries                                                                   
     n  l   j            E        occ.                                          
     1  0  0.50      -514.6923   2.0000                                         
     2  0  0.50       -23.9615   2.0000                                         
     2  1  0.50        -9.0305   4.0000                                         
     3  2  1.50        -9.5241   0.0000                                         
   Description                                                                  
     l       E           TYP  RCUT    TYP  RCUT                                 
     0    -23.9615318     23  1.200                                             
     0     -9.5240782     23  1.200                                             
     1     -9.0304911     23  1.520                                             
     1      8.1634956     23  1.520                                             
     2     -9.5240782      7  1.500                                             
  local pseudopotential read in
  partial core-charges read in
  partial kinetic energy density read in
  kinetic energy density of atom read in
  atomic valenz-charges read in
  non local Contribution for L=           0  read in
    real space projection operators read in
  non local Contribution for L=           0  read in
    real space projection operators read in
  non local Contribution for L=           1  read in
    real space projection operators read in
  non local Contribution for L=           1  read in
    real space projection operators read in
    PAW grid and wavefunctions read in
 
   number of l-projection  operators is LMAX  =           4
   number of lm-projection operators is LMMAX =           8
 
 POTCAR:    PAW_PBE F 08Apr2002                   
   VRHFIN =F: s2p5                                                              
   LEXCH  = PE                                                                  
   EATOM  =   659.6475 eV,   48.4827 Ry                                         
                                                                                
   TITEL  = PAW_PBE F 08Apr2002                                                 
   LULTRA =        F    use ultrasoft PP ?                                      
   IUNSCR =        1    unscreen: 0-lin 1-nonlin 2-no                           
   RPACOR =    1.200    partial core radius                                     
   POMASS =   18.998; ZVAL   =    7.000    mass and valenz                      
   RCORE  =    1.520    outmost cutoff radius                                   
   RWIGS  =    1.500; RWIGS  =    0.794    wigner-seitz radius (au A)           
   ENMAX  =  400.000; ENMIN  =  300.000 eV                                      
   ICORE  =        2    local potential                                         
   LCOR   =        T    correct aug charges                                     
   LPAW   =        T    paw PP                                                  
   EAUG   =  613.614                                                            
   RMAX   =    1.555    core radius for proj-oper                               
   RAUG   =    1.300    factor for augmentation sphere                          
   RDEP   =    1.539    radius for radial grids                                 
   RDEPT  =    1.299    core radius for aug-charge                              
                                                                                
   Atomic configuration                                                         
    4 entries                                                                   
     n  l   j            E        occ.                                          
     1  0  0.50      -663.3661   2.0000                                         
     2  0  0.50       -29.8995   2.0000                                         
     2  1  0.50       -11.1114   5.0000                                         
     3  2  1.50       -10.8847   0.0000                                         
   Description                                                                  
     l       E           TYP  RCUT    TYP  RCUT                                 
     0    -29.8995018     23  1.200                                             
     0     -9.5240782     23  1.200                                             
     1    -11.1113914     23  1.520                                             
     1      1.3605826     23  1.520                                             
     2    -10.8846608      7  1.500                                             
  local pseudopotential read in
  partial core-charges read in
  partial kinetic energy density read in
  atomic valenz-charges read in
  non local Contribution for L=           0  read in
    real space projection operators read in
  non local Contribution for L=           0  read in
    real space projection operators read in
  non local Contribution for L=           1  read in
    real space projection operators read in
  non local Contribution for L=           1  read in
    real space projection operators read in
    PAW grid and wavefunctions read in
 
   number of l-projection  operators is LMAX  =           4
   number of lm-projection operators is LMMAX =           8
 
 Optimization of the real space projectors (new method)

 maximal supplied QI-value         = 22.11
 optimisation between [QCUT,QGAM] = [ 11.28, 22.77] = [ 35.61,145.23] Ry 
 Optimized for a Real-space Cutoff    1.31 Angstroem

   l    n(q)    QCUT    max X(q) W(low)/X(q) W(high)/X(q)  e(spline) 
   0      9    11.276    10.506    0.19E-04    0.17E-04    0.32E-07
   0      9    11.276     8.367    0.38E-04    0.40E-04    0.65E-07
   1      8    11.276     8.983    0.55E-04    0.98E-04    0.20E-06
 Optimization of the real space projectors (new method)

 maximal supplied QI-value         = 15.12
 optimisation between [QCUT,QGAM] = [ 11.34, 22.83] = [ 36.00,145.93] Ry 
 Optimized for a Real-space Cutoff    1.56 Angstroem

   l    n(q)    QCUT    max X(q) W(low)/X(q) W(high)/X(q)  e(spline) 
   1     10    11.338     4.216    0.27E-04    0.12E-04    0.66E-07
   1     10    11.338     5.422    0.81E-04    0.24E-04    0.19E-06
   2     10    11.338    72.084    0.64E-04    0.21E-03    0.51E-06
   2     10    11.338    65.965    0.63E-04    0.21E-03    0.50E-06
   0     11    11.338    41.531    0.33E-04    0.54E-04    0.13E-06
   0     11    11.338    16.290    0.26E-04    0.41E-04    0.11E-06
 Optimization of the real space projectors (new method)

 maximal supplied QI-value         = 24.76
 optimisation between [QCUT,QGAM] = [ 11.39, 22.77] = [ 36.31,145.25] Ry 
 Optimized for a Real-space Cutoff    1.20 Angstroem

   l    n(q)    QCUT    max X(q) W(low)/X(q) W(high)/X(q)  e(spline) 
   0      8    11.387    20.381    0.89E-04    0.31E-03    0.27E-06
   0      8    11.387    15.268    0.93E-04    0.32E-03    0.29E-06
   1      8    11.387     5.964    0.53E-04    0.28E-03    0.29E-06
   1      8    11.387     5.382    0.37E-04    0.22E-03    0.26E-06
 Optimization of the real space projectors (new method)

 maximal supplied QI-value         = 24.76
 optimisation between [QCUT,QGAM] = [ 11.39, 22.77] = [ 36.31,145.25] Ry 
 Optimized for a Real-space Cutoff    1.20 Angstroem

   l    n(q)    QCUT    max X(q) W(low)/X(q) W(high)/X(q)  e(spline) 
   0      8    11.387    14.049    0.69E-04    0.23E-03    0.18E-06
   0      8    11.387     8.945    0.88E-04    0.30E-03    0.26E-06
   1      8    11.387     7.086    0.62E-04    0.27E-03    0.27E-06
   1      8    11.387     6.747    0.46E-04    0.23E-03    0.25E-06

 ----------------------------------------------------------------------------- 
|                                                                             |
|  ADVICE TO THIS USER RUNNING 'VASP/VAMP'   (HEAR YOUR MASTER'S VOICE ...):  |
|                                                                             |
|      You enforced a specific xc-type in the INCAR file,                     |
|      a different type was found on the POTCAR file                          |
|          I HOPE YOU KNOW, WHAT YOU ARE  DOING                               |
|                                                                             |
 ----------------------------------------------------------------------------- 

  PAW_PBE Li_sv 10Sep2004               :
 energy of atom  1       EATOM= -202.7858
 kinetic energy error for atom=    0.0143 (will be added to EATOM!!)
  PAW_PBE Ti_pv 07Sep2000               :
 energy of atom  2       EATOM=-1042.5995
 kinetic energy error for atom=    0.0024 (will be added to EATOM!!)
  PAW_PBE O 08Apr2002                   :
 energy of atom  3       EATOM= -432.3788
 kinetic energy error for atom=    0.0224 (will be added to EATOM!!)
  PAW_PBE F 08Apr2002                   :
 energy of atom  4       EATOM= -659.6475
 kinetic energy error for atom=    0.0354 (will be added to EATOM!!)
 
 
 POSCAR: config 40                               
  positions in direct lattice
  velocities in cartesian coordinates
 exchange correlation table for  LEXCH =       14
   RHO(1)=    0.500       N(1)  =     2000
   RHO(2)=  100.500       N(2)  =     4000

 VTST: version 3.2, (02/03/18)

 CHAIN: initializing optimizer
 
 OPT: Using VASP QUASI-newton optimizer
 CHAIN: Read ICHAIN            0
 
 POSCAR: config 40                               
  positions in direct lattice
  velocities in cartesian coordinates
 


--------------------------------------------------------------------------------------------------------


 ion  position               nearest neighbor table
   1  0.592  0.374  0.849-  99 2.04 182 2.15  70 2.20 150 2.22  17 2.86  31 2.88
   2  0.995  0.995  0.994- 118 1.87  68 1.88 103 1.89 171 2.03 212 2.05 130 2.05
   3  0.998  0.992  0.494- 119 1.81  67 1.82 172 1.95 193 1.97 131 2.01 213 2.09
   4  0.007  0.496  0.997-  89 1.84 117 1.86 138 1.94 132 1.99 214 2.01 194 2.04
   5  0.995  0.504  0.507-  66 1.83 104 1.84 215 1.93 223 2.00 173 2.02 137 2.03
   6  0.495  0.993  1.000- 101 1.83 121 1.85 140 1.95 133 1.98 174 2.02 216 2.06
   7  0.502  0.008  0.498- 112 1.78 191 1.92 134 1.92 139 1.93 175 1.94 225 2.05
   8  0.506  0.495  0.997- 120 1.88  90 1.89  70 1.91 192 2.02 135 2.03 217 2.05
   9  0.493  0.499  0.495- 102 1.81  69 1.85 224 1.99 218 2.00 136 2.05 176 2.06
  10  0.006  0.003  0.256-  91 1.83  67 1.86 219 1.95 227 1.97 130 2.00 197 2.06
  11  0.002  0.008  0.757-  68 1.80 113 1.84 177 1.95 198 2.00 131 2.06 228 2.07
  12  0.994  0.493  0.251- 107 1.83 122 1.86 137 1.93 132 1.97 220 2.01 178 2.03
  13  0.994  0.501  0.741-  66 1.83 108 1.83 226 1.93 221 1.98 138 2.02 179 2.05
  14  0.505  0.009  0.250- 114 1.83  92 1.84 133 1.94 139 1.99 195 2.00 231 2.07
  15  0.494  0.006  0.753- 115 1.78 105 1.84 140 1.95 134 2.02 180 2.05 232 2.07
  16  0.493  0.495  0.257-  69 1.83 106 1.84 229 1.96 222 2.01 135 2.03 181 2.04
  17  0.501  0.507  0.757- 116 1.83  70 1.84 196 1.96 182 2.02 136 2.03 230 2.06   1 2.86
  18  0.996  0.258  0.003- 117 1.82 110 1.88 141 1.97 146 1.97 183 2.01 212 2.02
  19  0.998  0.248  0.491-  74 1.78 213 1.91 184 1.94 202 1.95 223 1.95 142 2.01
  20  0.999  0.758  0.006- 118 1.80  71 1.86 203 1.95 185 1.98 148 2.05 214 2.07
  21  0.997  0.757  0.506- 119 1.83  72 1.83 204 1.95 186 1.97 147 2.02 215 2.04
  22  0.495  0.258  0.004- 120 1.82 109 1.84 150 1.95 143 1.99 216 2.06 187 2.07
  23  0.510  0.245  0.496-  93 1.81 144 1.89 112 1.91 149 1.96 224 1.99 199 2.03
  24  0.508  0.756  1.000-  94 1.83 121 1.84 152 1.94 145 1.99 200 2.02 217 2.04
  25  0.507  0.752  0.508-  73 1.80  95 1.83 225 1.97 218 1.98 201 2.02 151 2.08
  26  0.999  0.258  0.256- 122 1.80  74 1.88 209 1.96 188 1.97 141 2.00 219 2.02
  27  0.006  0.244  0.748- 113 1.81  96 1.84 142 1.97 146 1.99 210 2.03 226 2.07
  28  0.006  0.748  0.243-  71 1.82  97 1.84 220 1.95 227 1.98 147 2.05 211 2.06
  29  0.992  0.750  0.743- 111 1.83  72 1.84 228 1.94 221 1.99 148 2.02 189 2.04
  30  0.508  0.241  0.253-  98 1.83 114 1.83 143 1.95 149 1.97 229 2.03 205 2.04
  31  0.504  0.243  0.750- 115 1.92 144 2.04 150 2.04  99 2.05 230 2.06 206 2.06   1 2.88
  32  0.506  0.751  0.252- 100 1.79 151 1.93 231 1.94 145 1.95 222 1.95 207 2.00
  33  0.503  0.743  0.744-  73 1.83 116 1.85 190 1.94 208 1.97 232 2.01 152 2.04
  34  0.257  0.998  0.006-  75 1.84 101 1.86 246 1.94 233 1.97 171 2.02 157 2.04
  35  0.251  0.993  0.506-  76 1.83 128 1.83 172 1.96 191 2.00 156 2.03 234 2.03
  36  0.245  0.508  0.998- 123 1.82  89 1.84 159 1.94 153 1.97 192 2.03 245 2.04
  37  0.256  0.494  0.507-  77 1.86 127 1.88 102 1.89 173 2.05 158 2.05 235 2.06
  38  0.757  0.000  0.994- 103 1.80  81 1.86 249 1.97 236 1.97 154 2.06 174 2.06
  39  0.749  0.009  0.495- 124 1.83  80 1.83 193 1.94 155 1.99 175 2.00 250 2.06
  40  0.744  0.501  0.006-  90 1.81  78 1.86 237 1.96 247 1.98 194 2.03 161 2.05
  41  0.756  0.499  0.506-  79 1.84 104 1.85 248 1.96 238 1.99 176 2.02 160 2.03
  42  0.245  0.002  0.243-  75 1.84  91 1.85 239 1.94 252 1.97 156 2.03 195 2.06
  43  0.259  0.999  0.745- 105 1.82  76 1.85 253 1.94 240 1.98 157 2.02 177 2.06
  44  0.255  0.491  0.252- 129 1.83 106 1.84 158 1.93 153 1.97 241 2.04 178 2.04
  45  0.245  0.506  0.741-  77 1.79 125 1.84 179 1.95 196 2.01 251 2.03 159 2.06
  46  0.744  0.002  0.256-  92 1.85  80 1.86 256 1.95 242 1.96 154 1.99 197 2.00
  47  0.746  0.010  0.756- 126 1.82  81 1.83 180 1.96 198 1.98 155 2.06 257 2.09
  48  0.756  0.498  0.243-  78 1.82 107 1.85 243 1.96 254 1.96 181 2.02 160 2.05
  49  0.760  0.501  0.742- 108 1.82  79 1.83 255 1.94 244 1.98 161 2.04 182 2.10
  50  0.257  0.252  0.007- 109 1.85  82 1.86 245 1.94 233 1.97 168 2.02 183 2.05
  51  0.253  0.256  0.506- 127 1.82  83 1.84 199 1.98 184 2.03 167 2.05 234 2.05
  52  0.253  0.742  0.994- 123 1.82  86 1.83 200 1.95 185 1.97 162 2.03 246 2.04
  53  0.253  0.755  0.493-  85 1.83 128 1.86 201 1.96 186 1.99 235 2.01 163 2.04
  54  0.758  0.252  0.009- 110 1.81  84 1.87 236 1.94 247 1.97 170 2.03 187 2.05
  55  0.741  0.244  0.498- 124 1.83  93 1.84 169 1.95 164 1.96 248 2.03 202 2.06
  56  0.742  0.749  0.994-  94 1.82  88 1.83 249 1.95 237 1.96 203 2.02 165 2.04
  57  0.742  0.753  0.494-  95 1.82  87 1.85 250 1.95 238 1.97 166 2.01 204 2.04
  58  0.251  0.257  0.244- 129 1.82  82 1.83 205 1.97 188 2.01 167 2.03 239 2.04
  59  0.241  0.252  0.744-  83 1.85  96 1.85 251 1.95 240 1.99 206 2.00 168 2.05
  60  0.244  0.747  0.256-  97 1.83  85 1.84 241 1.94 252 1.98 162 2.03 207 2.06
  61  0.246  0.741  0.757- 125 1.82  86 1.84 189 1.94 208 1.99 163 2.03 253 2.04
  62  0.741  0.251  0.243-  84 1.80  98 1.84 254 1.94 242 1.95 209 2.06 169 2.08
  63  0.741  0.245  0.754-  99 1.79 126 1.85 170 1.97 164 2.04 210 2.07 255 2.08
  64  0.745  0.749  0.257-  87 1.82 100 1.90 243 1.94 256 1.95 211 1.98 165 2.02
  65  0.758  0.751  0.757- 111 1.82  88 1.84 257 1.93 244 2.00 166 2.05 190 2.05
  66  0.012  0.504  0.625-  13 1.83   5 1.83
  67  0.997  0.005  0.376-   3 1.82  10 1.86
  68  0.002  0.001  0.873-  11 1.80   2 1.88
  69  0.497  0.487  0.375-  16 1.83   9 1.85
  70  0.501  0.482  0.874-  17 1.84   8 1.91   1 2.20
  71  0.999  0.744  0.126-  28 1.82  20 1.86
  72  0.003  0.745  0.624-  21 1.83  29 1.84
  73  0.505  0.742  0.625-  25 1.80  33 1.83
  74  0.985  0.248  0.376-  19 1.78  26 1.88
  75  0.257  0.001  0.125-  42 1.84  34 1.84
  76  0.257  0.003  0.625-  35 1.83  43 1.85
  77  0.239  0.493  0.626-  45 1.79  37 1.86
  78  0.748  0.486  0.126-  48 1.82  40 1.86
  79  0.744  0.491  0.625-  49 1.83  41 1.84
  80  0.748  0.004  0.376-  39 1.83  46 1.86
  81  0.743  0.004  0.874-  47 1.83  38 1.86
  82  0.238  0.251  0.126-  58 1.83  50 1.86
  83  0.241  0.251  0.624-  51 1.84  59 1.85
  84  0.734  0.264  0.127-  62 1.80  54 1.87
  85  0.256  0.744  0.375-  53 1.83  60 1.84
  86  0.253  0.750  0.875-  52 1.83  61 1.84
  87  0.752  0.746  0.375-  64 1.82  57 1.85
  88  0.749  0.747  0.876-  56 1.83  65 1.84
  89  0.125  0.510  0.992-   4 1.84  36 1.84
  90  0.627  0.510  0.996-  40 1.81   8 1.89
  91  0.125  0.007  0.250-  10 1.83  42 1.85
  92  0.624  0.006  0.248-  14 1.84  46 1.85
  93  0.625  0.264  0.479-  23 1.81  55 1.84
  94  0.624  0.736  0.002-  56 1.82  24 1.83
  95  0.624  0.769  0.495-  57 1.82  25 1.83
  96  0.123  0.264  0.758-  27 1.84  59 1.85
  97  0.125  0.747  0.253-  60 1.83  28 1.84
  98  0.625  0.241  0.269-  30 1.83  62 1.84
  99  0.631  0.275  0.770-  63 1.79   1 2.04  31 2.05
 100  0.622  0.749  0.252-  32 1.79  64 1.90
 101  0.376  0.994  0.991-   6 1.83  34 1.86
 102  0.377  0.510  0.507-   9 1.81  37 1.89
 103  0.873  0.996  0.998-  38 1.80   2 1.89
 104  0.876  0.511  0.504-   5 1.84  41 1.85
 105  0.376  0.009  0.759-  43 1.82  15 1.84
 106  0.374  0.491  0.246-  44 1.84  16 1.84
 107  0.876  0.493  0.250-  12 1.83  48 1.85
 108  0.877  0.521  0.742-  49 1.82  13 1.83
 109  0.376  0.254  0.013-  22 1.84  50 1.85
 110  0.875  0.256  0.017-  54 1.81  18 1.88
 111  0.875  0.733  0.748-  65 1.82  29 1.83
 112  0.516  0.122  0.485-   7 1.78  23 1.91
 113  0.010  0.127  0.746-  27 1.81  11 1.84
 114  0.490  0.125  0.269-  14 1.83  30 1.83
 115  0.515  0.120  0.758-  15 1.78  31 1.92
 116  0.514  0.625  0.761-  17 1.83  33 1.85
 117  0.007  0.376  0.005-  18 1.82   4 1.86
 118  0.008  0.875  0.003-  20 1.80   2 1.87
 119  0.984  0.875  0.500-   3 1.81  21 1.83
 120  0.511  0.374  0.016-  22 1.82   8 1.88
 121  0.510  0.874  0.013-  24 1.84   6 1.85
 122  0.011  0.374  0.247-  26 1.80  12 1.86
 123  0.263  0.625  0.004-  36 1.82  52 1.82
 124  0.733  0.126  0.507-  55 1.83  39 1.83
 125  0.235  0.624  0.749-  61 1.82  45 1.84
 126  0.733  0.126  0.742-  47 1.82  63 1.85
 127  0.260  0.373  0.493-  51 1.82  37 1.88
 128  0.262  0.875  0.499-  35 1.83  53 1.86
 129  0.239  0.374  0.258-  58 1.82  44 1.83
 130  0.997  0.003  0.127-  10 2.00   2 2.05
 131  0.000  0.999  0.623-   3 2.01  11 2.06
 132  0.004  0.510  0.125-  12 1.97   4 1.99
 133  0.491  0.017  0.126-  14 1.94   6 1.98
 134  0.494  0.005  0.622-   7 1.92  15 2.02
 135  0.504  0.514  0.127-  16 2.03   8 2.03
 136  0.512  0.507  0.626-  17 2.03   9 2.05
 137  0.000  0.495  0.376-  12 1.93   5 2.03
 138  0.992  0.497  0.873-   4 1.94  13 2.02
 139  0.506  0.980  0.376-   7 1.93  14 1.99
 140  0.517  0.985  0.875-   6 1.95  15 1.95
 141  0.016  0.245  0.128-  18 1.97  26 2.00
 142  0.009  0.257  0.621-  27 1.97  19 2.01
 143  0.517  0.230  0.127-  30 1.95  22 1.99
 144  0.519  0.238  0.619-  23 1.89  31 2.04
 145  0.496  0.735  0.127-  32 1.95  24 1.99
 146  0.986  0.252  0.875-  18 1.97  27 1.99
 147  0.993  0.751  0.375-  21 2.02  28 2.05
 148  1.000  0.752  0.874-  29 2.02  20 2.05
 149  0.481  0.267  0.375-  23 1.96  30 1.97
 150  0.494  0.273  0.878-  22 1.95  31 2.04   1 2.22
 151  0.492  0.762  0.375-  32 1.93  25 2.08
 152  0.498  0.761  0.874-  24 1.94  33 2.04
 153  0.242  0.492  0.124-  36 1.97  44 1.97
 154  0.751  0.997  0.127-  46 1.99  38 2.06
 155  0.749  0.992  0.623-  39 1.99  47 2.06
 156  0.250  0.002  0.375-  35 2.03  42 2.03
 157  0.241  0.995  0.874-  43 2.02  34 2.04
 158  0.252  0.513  0.375-  44 1.93  37 2.05
 159  0.262  0.500  0.873-  36 1.94  45 2.06
 160  0.749  0.510  0.375-  41 2.03  48 2.05
 161  0.755  0.510  0.874-  49 2.04  40 2.05
 162  0.250  0.756  0.125-  60 2.03  52 2.03
 163  0.248  0.751  0.625-  61 2.03  53 2.04
 164  0.737  0.264  0.623-  55 1.96  63 2.04
 165  0.751  0.754  0.126-  64 2.02  56 2.04
 166  0.746  0.753  0.625-  57 2.01  65 2.05
 167  0.264  0.242  0.374-  58 2.03  51 2.05
 168  0.258  0.250  0.876-  50 2.02  59 2.05
 169  0.770  0.239  0.374-  55 1.95  62 2.08
 170  0.768  0.240  0.879-  63 1.97  54 2.03
 171  0.126  0.008  0.004-  34 2.02   2 2.03
 172  0.124  0.991  0.501-   3 1.95  35 1.96
 173  0.124  0.491  0.490-   5 2.02  37 2.05
 174  0.624  0.009  0.010-   6 2.02  38 2.06
 175  0.624  0.978  0.504-   7 1.94  39 2.00
 176  0.626  0.486  0.496-  41 2.02   9 2.06
 177  0.126  0.985  0.744-  11 1.95  43 2.06
 178  0.124  0.511  0.252-  12 2.03  44 2.04
 179  0.123  0.483  0.765-  45 1.95  13 2.05
 180  0.623  0.979  0.739-  47 1.96  15 2.05
 181  0.625  0.504  0.252-  48 2.02  16 2.04
 182  0.628  0.477  0.762-  17 2.02  49 2.10   1 2.15
 183  0.125  0.245  0.988-  18 2.01  50 2.05
 184  0.123  0.257  0.486-  19 1.94  51 2.03
 185  0.125  0.737  0.999-  52 1.97  20 1.98
 186  0.124  0.761  0.494-  21 1.97  53 1.99
 187  0.628  0.247  0.985-  54 2.05  22 2.07
 188  0.124  0.234  0.266-  26 1.97  58 2.01
 189  0.123  0.767  0.752-  61 1.94  29 2.04
 190  0.626  0.766  0.752-  33 1.94  65 2.05
 191  0.378  0.015  0.491-   7 1.92  35 2.00
 192  0.375  0.490  0.007-   8 2.02  36 2.03
 193  0.874  0.019  0.505-  39 1.94   3 1.97
 194  0.875  0.492  0.002-  40 2.03   4 2.04
 195  0.377  0.991  0.258-  14 2.00  42 2.06
 196  0.375  0.512  0.742-  17 1.96  45 2.01
 197  0.873  0.996  0.249-  46 2.00  10 2.06
 198  0.873  0.010  0.746-  47 1.98  11 2.00
 199  0.380  0.235  0.510-  51 1.98  23 2.03
 200  0.377  0.762  0.003-  52 1.95  24 2.02
 201  0.378  0.735  0.504-  53 1.96  25 2.02
 202  0.874  0.239  0.514-  19 1.95  55 2.06
 203  0.872  0.762  0.000-  20 1.95  56 2.02
 204  0.872  0.734  0.505-  21 1.95  57 2.04
 205  0.378  0.260  0.236-  58 1.97  30 2.04
 206  0.370  0.237  0.742-  59 2.00  31 2.06
 207  0.377  0.753  0.246-  32 2.00  60 2.06
 208  0.375  0.738  0.748-  33 1.97  61 1.99
 209  0.874  0.261  0.236-  26 1.96  62 2.06
 210  0.875  0.243  0.737-  27 2.03  63 2.07
 211  0.873  0.752  0.248-  64 1.98  28 2.06
 212  0.998  0.127  0.000-  18 2.02   2 2.05
 213  0.010  0.126  0.507-  19 1.91   3 2.09
 214  0.988  0.625  0.994-   4 2.01  20 2.07
 215  0.012  0.627  0.491-   5 1.93  21 2.04
 216  0.499  0.126  0.987-   6 2.06  22 2.06
 217  0.486  0.626  0.990-  24 2.04   8 2.05
 218  0.515  0.626  0.488-  25 1.98   9 2.00
 219  0.987  0.128  0.247-  10 1.95  26 2.02
 220  0.994  0.623  0.259-  28 1.95  12 2.01
 221  0.021  0.625  0.757-  13 1.98  29 1.99
 222  0.496  0.625  0.264-  32 1.95  16 2.01
 223  0.991  0.374  0.500-  19 1.95   5 2.00
 224  0.488  0.371  0.513-   9 1.99  23 1.99
 225  0.482  0.877  0.507-  25 1.97   7 2.05
 226  0.983  0.376  0.748-  13 1.93  27 2.07
 227  1.000  0.876  0.250-  10 1.97  28 1.98
 228  0.985  0.875  0.746-  29 1.94  11 2.07
 229  0.510  0.371  0.235-  16 1.96  30 2.03
 230  0.492  0.375  0.738-  31 2.06  17 2.06
 231  0.501  0.875  0.236-  32 1.94  14 2.07
 232  0.488  0.873  0.744-  33 2.01  15 2.07
 233  0.253  0.125  0.994-  34 1.97  50 1.97
 234  0.241  0.124  0.497-  35 2.03  51 2.05
 235  0.239  0.626  0.506-  53 2.01  37 2.06
 236  0.751  0.127  0.011-  54 1.94  38 1.97
 237  0.767  0.625  0.010-  40 1.96  56 1.96
 238  0.734  0.626  0.506-  57 1.97  41 1.99
 239  0.263  0.126  0.251-  42 1.94  58 2.04
 240  0.235  0.124  0.756-  43 1.98  59 1.99
 241  0.256  0.623  0.239-  60 1.94  44 2.04
 242  0.762  0.127  0.242-  62 1.95  46 1.96
 243  0.752  0.624  0.241-  64 1.94  48 1.96
 244  0.729  0.625  0.744-  49 1.98  65 2.00
 245  0.244  0.376  0.996-  50 1.94  36 2.04
 246  0.239  0.873  0.002-  34 1.94  52 2.04
 247  0.741  0.375  0.981-  54 1.97  40 1.98
 248  0.764  0.373  0.488-  41 1.96  55 2.03
 249  0.737  0.875  0.002-  56 1.95  38 1.97
 250  0.769  0.877  0.498-  57 1.95  39 2.06
 251  0.264  0.376  0.756-  59 1.95  45 2.03
 252  0.249  0.875  0.253-  42 1.97  60 1.98
 253  0.261  0.873  0.747-  43 1.94  61 2.04
 254  0.743  0.374  0.271-  62 1.94  48 1.96
 255  0.772  0.377  0.762-  49 1.94  63 2.08
 256  0.748  0.875  0.251-  64 1.95  46 1.95
 257  0.764  0.875  0.750-  65 1.93  47 2.09
 

IMPORTANT INFORMATION: All symmetrisations will be switched off!
NOSYMM: (Re-)initialisation of all symmetry stuff for point group C_1.

 
 
 KPOINTS: Title                                   

Automatic generation of k-mesh.
Space group operators:
 irot       det(A)        alpha          n_x          n_y          n_z        tau_x        tau_y        tau_z
    1     1.000000     0.000001     1.000000     0.000000     0.000000     0.000000     0.000000     0.000000
 
 Subroutine IBZKPT returns following result:
 ===========================================
 
 Found      4 irreducible k-points:
 
 Following reciprocal coordinates:
            Coordinates               Weight
  0.250000  0.250000  0.250000      2.000000
 -0.250000  0.250000  0.250000      2.000000
  0.250000 -0.250000  0.250000      2.000000
 -0.250000 -0.250000  0.250000      2.000000
 
 Following cartesian coordinates:
            Coordinates               Weight
  0.016206  0.016206  0.016206      2.000000
 -0.016206  0.016206  0.016206      2.000000
  0.016206 -0.016206  0.016206      2.000000
 -0.016206 -0.016206  0.016206      2.000000
 


--------------------------------------------------------------------------------------------------------




 Dimension of arrays:
   k-points           NKPTS =      4   k-points in BZ     NKDIM =      4   number of bands    NBANDS=   1164
   number of dos      NEDOS =   3001   number of ions     NIONS =    257
   non local maximal  LDIM  =      6   non local SUM 2l+1 LMDIM =     18
   total plane-waves  NPLWV = ******
   max r-space proj   IRMAX =   7595   max aug-charges    IRDMAX= 146383
   dimension x,y,z NGX =   120 NGY =  120 NGZ =  120
   dimension x,y,z NGXF=   240 NGYF=  240 NGZF=  240
   support grid    NGXF=   480 NGYF=  480 NGZF=  480
   ions per type =               1  64  64 128
   NGX,Y,Z   is equivalent  to a cutoff of  12.93, 12.93, 12.93 a.u.
   NGXF,Y,Z  is equivalent  to a cutoff of  25.86, 25.86, 25.86 a.u.

 SYSTEM =  LTO                                     
 POSCAR =  config 40                               

 Startparameter for this run:
   NWRITE =      2    write-flag & timer
   PREC   = accura    normal or accurate (medium, high low for compatibility)
   ISTART =      1    job   : 0-new  1-cont  2-samecut
   ICHARG =      0    charge: 1-file 2-atom 10-const
   ISPIN  =      2    spin polarized calculation?
   LNONCOLLINEAR =      F non collinear calculations
   LSORBIT =      F    spin-orbit coupling
   INIWAV =      1    electr: 0-lowe 1-rand  2-diag
   LASPH  =      T    aspherical Exc in radial PAW
   METAGGA=      F    non-selfconsistent MetaGGA calc.

 Electronic Relaxation 1
   ENCUT  =  500.0 eV  36.75 Ry    6.06 a.u.  28.13 28.13 28.13*2*pi/ulx,y,z
   ENINI  =  500.0     initial cutoff
   ENAUG  =  628.9 eV  augmentation charge cutoff
   NELM   =     60;   NELMIN=  2; NELMDL=  0     # of ELM steps 
   EDIFF  = 0.1E-05   stopping-criterion for ELM
   LREAL  =      T    real-space projection
   NLSPLINE    = F    spline interpolate recip. space projectors
   LCOMPAT=      F    compatible to vasp.4.4
   GGA_COMPAT  = T    GGA compatible to vasp.4.4-vasp.4.6
   LMAXPAW     = -100 max onsite density
   LMAXMIX     =    4 max onsite mixed and CHGCAR
   VOSKOWN=      0    Vosko Wilk Nusair interpolation
   ROPT   =   -0.00010  -0.00010  -0.00010  -0.00010
 Ionic relaxation
   EDIFFG = -.5E-01   stopping-criterion for IOM
   NSW    =    100    number of steps for IOM
   NBLOCK =      1;   KBLOCK =    100    inner block; outer block 
   IBRION =      1    ionic relax: 0-MD 1-quasi-New 2-CG
   NFREE  =      0    steps in history (QN), initial steepest desc. (CG)
   ISIF   =      2    stress and relaxation
   IWAVPR =     11    prediction:  0-non 1-charg 2-wave 3-comb
   ISYM   =      0    0-nonsym 1-usesym 2-fastsym
   LCORR  =      T    Harris-Foulkes like correction to forces

   POTIM  = 0.5000    time-step for ionic-motion
   TEIN   =    0.0    initial temperature
   TEBEG  =    0.0;   TEEND  =   0.0 temperature during run
   SMASS  =  -3.00    Nose mass-parameter (am)
   estimated Nose-frequenzy (Omega)   =  0.10E-29 period in steps =****** mass=  -0.544E-26a.u.
   SCALEE = 1.0000    scale energy and forces
   NPACO  =    256;   APACO  = 16.0  distance and # of slots for P.C.
   PSTRESS=    0.0 pullay stress

  Mass of Ions in am
   POMASS =   7.01 47.88 16.00 19.00
  Ionic Valenz
   ZVAL   =   3.00 10.00  6.00  7.00
  Atomic Wigner-Seitz radii
   RWIGS  =  -1.00 -1.00 -1.00 -1.00
  virtual crystal weights 
   VCA    =   1.00  1.00  1.00  1.00
   NELECT =    1923.0000    total number of electrons
   NUPDOWN=       1.0000    fix difference up-down

 DOS related values:
   EMIN   =  10.00;   EMAX   =-10.00  energy-range for DOS
   EFERMI =   0.00
   ISMEAR =     0;   SIGMA  =   0.01  broadening in eV -4-tet -1-fermi 0-gaus

 Electronic relaxation 2 (details)
   IALGO  =     38    algorithm
   LDIAG  =      T    sub-space diagonalisation (order eigenvalues)
   LSUBROT=      F    optimize rotation matrix (better conditioning)
   TURBO    =      0    0=normal 1=particle mesh
   IRESTART =      0    0=no restart 2=restart with 2 vectors
   NREBOOT  =      0    no. of reboots
   NMIN     =      0    reboot dimension
   EREF     =   0.00    reference energy to select bands
   IMIX   =      4    mixing-type and parameters
     AMIX     =   0.40;   BMIX     =  1.00
     AMIX_MAG =   1.60;   BMIX_MAG =  1.00
     AMIN     =   0.10
     WC   =   100.;   INIMIX=   1;  MIXPRE=   1;  MAXMIX= -45

 Intra band minimization:
   WEIMIN = 0.0010     energy-eigenvalue tresh-hold
   EBREAK =  0.21E-09  absolut break condition
   DEPER  =   0.30     relativ break condition  

   TIME   =   0.40     timestep for ELM

  volume/ion in A,a.u.               =      14.28        96.39
  Fermi-wavevector in a.u.,A,eV,Ry     =   1.319690  2.493853 23.695660  1.741582
  Thomas-Fermi vector in A             =   2.449570
 
 Write flags
   LWAVE        =      T    write WAVECAR
   LDOWNSAMPLE  =      F    k-point downsampling of WAVECAR
   LCHARG       =      T    write CHGCAR
   LVTOT        =      F    write LOCPOT, total local potential
   LVHAR        =      F    write LOCPOT, Hartree potential only
   LELF         =      F    write electronic localiz. function (ELF)
   LORBIT       =     11    0 simple, 1 ext, 2 COOP (PROOUT), +10 PAW based schemes


 Dipole corrections
   LMONO  =      F    monopole corrections only (constant potential shift)
   LDIPOL =      F    correct potential (dipole corrections)
   IDIPOL =      0    1-x, 2-y, 3-z, 4-all directions 
   EPSILON=  1.0000000 bulk dielectric constant

 LDA+U is selected, type is set to LDAUTYPE =  2
   angular momentum for each species LDAUL =    -1    2   -1   -1
   U (eV)           for each species LDAUU =   0.0  4.2  0.0  0.0
   J (eV)           for each species LDAUJ =   0.0  0.0  0.0  0.0
 Exchange correlation treatment:
   GGA     =    PS    GGA type
   LEXCH   =    14    internal setting for exchange type
   VOSKOWN=      0    Vosko Wilk Nusair interpolation
   LHFCALC =     F    Hartree Fock is set to
   LHFONE  =     F    Hartree Fock one center treatment
   AEXX    =    0.0000 exact exchange contribution

 Linear response parameters
   LEPSILON=     F    determine dielectric tensor
   LRPA    =     F    only Hartree local field effects (RPA)
   LNABLA  =     F    use nabla operator in PAW spheres
   LVEL    =     F    velocity operator in full k-point grid
   LINTERFAST=   F  fast interpolation
   KINTER  =     0    interpolate to denser k-point grid
   CSHIFT  =0.1000    complex shift for real part using Kramers Kronig
   OMEGAMAX=  -1.0    maximum frequency
   DEG_THRESHOLD= 0.2000000E-02 threshold for treating states as degnerate
   RTIME   =   -0.100 relaxation time in fs
  (WPLASMAI=    0.000 imaginary part of plasma frequency in eV, 0.658/RTIME)
   DFIELD  = 0.0000000 0.0000000 0.0000000 field for delta impulse in time
 
 Orbital magnetization related:
   ORBITALMAG=     F  switch on orbital magnetization
   LCHIMAG   =     F  perturbation theory with respect to B field
   DQ        =  0.001000  dq finite difference perturbation B field
   LLRAUG    =     F  two centre corrections for induced B field



--------------------------------------------------------------------------------------------------------


 quasi-Newton-method for relaxation of ions
 charge density and potential will be updated during run
 spin polarized calculation
 Variant of blocked Davidson
 Davidson routine will perform the subspace rotation
 perform sub-space diagonalisation
    after iterative eigenvector-optimisation
 modified Broyden-mixing scheme, WC =      100.0
 initial mixing is a Kerker type mixing with AMIX =  0.4000 and BMIX =      1.0000
 Hartree-type preconditioning will be used
 using additional bands          202
 real space projection scheme for non local part
 use partial core corrections
 calculate Harris-corrections to forces 
   (improved forces if not selfconsistent)
 use gradient corrections 
 use of overlap-Matrix (Vanderbilt PP)
 Gauss-broadening in eV      SIGMA  =   0.01


--------------------------------------------------------------------------------------------------------


  energy-cutoff  :      500.00
  volume of cell :     3671.03
      direct lattice vectors                 reciprocal lattice vectors
    15.426331000  0.000000000  0.000000000     0.064824228  0.000000000  0.000000000
     0.000000000 15.426331000  0.000000000     0.000000000  0.064824228  0.000000000
     0.000000000  0.000000000 15.426331000     0.000000000  0.000000000  0.064824228

  length of vectors
    15.426331000 15.426331000 15.426331000     0.064824228  0.064824228  0.064824228


 
 old parameters found on file WAVECAR:
  energy-cutoff  :      500.00
  volume of cell :     3671.03
      direct lattice vectors                 reciprocal lattice vectors
    15.426331000  0.000000000  0.000000000     0.064824228  0.000000000  0.000000000
     0.000000000 15.426331000  0.000000000     0.000000000  0.064824228  0.000000000
     0.000000000  0.000000000 15.426331000     0.000000000  0.000000000  0.064824228

  length of vectors

 
 k-points in units of 2pi/SCALE and weight: Title                                   
   0.01620606  0.01620606  0.01620606       0.250
  -0.01620606  0.01620606  0.01620606       0.250
   0.01620606 -0.01620606  0.01620606       0.250
  -0.01620606 -0.01620606  0.01620606       0.250
 
 k-points in reciprocal lattice and weights: Title                                   
   0.25000000  0.25000000  0.25000000       0.250
  -0.25000000  0.25000000  0.25000000       0.250
   0.25000000 -0.25000000  0.25000000       0.250
  -0.25000000 -0.25000000  0.25000000       0.250
 
 position of ions in fractional coordinates (direct lattice) 
   0.59185332  0.37439323  0.84892597
   0.99541652  0.99494800  0.99413674
   0.99792894  0.99163658  0.49352089
   0.00733155  0.49612296  0.99719578
   0.99499806  0.50389052  0.50749793
   0.49473168  0.99290203  0.99978290
   0.50154632  0.00829805  0.49769353
   0.50576252  0.49458915  0.99690268
   0.49278007  0.49851248  0.49466005
   0.00646656  0.00320313  0.25569897
   0.00246616  0.00788461  0.75655687
   0.99426191  0.49294846  0.25127249
   0.99351432  0.50097882  0.74142364
   0.50515167  0.00871364  0.25017399
   0.49443177  0.00640938  0.75254612
   0.49298511  0.49532147  0.25699828
   0.50121061  0.50732968  0.75714107
   0.99608297  0.25821020  0.00262694
   0.99755930  0.24832619  0.49137353
   0.99851056  0.75808023  0.00638672
   0.99655409  0.75708118  0.50611817
   0.49486167  0.25776117  0.00355464
   0.51013173  0.24514196  0.49635568
   0.50775894  0.75590100  0.99989609
   0.50742716  0.75241990  0.50848705
   0.99904423  0.25816895  0.25566115
   0.00607361  0.24384583  0.74837280
   0.00646557  0.74783581  0.24335360
   0.99219685  0.75012085  0.74321074
   0.50763713  0.24071204  0.25277127
   0.50370069  0.24311709  0.74976065
   0.50618691  0.75081367  0.25151722
   0.50289647  0.74336904  0.74378562
   0.25659704  0.99762120  0.00561330
   0.25102438  0.99315733  0.50645410
   0.24487870  0.50830335  0.99751937
   0.25573354  0.49384528  0.50677929
   0.75650860  0.00030604  0.99350872
   0.74892909  0.00868051  0.49479529
   0.74367039  0.50075338  0.00629702
   0.75626859  0.49878388  0.50626311
   0.24457298  0.00204303  0.24342031
   0.25880354  0.99878194  0.74456588
   0.25543761  0.49126137  0.25172915
   0.24534661  0.50594373  0.74136184
   0.74388807  0.00153790  0.25558877
   0.74554123  0.00957343  0.75554090
   0.75597022  0.49760327  0.24330444
   0.76037575  0.50070329  0.74237293
   0.25667881  0.25176190  0.00677119
   0.25342712  0.25638623  0.50570347
   0.25251852  0.74207609  0.99392532
   0.25260098  0.75504772  0.49299388
   0.75815271  0.25192482  0.00937344
   0.74113566  0.24354655  0.49751241
   0.74170248  0.74867616  0.99415275
   0.74161428  0.75315977  0.49417037
   0.25056344  0.25723556  0.24379070
   0.24136839  0.25245421  0.74405033
   0.24363821  0.74697996  0.25606966
   0.24649257  0.74145294  0.75656041
   0.74072991  0.25121781  0.24340935
   0.74142899  0.24532600  0.75369000
   0.74524411  0.74923303  0.25701378
   0.75824197  0.75060635  0.75680345
   0.01218676  0.50370020  0.62461613
   0.99711570  0.00490382  0.37597795
   0.00233785  0.00065931  0.87283401
   0.49711604  0.48672920  0.37519527
   0.50117141  0.48156567  0.87377821
   0.99942171  0.74426745  0.12586152
   0.00303030  0.74508964  0.62425696
   0.50452405  0.74231608  0.62487355
   0.98526736  0.24816730  0.37648855
   0.25688724  0.00115632  0.12508971
   0.25702711  0.00325030  0.62454339
   0.23895106  0.49345545  0.62605775
   0.74800714  0.48601564  0.12597111
   0.74416273  0.49139115  0.62495977
   0.74783848  0.00445590  0.37597989
   0.74256873  0.00395568  0.87408341
   0.23824502  0.25052639  0.12577468
   0.24082273  0.25128293  0.62421066
   0.73368367  0.26372663  0.12734974
   0.25565892  0.74403449  0.37474858
   0.25252352  0.75032011  0.87530515
   0.75229684  0.74634259  0.37460701
   0.74934428  0.74658641  0.87568006
   0.12546219  0.50986131  0.99151289
   0.62724558  0.51037214  0.99578716
   0.12502345  0.00685654  0.24953442
   0.62407584  0.00627419  0.24763853
   0.62497815  0.26372914  0.47904924
   0.62444890  0.73561665  0.00232455
   0.62435855  0.76878276  0.49519363
   0.12290702  0.26436422  0.75820294
   0.12506225  0.74674688  0.25315420
   0.62492234  0.24065511  0.26917709
   0.63086375  0.27507126  0.77043932
   0.62237382  0.74883176  0.25180322
   0.37635640  0.99406392  0.99062129
   0.37689385  0.51044312  0.50709410
   0.87275885  0.99574291  0.99755952
   0.87573576  0.51072654  0.50356805
   0.37554543  0.00940437  0.75913186
   0.37442445  0.49121925  0.24565114
   0.87565870  0.49252968  0.24967565
   0.87666209  0.52126927  0.74209224
   0.37612680  0.25362839  0.01262056
   0.87498100  0.25595049  0.01684316
   0.87473558  0.73273923  0.74788088
   0.51636219  0.12176182  0.48498175
   0.01043127  0.12656288  0.74633491
   0.49032890  0.12458662  0.26910087
   0.51525679  0.11975759  0.75762901
   0.51375801  0.62538709  0.76063392
   0.00685725  0.37588164  0.00484926
   0.00796421  0.87462002  0.00278833
   0.98412878  0.87499127  0.49970801
   0.51121050  0.37421537  0.01607445
   0.50954851  0.87443282  0.01338243
   0.01105632  0.37382150  0.24735172
   0.26252455  0.62478244  0.00431561
   0.73255794  0.12572376  0.50734941
   0.23465005  0.62429439  0.74907343
   0.73347752  0.12597203  0.74171235
   0.26040494  0.37314574  0.49281494
   0.26180730  0.87500414  0.49874401
   0.23902532  0.37399008  0.25823686
   0.99745088  0.00338898  0.12663732
   0.00007236  0.99913400  0.62344803
   0.00382457  0.50968230  0.12518797
   0.49050052  0.01695152  0.12584994
   0.49448940  0.00496008  0.62173454
   0.50439891  0.51427720  0.12725188
   0.51220740  0.50723544  0.62574887
   0.00021746  0.49493083  0.37636040
   0.99218932  0.49697547  0.87256957
   0.50563141  0.97961337  0.37574964
   0.51661774  0.98525684  0.87536970
   0.01642410  0.24491407  0.12795142
   0.00914563  0.25706846  0.62110168
   0.51739783  0.22993135  0.12741553
   0.51864537  0.23782960  0.61856931
   0.49637239  0.73486551  0.12673632
   0.98566401  0.25248721  0.87515981
   0.99264925  0.75125910  0.37539817
   0.99976063  0.75159375  0.87394531
   0.48055034  0.26736401  0.37466381
   0.49390967  0.27348084  0.87815457
   0.49158708  0.76217784  0.37523600
   0.49769294  0.76100012  0.87446827
   0.24235564  0.49182895  0.12441398
   0.75083543  0.99685412  0.12669438
   0.74934529  0.99207519  0.62293657
   0.24980064  0.00189591  0.37513043
   0.24061259  0.99477825  0.87436098
   0.25209970  0.51272078  0.37513705
   0.26196477  0.49976031  0.87347817
   0.74933908  0.51027149  0.37528075
   0.75548803  0.50965483  0.87429487
   0.25043732  0.75562936  0.12501096
   0.24758639  0.75139517  0.62513354
   0.73741276  0.26413372  0.62307310
   0.75105235  0.75363168  0.12613082
   0.74616696  0.75335389  0.62466369
   0.26350742  0.24243500  0.37389799
   0.25843744  0.25018196  0.87580037
   0.76994380  0.23928207  0.37447775
   0.76796862  0.23970687  0.87855960
   0.12620599  0.00767094  0.00446273
   0.12434104  0.99054911  0.50080004
   0.12417505  0.49113892  0.48989807
   0.62417015  0.00866443  0.01045901
   0.62355608  0.97771530  0.50439294
   0.62606770  0.48647466  0.49580640
   0.12624009  0.98524720  0.74386119
   0.12447182  0.51096460  0.25238531
   0.12314730  0.48290557  0.76451600
   0.62347885  0.97938867  0.73853108
   0.62517929  0.50395062  0.25241371
   0.62812648  0.47683592  0.76207142
   0.12497687  0.24492144  0.98817628
   0.12319071  0.25666984  0.48625829
   0.12514017  0.73748906  0.99946871
   0.12395932  0.76131016  0.49438642
   0.62752013  0.24674612  0.98457254
   0.12439598  0.23442582  0.26562728
   0.12312255  0.76662591  0.75244361
   0.62624635  0.76586584  0.75175104
   0.37775926  0.01529105  0.49089201
   0.37511915  0.48965325  0.00698314
   0.87385547  0.01921771  0.50532079
   0.87511938  0.49186869  0.00212256
   0.37699720  0.99117967  0.25780706
   0.37535686  0.51163506  0.74151944
   0.87317533  0.99553379  0.24906757
   0.87331171  0.01030488  0.74608701
   0.37990087  0.23468204  0.50991186
   0.37672484  0.76212023  0.00298960
   0.37777066  0.73521923  0.50367679
   0.87380023  0.23940613  0.51433394
   0.87198879  0.76155447  0.00019235
   0.87200882  0.73372657  0.50494958
   0.37819937  0.26011571  0.23565196
   0.37041034  0.23715967  0.74180059
   0.37667035  0.75275956  0.24607938
   0.37527954  0.73789264  0.74757666
   0.87376928  0.26078868  0.23643358
   0.87488559  0.24265921  0.73729883
   0.87316352  0.75215546  0.24841445
   0.99750602  0.12738434  0.00026856
   0.00957658  0.12584838  0.50703695
   0.98780014  0.62508250  0.99351635
   0.01201053  0.62683874  0.49123785
   0.49933950  0.12550970  0.98666835
   0.48610431  0.62571460  0.98967769
   0.51543196  0.62621492  0.48826725
   0.98746810  0.12788407  0.24691932
   0.99361975  0.62297409  0.25872494
   0.02130499  0.62514340  0.75665042
   0.49562388  0.62547703  0.26370053
   0.99067103  0.37426485  0.50022094
   0.48827035  0.37118476  0.51332858
   0.48154063  0.87725564  0.50748762
   0.98310022  0.37634193  0.74783254
   0.99967653  0.87582703  0.25004275
   0.98540378  0.87543534  0.74630100
   0.50962649  0.37105189  0.23491599
   0.49190354  0.37548350  0.73814565
   0.50101256  0.87549824  0.23571589
   0.48843459  0.87258691  0.74361686
   0.25305632  0.12471409  0.99447816
   0.24060701  0.12425112  0.49677533
   0.23855008  0.62603815  0.50625112
   0.75060274  0.12653824  0.01117154
   0.76687685  0.62530878  0.01027382
   0.73429438  0.62595203  0.50619356
   0.26339998  0.12608598  0.25123910
   0.23451515  0.12423697  0.75581377
   0.25588864  0.62301304  0.23877926
   0.76212259  0.12667195  0.24155346
   0.75238799  0.62441356  0.24108071
   0.72892051  0.62519570  0.74405602
   0.24367830  0.37608559  0.99592019
   0.23929974  0.87334618  0.00181155
   0.74149292  0.37505596  0.98109709
   0.76430890  0.37292729  0.48836000
   0.73650292  0.87475098  0.00184963
   0.76859775  0.87671123  0.49804159
   0.26449789  0.37627117  0.75593739
   0.24911444  0.87503269  0.25298021
   0.26147748  0.87279206  0.74688105
   0.74255777  0.37410028  0.27051702
   0.77163289  0.37674958  0.76155758
   0.74806676  0.87525977  0.25070176
   0.76424041  0.87535620  0.75049601
 
 position of ions in cartesian coordinates  (Angst):
   9.13012520  5.77551389 13.09581303
  15.35562469 15.34839719 15.33588248
  15.39438221 15.29731405  7.61321659
   0.11309891  7.65335699 15.38307214
  15.34916938  7.77318201  7.82883108
   7.63189465 15.31683534 15.42298200
   7.73701951  0.12800839  7.67758519
   7.80205999  7.62969601 15.37855077
   7.60178847  7.69021850  7.63078960
   0.09975537  0.04941258  3.94449692
   0.03804387  0.12163067 11.67089668
  15.33781338  7.60438615  3.87621261
  15.32628070  7.72826503 11.43744650
   7.79263694  0.13441944  3.85926681
   7.62726814  0.09887316 11.60902554
   7.60495154  7.64099299  3.96454051
   7.73184082  7.82623556 11.67990870
  15.36590561  3.98323598  0.04052398
  15.38867998  3.83076200  7.58009071
  15.40335435 11.69439655  0.09852369
  15.37317325 11.67898484  7.80754649
   7.63389999  3.97630908  0.05483509
   7.86946085  3.78164103  7.65694706
   7.83285754 11.66077909 15.42472805
   7.82773941 11.60707841  7.84408958
  15.41158695  3.98259967  3.94391349
   0.09369352  3.76164654 11.54464659
   0.09974004 11.53636274  3.75405314
  15.30595703 11.57161246 11.46501482
   7.83097832  3.71330361  3.89933329
   7.77025360  3.75040470 11.56605594
   7.80860683 11.58230015  3.87998790
   7.75784742 11.46745681 11.47388310
   3.95835080 15.38963481  0.08659260
   3.87238521 15.32077365  7.81272851
   3.77757995  7.84125565 15.38806392
   3.94503018  7.61822081  7.81774506
  11.67015206  0.00472106 15.32619433
  11.55322808  0.13390841  7.63287599
  11.47210555  7.72478739  0.09713997
  11.66644967  7.69440520  7.80978235
   3.77286378  0.03151644  3.75508226
   3.99238906 15.40754081 11.48591974
   3.94046518  7.57836053  3.88325716
   3.78479796  7.80485551 11.43649319
  11.47546353  0.02372418  3.94279698
  11.50096576  0.14768290 11.65522404
  11.66184679  7.67619272  3.75329477
  11.72980804  7.72401468 11.45209056
   3.95961224  3.88376239  0.10445465
   3.90945068  3.95509880  7.80114918
   3.89543422 11.44751141 15.33262091
   3.89670629 11.64761612  7.60508682
  11.69551464  3.88627572  0.14459775
  11.43300396  3.75702975  7.67479119
  11.44174795 11.54932621 15.33612941
  11.44038734 11.61849195  7.62323566
   3.86527450  3.96820096  3.76079597
   3.72342864  3.89444215 11.47796665
   3.75844374 11.52316014  3.95021538
   3.80247595 11.43789847 11.67095132
  11.42674474  3.87536906  3.75491325
  11.43752906  3.78448006 11.62667140
  11.49638239 11.55791673  3.96477962
  11.69689158 11.57910207 11.67470060
   0.18799693  7.77024603  9.63553512
  15.38183688  0.07564802  5.79996024
   0.03606442  0.01017072 13.46462635
   7.66867665  7.50844580  5.78788644
   7.73123607  7.42879146 13.47919187
  15.41741008 11.48131609  1.94158151
   0.04674647 11.49399943  9.62999451
   7.78295504 11.45121355  9.63950616
  15.19906038  3.82831086  5.80783706
   3.96282760  0.01783775  1.92967535
   3.96498535  0.05014019  9.63441307
   3.68613814  7.61220706  9.65777412
  11.53900570  7.49743810  1.94327210
  11.47970066  7.58036249  9.64083622
  11.53640391  0.06873812  5.79999025
  11.45511110  0.06102163 13.48390006
   3.67524658  3.86470298  1.94024191
   3.71501110  3.87637371  9.62928025
  11.31804721  4.06833434  1.96453930
   3.94387915 11.47772227  5.78099561
   3.89551145 11.57468630 13.50274693
  11.60518011 11.51332791  5.77881177
  11.55963296 11.51708913 13.50853049
   1.93542120  7.86528931 15.29540605
   9.67609793  7.87316962 15.36134236
   1.92865308  0.10577120  3.84940060
   9.62720045  0.09678769  3.82015387
   9.64111980  4.06837307  7.38997210
   9.63295536 11.34786587  0.03585935
   9.63156168 11.85949728  7.63902077
   1.89600437  4.07817001 11.69628948
   1.92925168 11.51956448  3.90524042
   9.64025881  3.71242537  4.15241496
   9.73191301  4.24334024 11.88505191
   9.60094451 11.55172661  3.88439980
   5.80579833 15.33475908 15.28165196
   5.81408923  7.87426455  7.82260138
  13.46346684 15.36065976 15.38868334
  13.50938971  7.87863661  7.76820743
   5.79328818  0.14507493 11.71061941
   5.77599546  7.57771068  3.78949582
  13.50820091  7.59792586  3.85157927
  13.52367960  8.04127223 11.44776052
   5.80225648  3.91255553  0.19468890
  13.49774652  3.94837694  0.25982810
  13.49396062 11.30347782 11.53705800
   7.96557411  1.87833817  7.48148903
   0.16091622  1.95240088 11.51320934
   7.56397586  1.92191451  4.15123907
   7.94852181  1.84742021 11.68743582
   7.92540110  9.64742825 11.73379060
   0.10578219  5.79847464  0.07480635
   0.12285852 13.49217800  0.04301373
  15.18149634 13.49790501  7.70866111
   7.88610235  5.77277016  0.24796983
   7.86046394 13.48929016  0.20644186
   0.17055846  5.76669418  3.81572954
   4.04979054  9.63810070  0.06657396
  11.30068123  1.93945636  7.82653996
   3.61978934  9.63057193 11.55545461
  11.31486706  1.94328619 11.44190027
   4.01709273  5.75626963  7.60232646
   4.03872601 13.49810353  7.69379018
   3.68728373  5.76929469  3.98364729
  15.38700738  0.05227951  1.95354927
   0.00111624 15.41297176  9.61751567
   0.05899901  7.86252793  1.93119107
   7.56662337  0.26149982  1.94140286
   7.62815721  0.07651588  9.59108282
   7.78102446  7.93341039  1.96302970
   7.90148095  7.82478187  9.65300924
   0.00335465  7.63496687  5.80586016
  15.30584081  7.66650810 13.46054703
   7.80003744 15.11184005  5.79643832
   7.96951633 15.19889811 13.50374276
   0.25336366  3.77812554  1.97382098
   0.14108345  3.96562311  9.58132008
   7.98155026  3.54699708  1.96555410
   8.00079510  3.66883807  9.54225492
   7.65720477 11.33627864  1.95507640
  15.20517933  3.89495130 13.50050490
  15.31293595 11.58917156  5.79101649
  15.42263840 11.59433401 13.48176968
   7.41312856  4.12444568  5.77968798
   7.61921401  4.21880591 13.54670309
   7.58338494 11.75760760  5.78851476
   7.67757609 11.73943979 13.48983705
   3.73865827  7.58711623  1.91925122
  11.58263593 15.37780168  1.95442943
  11.55964855 15.30408018  9.60962574
   3.85350742  0.02924701  5.78688620
   3.71176950 15.34577850 13.48818183
   3.88897337  7.90940044  5.78698830
   4.04115524  7.70946791 13.47456339
  11.55955264  7.87161685  5.78920506
  11.65440834  7.86210418 13.48716202
   3.86332892 11.65658867  1.92846046
   3.81934964 11.59127065  9.64351686
  11.37557330  4.07461419  9.61173192
  11.58598210 11.62577169  1.94573585
  11.51061857 11.62148646  9.63626889
   4.06495270  3.73988258  5.76787421
   3.98674144  3.85938968 13.51038637
  11.87740790  3.69124435  5.77681770
  11.84693806  3.69779751 13.55295126
   1.94689535  0.11833447  0.06884358
   1.91812599 15.28053846  7.72550721
   1.91556543  7.57647154  7.55732975
   9.62865539  0.13366032  0.16134416
   9.61918244 15.08255983  7.78093241
   9.65792750  7.50451907  7.64847370
   1.94742139 15.19874942 11.47504887
   1.92014354  7.88230909  3.89337929
   1.89971104  7.44946115 11.79367683
   9.61799107 15.10837378 11.39282485
   9.64422270  7.77410912  3.89381750
   9.68968697  7.35582872 11.75596604
   1.92793457  3.77823914 15.24393441
   1.90038064  3.95947389  7.50118126
   1.93045371 11.37675037 15.41813512
   1.91223748 11.74422250  7.62656858
   9.68033316  3.80638739 15.18834189
   1.91897351  3.61633025  4.09765437
   1.89932922 11.82622497 11.60744421
   9.66068344 11.81449989 11.59676031
   5.82743936  0.23588478  7.57266262
   5.78671212  7.55355317  0.10772417
  13.48038370  0.29645882  7.79524573
  13.49988123  7.58772921  0.03274337
   5.81568359 15.29026574  3.97701707
   5.79037916  7.89265176 11.43892427
  13.46989166 15.35743375  3.84219885
  13.47199554  0.15896642 11.50938513
   5.86047661  3.62028285  7.86606920
   5.81148215 11.75671893  0.04611854
   5.82761532 11.34173518  7.76988492
  13.47953152  3.69315821  7.93428561
  13.45158775 11.74799135  0.00296725
  13.45189669 11.31870892  7.78951935
   5.83422868  4.01263111  3.63524520
   5.71407244  3.65850362 11.44326149
   5.81064148 11.61231819  3.79610204
   5.78918633 11.38297611 11.53236497
  13.47905419  4.02301251  3.64730259
  13.49627474  3.74334128 11.37381587
  13.46970949 11.60299907  3.83212354
  15.38785809  1.96507304  0.00414291
   0.14773147  1.94137882  7.82171981
  15.23813185  9.64272947 15.32631210
   0.18527836  9.66982187  7.57799770
   7.70297644  1.93615412 15.22067256
   7.49880602  9.65248054 15.26709568
   7.95122409  9.66019859  7.53217222
  15.23300975  1.97278196  3.80905918
  15.32790715  9.61020457  3.99117662
   0.32865775  9.64366894 11.67233978
   7.64565800  9.64881563  4.06793158
  15.28241929  5.77353350  7.71657383
   7.53222006  5.72601899  7.91877655
   7.42840507 13.53283590  7.82867194
  15.16562937  5.80557512 11.53631235
  15.42134098 13.51079774  3.85724228
  15.20116487 13.50475535 11.51268620
   7.86166697  5.72396934  3.62389179
   7.58826677  5.79233269 11.38687919
   7.72878562 13.50572558  3.63623135
   7.53475372 13.46081448 11.47127985
   3.90373050  1.92388080 15.34114931
   3.71168334  1.91673897  7.66342074
   3.67995244  9.65747167  7.80959736
  11.57904635  1.95202081  0.17233591
  11.83009619  9.64622018  0.15848737
  11.32746818  9.65614313  7.80870946
   4.06329527  1.94504404  3.87569745
   3.61770834  1.91652058 11.65943337
   3.94742286  9.61080533  3.68348790
  11.75675540  1.95408347  3.72628366
  11.60658619  9.63241020  3.71899081
  11.24456898  9.64447585 11.47805445
   3.75906217  5.80162083 15.36339445
   3.69151706 13.47252721  0.02794553
  11.43851514  5.78573735 15.13472842
  11.79048208  5.75289981  7.53360296
  11.36153789 13.49419812  0.02853300
  11.85664334 13.52443764  7.68295435
   4.08023207  5.80448360 11.66134035
   3.84292184 13.49854386  3.90255648
   4.03363810 13.46397918 11.52163433
  11.45494196  5.77099469  4.17308513
  11.90346445  5.81186367 11.74803929
  11.53992542 13.50204695  3.86740831
  11.78942555 13.50353454 11.57739994
 


--------------------------------------------------------------------------------------------------------


 k-point  1 :   0.2500 0.2500 0.2500  plane waves:   93161
 k-point  2 :  -0.2500 0.2500 0.2500  plane waves:   93161
 k-point  3 :   0.2500-0.2500 0.2500  plane waves:   93161
 k-point  4 :  -0.2500-0.2500 0.2500  plane waves:   93161

 maximum and minimum number of plane-waves per node :     11686    11606

 maximum number of plane-waves:     93161
 maximum index in each direction: 
   IXMAX=   28   IYMAX=   28   IZMAX=   27
   IXMIN=  -28   IYMIN=  -28   IZMIN=  -28


 real space projection operators:
  total allocation   :     105595.27 KBytes
  max/ min on nodes  :      13257.69      13161.98


 parallel 3D FFT for wavefunctions:
    minimum data exchange during FFTs selected (reduces bandwidth)
 parallel 3D FFT for charge:
    minimum data exchange during FFTs selected (reduces bandwidth)


 total amount of memory used by VASP MPI-rank0   291472. kBytes
=======================================================================

   base      :      30000. kBytes
   nonlr-proj:      49437. kBytes
   fftplans  :      27976. kBytes
   grid      :      34041. kBytes
   one-center:       1026. kBytes
   wavefun   :     148992. kBytes
 
     INWAV:  cpu time   51.3532: real time   52.5819
 Broyden mixing: mesh for mixing (old mesh)
   NGX = 57   NGY = 57   NGZ = 57
  (NGX  =240   NGY  =240   NGZ  =240)
  gives a total of 185193 points

 charge density for first step will be calculated from the start-wavefunctions


--------------------------------------------------------------------------------------------------------


 Maximum index for non-local projection operator          967
 Maximum index for augmentation-charges         3293 (set IRDMAX)


--------------------------------------------------------------------------------------------------------


 initial charge from wavefunction
 First call to EWALD:  gamma=   0.115
 Maximum number of real-space cells 3x 3x 3
 Maximum number of reciprocal cells 3x 3x 3

    FEWALD:  cpu time    0.0526: real time    0.0526


--------------------------------------- Iteration      1(   1)  ---------------------------------------


    POTLOK:  cpu time    0.3473: real time    0.3605
    SETDIJ:  cpu time    1.4281: real time    1.4287
     EDDAV:  cpu time  133.3644: real time  134.4813
       DOS:  cpu time    0.0032: real time    0.0032
    CHARGE:  cpu time    5.2616: real time    5.2651
    MIXING:  cpu time    0.0082: real time    0.0086
    --------------------------------------------
      LOOP:  cpu time  140.4129: real time  141.5475

 eigenvalue-minimisations  : 23292
 total energy-change (2. order) :-0.1846705E+04  (-0.3667811E+03)
 number of electron    1923.0000031 magnetization       1.0000000
 augmentation part      502.6032401 magnetization       0.8624220

 Broyden mixing:
  rms(total) = 0.71691E+01    rms(broyden)= 0.71665E+01
  rms(prec ) = 0.11194E+02
  weight for this iteration     100.00

 Free energy of the ion-electron system (eV)
  ---------------------------------------------------
  alpha Z        PSCENC =      6118.73324990
  Ewald energy   TEWEN  =   -103936.97642166
  -Hartree energ DENC   =    -64704.42539357
  -exchange      EXHF   =         0.00000000
  -V(xc)+E(xc)   XCENC  =      8954.36867919
  PAW double counting   =    196619.77304010  -197612.32083276
  entropy T*S    EENTRO =        -0.00077518
  eigenvalues    EBANDS =    -25863.10926308
  atomic energy  EATOM  =    178577.25249613
  Solvation  Ediel_sol  =         0.00000000
  ---------------------------------------------------
  free energy    TOTEN  =     -1846.70522092 eV

  energy without entropy =    -1846.70444573  energy(sigma->0) =    -1846.70483332


--------------------------------------------------------------------------------------------------------




--------------------------------------- Iteration      1(   2)  ---------------------------------------


    POTLOK:  cpu time    0.2758: real time    0.2778
    SETDIJ:  cpu time    1.3844: real time    1.3854
     EDDAV:  cpu time  147.0263: real time  147.7839
       DOS:  cpu time    0.0029: real time    0.0029
    CHARGE:  cpu time    5.0746: real time    5.2868
    MIXING:  cpu time    0.0163: real time    0.0166
    --------------------------------------------
      LOOP:  cpu time  153.7802: real time  154.7533

 eigenvalue-minimisations  : 26628
 total energy-change (2. order) : 0.1462075E+02  (-0.2458689E+03)
 number of electron    1923.0000031 magnetization       1.0000000
 augmentation part      500.8934187 magnetization       0.4331386

 Broyden mixing:
  rms(total) = 0.69391E+01    rms(broyden)= 0.69347E+01
  rms(prec ) = 0.97707E+01
  weight for this iteration     100.00

 eigenvalues of (default mixing * dielectric matrix)
  average eigenvalue GAMMA=   0.4872
  0.4872

 Free energy of the ion-electron system (eV)
  ---------------------------------------------------
  alpha Z        PSCENC =      6118.73324990
  Ewald energy   TEWEN  =   -103936.97642166
  -Hartree energ DENC   =    -64718.65768600
  -exchange      EXHF   =         0.00000000
  -V(xc)+E(xc)   XCENC  =      8953.06829464
  PAW double counting   =    198049.41518365  -199019.30424383
  entropy T*S    EENTRO =        -0.00267828
  eigenvalues    EBANDS =    -25855.61266696
  atomic energy  EATOM  =    178577.25249613
  Solvation  Ediel_sol  =         0.00000000
  ---------------------------------------------------
  free energy    TOTEN  =     -1832.08447241 eV

  energy without entropy =    -1832.08179414  energy(sigma->0) =    -1832.08313328


--------------------------------------------------------------------------------------------------------




--------------------------------------- Iteration      1(   3)  ---------------------------------------


    POTLOK:  cpu time    0.3341: real time    0.3484
    SETDIJ:  cpu time    1.4140: real time    1.4205
     EDDAV:  cpu time  148.0901: real time  149.2583
       DOS:  cpu time    0.0023: real time    0.0023
    CHARGE:  cpu time    5.2659: real time    5.2867
    MIXING:  cpu time    0.0223: real time    0.0231
    --------------------------------------------
      LOOP:  cpu time  155.1286: real time  156.3393

 eigenvalue-minimisations  : 27168
 total energy-change (2. order) : 0.1104359E+02  (-0.6535196E+02)
 number of electron    1923.0000030 magnetization       1.0000000
 augmentation part      493.1763412 magnetization       0.5750887

 Broyden mixing:
  rms(total) = 0.48823E+01    rms(broyden)= 0.48806E+01
  rms(prec ) = 0.56078E+01
  weight for this iteration     100.00

 eigenvalues of (default mixing * dielectric matrix)
  average eigenvalue GAMMA=   0.4722
  0.4722  0.4722

 Free energy of the ion-electron system (eV)
  ---------------------------------------------------
  alpha Z        PSCENC =      6118.73324990
  Ewald energy   TEWEN  =   -103936.97642166
  -Hartree energ DENC   =    -64771.72413249
  -exchange      EXHF   =         0.00000000
  -V(xc)+E(xc)   XCENC  =      8955.83270445
  PAW double counting   =    198126.84071557  -199097.33388730
  entropy T*S    EENTRO =        -0.00096334
  eigenvalues    EBANDS =    -25793.66464154
  atomic energy  EATOM  =    178577.25249613
  Solvation  Ediel_sol  =         0.00000000
  ---------------------------------------------------
  free energy    TOTEN  =     -1821.04088028 eV

  energy without entropy =    -1821.03991693  energy(sigma->0) =    -1821.04039861


--------------------------------------------------------------------------------------------------------




--------------------------------------- Iteration      1(   4)  ---------------------------------------


    POTLOK:  cpu time    0.2777: real time    0.3179
    SETDIJ:  cpu time    1.4406: real time    1.4490
     EDDAV:  cpu time  142.6129: real time  143.7618
       DOS:  cpu time    0.0017: real time    0.0017
    CHARGE:  cpu time    5.2420: real time    5.2452
    MIXING:  cpu time    0.0242: real time    0.0242
    --------------------------------------------
      LOOP:  cpu time  149.5991: real time  150.7997

 eigenvalue-minimisations  : 26088
 total energy-change (2. order) : 0.3284924E+02  (-0.1760783E+02)
 number of electron    1923.0000030 magnetization       1.0000000
 augmentation part      494.2363624 magnetization       0.5789982

 Broyden mixing:
  rms(total) = 0.33731E+01    rms(broyden)= 0.33726E+01
  rms(prec ) = 0.39169E+01
  weight for this iteration     100.00

 eigenvalues of (default mixing * dielectric matrix)
  average eigenvalue GAMMA=   0.5974
  0.6369  0.6369  0.5184

 Free energy of the ion-electron system (eV)
  ---------------------------------------------------
  alpha Z        PSCENC =      6118.73324990
  Ewald energy   TEWEN  =   -103936.97642166
  -Hartree energ DENC   =    -64763.43243901
  -exchange      EXHF   =         0.00000000
  -V(xc)+E(xc)   XCENC  =      8961.26588882
  PAW double counting   =    198205.95414175  -199189.82242122
  entropy T*S    EENTRO =        -0.00000000
  eigenvalues    EBANDS =    -25761.16613636
  atomic energy  EATOM  =    178577.25249613
  Solvation  Ediel_sol  =         0.00000000
  ---------------------------------------------------
  free energy    TOTEN  =     -1788.19164165 eV

  energy without entropy =    -1788.19164165  energy(sigma->0) =    -1788.19164165


--------------------------------------------------------------------------------------------------------




--------------------------------------- Iteration      1(   5)  ---------------------------------------


    POTLOK:  cpu time    0.3519: real time    0.3539
    SETDIJ:  cpu time    1.4743: real time    1.4753
     EDDAV:  cpu time  147.1238: real time  148.2955
       DOS:  cpu time    0.0017: real time    0.0017
    CHARGE:  cpu time    5.2631: real time    5.2671
    MIXING:  cpu time    0.0079: real time    0.0079
    --------------------------------------------
      LOOP:  cpu time  154.2228: real time  155.4015

 eigenvalue-minimisations  : 26664
 total energy-change (2. order) : 0.2304336E+02  (-0.6555766E+01)
 number of electron    1923.0000030 magnetization       1.0000000
 augmentation part      494.7425790 magnetization       0.6316270

 Broyden mixing:
  rms(total) = 0.18327E+01    rms(broyden)= 0.18324E+01
  rms(prec ) = 0.21267E+01
  weight for this iteration     100.00

 eigenvalues of (default mixing * dielectric matrix)
  average eigenvalue GAMMA=   0.7272
  0.8948  0.8948  0.5595  0.5595

 Free energy of the ion-electron system (eV)
  ---------------------------------------------------
  alpha Z        PSCENC =      6118.73324990
  Ewald energy   TEWEN  =   -103936.97642166
  -Hartree energ DENC   =    -64761.97964634
  -exchange      EXHF   =         0.00000000
  -V(xc)+E(xc)   XCENC  =      8964.36525146
  PAW double counting   =    197692.54493676  -198685.95645349
  entropy T*S    EENTRO =        -0.00000000
  eigenvalues    EBANDS =    -25733.13169357
  atomic energy  EATOM  =    178577.25249613
  Solvation  Ediel_sol  =         0.00000000
  ---------------------------------------------------
  free energy    TOTEN  =     -1765.14828080 eV

  energy without entropy =    -1765.14828080  energy(sigma->0) =    -1765.14828080


--------------------------------------------------------------------------------------------------------




--------------------------------------- Iteration      1(   6)  ---------------------------------------


    POTLOK:  cpu time    0.2760: real time    0.2780
    SETDIJ:  cpu time    1.3921: real time    1.3931
     EDDAV:  cpu time  148.5990: real time  149.5560
       DOS:  cpu time    0.0018: real time    0.0018
    CHARGE:  cpu time    5.2664: real time    5.2695
    MIXING:  cpu time    0.0081: real time    0.0081
    --------------------------------------------
      LOOP:  cpu time  155.5434: real time  156.5066

 eigenvalue-minimisations  : 26844
 total energy-change (2. order) : 0.5637683E+01  (-0.6132893E+01)
 number of electron    1923.0000031 magnetization       1.0000000
 augmentation part      496.2984268 magnetization       0.6612028

 Broyden mixing:
  rms(total) = 0.15955E+01    rms(broyden)= 0.15948E+01
  rms(prec ) = 0.17447E+01
  weight for this iteration     100.00

 eigenvalues of (default mixing * dielectric matrix)
  average eigenvalue GAMMA=   0.6637
  0.8817  0.8817  0.5579  0.5579  0.4391

 Free energy of the ion-electron system (eV)
  ---------------------------------------------------
  alpha Z        PSCENC =      6118.73324990
  Ewald energy   TEWEN  =   -103936.97642166
  -Hartree energ DENC   =    -64724.90661002
  -exchange      EXHF   =         0.00000000
  -V(xc)+E(xc)   XCENC  =      8965.51463023
  PAW double counting   =    197232.04866569  -198234.48675991
  entropy T*S    EENTRO =        -0.00000000
  eigenvalues    EBANDS =    -25756.68984822
  atomic energy  EATOM  =    178577.25249613
  Solvation  Ediel_sol  =         0.00000000
  ---------------------------------------------------
  free energy    TOTEN  =     -1759.51059786 eV

  energy without entropy =    -1759.51059786  energy(sigma->0) =    -1759.51059786


--------------------------------------------------------------------------------------------------------




--------------------------------------- Iteration      1(   7)  ---------------------------------------


    POTLOK:  cpu time    0.2766: real time    0.2787
    SETDIJ:  cpu time    1.3740: real time    1.3752
     EDDAV:  cpu time  152.3211: real time  153.4584
       DOS:  cpu time    0.0018: real time    0.0018
    CHARGE:  cpu time    5.2474: real time    5.2507
    MIXING:  cpu time    0.0082: real time    0.0082
    --------------------------------------------
      LOOP:  cpu time  159.2291: real time  160.3731

 eigenvalue-minimisations  : 28020
 total energy-change (2. order) : 0.5150815E+00  (-0.1004142E+01)
 number of electron    1923.0000031 magnetization       1.0000000
 augmentation part      496.5669450 magnetization       0.6277779

 Broyden mixing:
  rms(total) = 0.10515E+01    rms(broyden)= 0.10511E+01
  rms(prec ) = 0.11428E+01
  weight for this iteration     100.00

 eigenvalues of (default mixing * dielectric matrix)
  average eigenvalue GAMMA=   0.7820
  1.0743  1.0743  0.7434  0.7434  0.5282  0.5282

 Free energy of the ion-electron system (eV)
  ---------------------------------------------------
  alpha Z        PSCENC =      6118.73324990
  Ewald energy   TEWEN  =   -103936.97642166
  -Hartree energ DENC   =    -64716.94638679
  -exchange      EXHF   =         0.00000000
  -V(xc)+E(xc)   XCENC  =      8965.31547082
  PAW double counting   =    197073.31357376  -198075.67165192
  entropy T*S    EENTRO =        -0.00000000
  eigenvalues    EBANDS =    -25764.01584661
  atomic energy  EATOM  =    178577.25249613
  Solvation  Ediel_sol  =         0.00000000
  ---------------------------------------------------
  free energy    TOTEN  =     -1758.99551636 eV

  energy without entropy =    -1758.99551636  energy(sigma->0) =    -1758.99551636


--------------------------------------------------------------------------------------------------------




--------------------------------------- Iteration      1(   8)  ---------------------------------------


    POTLOK:  cpu time    0.2772: real time    0.2774
    SETDIJ:  cpu time    1.3737: real time    1.3747
     EDDAV:  cpu time  146.3009: real time  147.3408
       DOS:  cpu time    0.0018: real time    0.0018
    CHARGE:  cpu time    5.2561: real time    5.2596
    MIXING:  cpu time    0.0093: real time    0.0093
    --------------------------------------------
      LOOP:  cpu time  153.2190: real time  154.2636

 eigenvalue-minimisations  : 26448
 total energy-change (2. order) : 0.7750732E+00  (-0.7282502E+00)
[...]
   81        1.573   3.460   0.000   5.033
   82        1.574   3.456   0.000   5.031
   83        1.574   3.457   0.000   5.031
   84        1.576   3.462   0.000   5.038
   85        1.575   3.461   0.000   5.036
   86        1.575   3.464   0.000   5.039
   87        1.576   3.461   0.000   5.037
   88        1.575   3.464   0.000   5.039
   89        1.575   3.460   0.000   5.034
   90        1.575   3.456   0.000   5.030
   91        1.574   3.459   0.000   5.034
   92        1.574   3.459   0.000   5.033
   93        1.578   3.462   0.000   5.040
   94        1.577   3.468   0.000   5.045
   95        1.576   3.468   0.000   5.044
   96        1.575   3.458   0.000   5.033
   97        1.575   3.465   0.000   5.040
   98        1.576   3.465   0.000   5.041
   99        1.568   3.465   0.000   5.034
  100        1.576   3.457   0.000   5.033
  101        1.574   3.455   0.000   5.029
  102        1.575   3.455   0.000   5.029
  103        1.575   3.457   0.000   5.032
  104        1.574   3.457   0.000   5.030
  105        1.576   3.467   0.000   5.043
  106        1.575   3.461   0.000   5.036
  107        1.575   3.461   0.000   5.035
  108        1.576   3.468   0.000   5.044
  109        1.574   3.458   0.000   5.033
  110        1.575   3.456   0.000   5.031
  111        1.576   3.466   0.000   5.042
  112        1.577   3.455   0.000   5.031
  113        1.576   3.469   0.000   5.044
  114        1.577   3.467   0.000   5.044
  115        1.575   3.468   0.000   5.043
  116        1.575   3.461   0.000   5.036
  117        1.575   3.459   0.000   5.034
  118        1.576   3.460   0.000   5.035
  119        1.576   3.471   0.000   5.047
  120        1.574   3.456   0.000   5.030
  121        1.574   3.457   0.000   5.031
  122        1.577   3.466   0.000   5.043
  123        1.577   3.470   0.000   5.047
  124        1.576   3.464   0.000   5.040
  125        1.575   3.469   0.000   5.045
  126        1.575   3.464   0.000   5.038
  127        1.575   3.456   0.000   5.030
  128        1.574   3.458   0.000   5.032
  129        1.576   3.467   0.000   5.044
  130        1.737   4.368   0.000   6.105
  131        1.737   4.370   0.000   6.106
  132        1.737   4.377   0.000   6.114
  133        1.738   4.381   0.000   6.119
  134        1.738   4.380   0.000   6.118
  135        1.737   4.365   0.000   6.102
  136        1.736   4.364   0.000   6.100
  137        1.738   4.379   0.000   6.118
  138        1.738   4.379   0.000   6.117
  139        1.739   4.380   0.000   6.119
  140        1.739   4.382   0.000   6.121
  141        1.738   4.375   0.000   6.113
  142        1.737   4.376   0.000   6.113
  143        1.738   4.378   0.000   6.116
  144        1.738   4.379   0.000   6.118
  145        1.738   4.378   0.000   6.116
  146        1.737   4.376   0.000   6.112
  147        1.736   4.368   0.000   6.105
  148        1.736   4.367   0.000   6.104
  149        1.739   4.376   0.000   6.116
  150        1.737   4.385   0.000   6.122
  151        1.738   4.372   0.000   6.110
  152        1.738   4.376   0.000   6.113
  153        1.737   4.379   0.000   6.117
  154        1.737   4.370   0.000   6.107
  155        1.737   4.369   0.000   6.106
  156        1.737   4.369   0.000   6.105
  157        1.737   4.366   0.000   6.103
  158        1.738   4.373   0.000   6.111
  159        1.738   4.375   0.000   6.113
  160        1.736   4.366   0.000   6.102
  161        1.736   4.366   0.000   6.102
  162        1.736   4.369   0.000   6.105
  163        1.736   4.367   0.000   6.103
  164        1.736   4.370   0.000   6.107
  165        1.737   4.369   0.000   6.105
  166        1.736   4.368   0.000   6.104
  167        1.736   4.366   0.000   6.102
  168        1.736   4.366   0.000   6.103
  169        1.738   4.368   0.000   6.106
  170        1.737   4.373   0.000   6.110
  171        1.737   4.367   0.000   6.104
  172        1.737   4.384   0.000   6.122
  173        1.737   4.366   0.000   6.103
  174        1.737   4.367   0.000   6.103
  175        1.739   4.377   0.000   6.115
  176        1.736   4.364   0.000   6.100
  177        1.737   4.372   0.000   6.109
  178        1.737   4.366   0.000   6.103
  179        1.738   4.371   0.000   6.109
  180        1.738   4.373   0.000   6.111
  181        1.736   4.367   0.000   6.104
  182        1.736   4.374   0.000   6.110
  183        1.737   4.365   0.000   6.102
  184        1.737   4.373   0.000   6.110
  185        1.737   4.378   0.000   6.115
  186        1.737   4.377   0.000   6.113
  187        1.736   4.363   0.000   6.099
  188        1.737   4.372   0.000   6.109
  189        1.738   4.374   0.000   6.112
  190        1.738   4.374   0.000   6.112
  191        1.739   4.381   0.000   6.120
  192        1.737   4.367   0.000   6.103
  193        1.738   4.383   0.000   6.121
  194        1.736   4.367   0.000   6.103
  195        1.737   4.368   0.000   6.105
  196        1.737   4.376   0.000   6.113
  197        1.737   4.368   0.000   6.105
  198        1.736   4.376   0.000   6.113
  199        1.737   4.372   0.000   6.109
  200        1.738   4.378   0.000   6.115
  201        1.738   4.375   0.000   6.112
  202        1.738   4.370   0.000   6.108
  203        1.737   4.377   0.000   6.115
  204        1.738   4.373   0.000   6.110
  205        1.737   4.372   0.000   6.108
  206        1.735   4.369   0.000   6.104
  207        1.737   4.369   0.000   6.106
  208        1.737   4.377   0.000   6.114
  209        1.737   4.370   0.000   6.108
  210        1.736   4.364   0.000   6.100
  211        1.737   4.370   0.000   6.107
  212        1.736   4.366   0.000   6.103
  213        1.739   4.371   0.000   6.110
  214        1.736   4.365   0.000   6.102
  215        1.738   4.376   0.000   6.114
  216        1.736   4.361   0.000   6.097
  217        1.736   4.362   0.000   6.098
  218        1.737   4.373   0.000   6.110
  219        1.738   4.377   0.000   6.115
  220        1.738   4.379   0.000   6.117
  221        1.738   4.373   0.000   6.111
  222        1.737   4.376   0.000   6.113
  223        1.737   4.378   0.000   6.116
  224        1.737   4.374   0.000   6.111
  225        1.738   4.372   0.000   6.109
  226        1.738   4.372   0.000   6.110
  227        1.737   4.379   0.000   6.116
  228        1.737   4.372   0.000   6.110
  229        1.737   4.373   0.000   6.110
  230        1.736   4.373   0.000   6.109
  231        1.738   4.371   0.000   6.109
  232        1.737   4.368   0.000   6.104
  233        1.738   4.379   0.000   6.117
  234        1.736   4.366   0.000   6.102
  235        1.737   4.365   0.000   6.102
  236        1.738   4.385   0.000   6.123
  237        1.739   4.381   0.000   6.120
  238        1.737   4.375   0.000   6.112
  239        1.738   4.376   0.000   6.114
  240        1.737   4.375   0.000   6.112
  241        1.738   4.375   0.000   6.113
  242        1.738   4.383   0.000   6.122
  243        1.738   4.385   0.000   6.123
  244        1.737   4.372   0.000   6.110
  245        1.738   4.376   0.000   6.114
  246        1.738   4.376   0.000   6.114
  247        1.738   4.381   0.000   6.119
  248        1.737   4.372   0.000   6.110
  249        1.738   4.383   0.000   6.121
  250        1.738   4.370   0.000   6.108
  251        1.738   4.375   0.000   6.112
  252        1.737   4.380   0.000   6.117
  253        1.738   4.375   0.000   6.112
  254        1.739   4.383   0.000   6.122
  255        1.738   4.370   0.000   6.108
  256        1.738   4.385   0.000   6.124
  257        1.738   4.370   0.000   6.108
--------------------------------------------------
tot        345.2551194.058 111.7141651.027
 


 magnetization (x)
 
# of ion       s       p       d       tot
------------------------------------------
    1       -0.000   0.000   0.000   0.000
    2        0.000   0.000   0.000   0.000
    3       -0.000   0.000   0.000   0.000
    4       -0.000  -0.000  -0.000  -0.000
    5       -0.000  -0.000   0.000   0.000
    6        0.000   0.000   0.000   0.000
    7       -0.000  -0.000   0.000   0.000
    8       -0.000  -0.000  -0.000  -0.000
    9       -0.000  -0.000   0.000   0.000
   10       -0.000   0.000  -0.000   0.000
   11       -0.000  -0.000   0.000   0.000
   12       -0.000  -0.000  -0.000  -0.000
   13        0.000  -0.000   0.000   0.000
   14        0.000  -0.000  -0.000  -0.000
   15       -0.000  -0.000  -0.002  -0.003
   16       -0.000  -0.000   0.000   0.000
   17       -0.000  -0.000   0.000  -0.000
   18        0.000   0.000   0.000   0.000
   19        0.000   0.000   0.000   0.000
   20       -0.000   0.000  -0.000  -0.000
   21        0.000   0.000   0.000   0.000
   22       -0.000  -0.000   0.004   0.004
   23        0.000   0.000   0.016   0.016
   24        0.000  -0.000   0.000   0.000
   25        0.000  -0.000   0.000   0.000
   26        0.000   0.000   0.000   0.000
   27       -0.000  -0.000   0.000   0.000
   28       -0.000   0.000  -0.000  -0.000
   29        0.000   0.000   0.000   0.000
   30       -0.000  -0.000   0.000   0.000
   31        0.005   0.006   0.902   0.914
   32        0.000   0.000   0.000   0.000
   33       -0.000  -0.000  -0.000  -0.000
   34       -0.000  -0.000   0.000  -0.000
   35        0.000  -0.000   0.000   0.000
   36       -0.000  -0.000   0.000   0.000
   37       -0.000  -0.000  -0.000  -0.000
   38       -0.000  -0.000  -0.000  -0.000
   39       -0.000  -0.000  -0.000  -0.000
   40       -0.000  -0.000   0.000   0.000
   41       -0.000  -0.000   0.000   0.000
   42       -0.000   0.000   0.000   0.000
   43        0.000  -0.000  -0.000  -0.000
   44       -0.000  -0.000  -0.000  -0.000
   45       -0.000  -0.000   0.000   0.000
   46        0.000  -0.000   0.000   0.000
   47       -0.000  -0.000   0.000   0.000
   48       -0.000  -0.000   0.000  -0.000
   49       -0.000  -0.000   0.000   0.000
   50        0.000   0.000   0.001   0.001
   51        0.000   0.000   0.002   0.002
   52        0.000   0.000   0.000   0.000
   53       -0.000   0.000   0.000   0.000
   54       -0.000  -0.000   0.001   0.001
   55        0.000   0.000   0.005   0.005
   56        0.000   0.000   0.000   0.000
   57       -0.000  -0.000   0.000   0.000
   58        0.000   0.000   0.000   0.000
   59       -0.000  -0.000   0.004   0.004
   60       -0.000   0.000  -0.000  -0.000
   61       -0.000   0.000   0.000   0.000
   62        0.000   0.000   0.000   0.000
   63        0.000   0.000   0.039   0.039
   64        0.000   0.000   0.000   0.000
   65       -0.000  -0.000   0.000   0.000
   66       -0.000  -0.000   0.000  -0.000
   67        0.000   0.000   0.000   0.000
   68       -0.000  -0.000   0.000  -0.000
   69       -0.000  -0.000   0.000  -0.000
   70       -0.000  -0.000   0.000  -0.000
   71        0.000   0.000   0.000   0.000
   72       -0.000  -0.000   0.000  -0.000
   73       -0.000  -0.000   0.000  -0.000
   74       -0.000  -0.000   0.000  -0.000
   75       -0.000  -0.000   0.000  -0.000
   76        0.000   0.000   0.000   0.000
   77       -0.000  -0.000   0.000  -0.000
   78       -0.000  -0.000   0.000  -0.000
   79       -0.000  -0.000   0.000  -0.000
   80       -0.000  -0.000   0.000  -0.000
   81       -0.000  -0.000   0.000  -0.000
   82       -0.000  -0.000   0.000  -0.000
   83       -0.000  -0.001   0.000  -0.001
   84       -0.000  -0.000   0.000  -0.000
   85       -0.000  -0.000   0.000  -0.000
   86       -0.000  -0.000   0.000  -0.000
   87       -0.000  -0.000   0.000  -0.000
   88       -0.000  -0.000   0.000  -0.000
   89       -0.000  -0.000   0.000  -0.000
   90       -0.000  -0.000   0.000  -0.000
   91        0.000  -0.000   0.000  -0.000
   92       -0.000  -0.000   0.000  -0.000
   93       -0.000  -0.002   0.000  -0.002
   94       -0.000  -0.000   0.000  -0.000
   95       -0.000  -0.000   0.000  -0.000
   96       -0.000  -0.000   0.000  -0.000
   97        0.000  -0.000   0.000  -0.000
   98       -0.000  -0.000   0.000  -0.000
   99       -0.001  -0.019   0.000  -0.020
  100       -0.000  -0.000   0.000  -0.000
  101       -0.000  -0.000   0.000  -0.000
  102       -0.000  -0.000   0.000  -0.000
  103        0.000  -0.000   0.000  -0.000
  104       -0.000  -0.000   0.000  -0.000
  105       -0.000  -0.000   0.000  -0.000
  106       -0.000  -0.000   0.000  -0.000
  107        0.000  -0.000   0.000   0.000
  108       -0.000  -0.000   0.000  -0.000
  109       -0.000  -0.000   0.000  -0.000
  110        0.000  -0.000   0.000  -0.000
  111       -0.000  -0.000   0.000  -0.000
  112       -0.000  -0.000   0.000  -0.000
  113       -0.000  -0.000   0.000  -0.000
  114       -0.000  -0.000   0.000  -0.000
  115       -0.001  -0.017   0.000  -0.017
  116       -0.000  -0.000   0.000  -0.000
  117       -0.000  -0.000   0.000  -0.000
  118        0.000  -0.000   0.000  -0.000
  119        0.000  -0.000   0.000  -0.000
  120       -0.000  -0.000   0.000  -0.000
  121       -0.000  -0.000   0.000  -0.000
  122       -0.000  -0.000   0.000  -0.000
  123       -0.000  -0.000   0.000  -0.000
  124       -0.000  -0.000   0.000  -0.000
  125       -0.000  -0.000   0.000  -0.000
  126       -0.000  -0.001   0.000  -0.001
  127       -0.000  -0.000   0.000  -0.000
  128       -0.000  -0.000   0.000  -0.000
  129       -0.000  -0.000   0.000  -0.000
  130        0.000  -0.000   0.000  -0.000
  131       -0.000  -0.000   0.000  -0.000
  132        0.000   0.000   0.000   0.000
  133       -0.000  -0.000   0.000  -0.000
  134       -0.000  -0.000   0.000  -0.000
  135       -0.000  -0.000   0.000  -0.000
  136       -0.000  -0.000   0.000  -0.000
  137        0.000   0.000   0.000   0.000
  138       -0.000  -0.000   0.000  -0.000
  139       -0.000  -0.000   0.000  -0.000
  140       -0.000  -0.000   0.000  -0.000
  141        0.000   0.000   0.000   0.000
  142       -0.000  -0.000   0.000  -0.000
  143       -0.000  -0.000   0.000  -0.000
  144       -0.000  -0.001   0.000  -0.002
  145       -0.000  -0.000   0.000  -0.000
  146        0.000  -0.000   0.000  -0.000
  147       -0.000  -0.000   0.000  -0.000
  148       -0.000  -0.000   0.000  -0.000
  149       -0.000  -0.000   0.000  -0.000
  150       -0.000   0.001   0.000   0.001
  151       -0.000  -0.000   0.000  -0.000
  152        0.000  -0.000   0.000  -0.000
  153        0.000   0.000   0.000   0.000
  154       -0.000  -0.000   0.000  -0.000
  155       -0.000  -0.000   0.000  -0.000
  156       -0.000  -0.000   0.000  -0.000
  157        0.000   0.000   0.000   0.000
  158       -0.000  -0.000   0.000  -0.000
  159       -0.000  -0.000   0.000  -0.000
  160       -0.000  -0.000   0.000  -0.000
  161       -0.000  -0.000   0.000  -0.000
  162       -0.000  -0.000   0.000  -0.000
  163       -0.000  -0.000   0.000  -0.000
  164       -0.000  -0.001   0.000  -0.001
  165       -0.000  -0.000   0.000  -0.000
  166       -0.000  -0.000   0.000  -0.000
  167        0.000   0.000   0.000   0.000
  168        0.000  -0.000   0.000  -0.000
  169       -0.000  -0.000   0.000  -0.000
  170       -0.000   0.000   0.000   0.000
  171       -0.000  -0.000   0.000  -0.000
  172       -0.000  -0.000   0.000  -0.000
  173       -0.000  -0.000   0.000  -0.000
  174       -0.000  -0.000   0.000  -0.000
  175       -0.000  -0.000   0.000  -0.000
  176       -0.000  -0.000   0.000  -0.000
  177        0.000  -0.000   0.000  -0.000
  178        0.000  -0.000   0.000  -0.000
  179       -0.000  -0.000   0.000  -0.000
  180       -0.000  -0.000   0.000  -0.000
  181       -0.000   0.000   0.000   0.000
  182       -0.000  -0.000   0.000  -0.000
  183        0.000   0.000   0.000   0.000
  184       -0.000  -0.000   0.000  -0.000
  185       -0.000  -0.000   0.000  -0.000
  186       -0.000  -0.000   0.000  -0.000
  187        0.000   0.000   0.000   0.000
  188       -0.000  -0.000   0.000  -0.000
  189       -0.000  -0.000   0.000  -0.000
  190        0.000  -0.000   0.000  -0.000
  191       -0.000  -0.000   0.000  -0.000
  192       -0.000  -0.000   0.000  -0.000
  193       -0.000  -0.000   0.000  -0.000
  194        0.000  -0.000   0.000  -0.000
  195       -0.000  -0.000   0.000  -0.000
  196       -0.000  -0.000   0.000  -0.000
  197        0.000  -0.000   0.000  -0.000
  198       -0.000  -0.000   0.000  -0.000
  199       -0.000  -0.000   0.000  -0.000
  200        0.000   0.000   0.000   0.000
  201        0.000  -0.000   0.000  -0.000
  202       -0.000  -0.000   0.000  -0.000
  203       -0.000  -0.000   0.000  -0.000
  204       -0.000  -0.000   0.000  -0.000
  205       -0.000  -0.000   0.000  -0.000
  206       -0.000   0.003   0.000   0.002
  207       -0.000  -0.000   0.000  -0.000
  208        0.000  -0.000   0.000  -0.000
  209        0.000  -0.000   0.000  -0.000
  210       -0.000  -0.000   0.000  -0.000
  211       -0.000  -0.000   0.000  -0.000
  212       -0.000  -0.000   0.000  -0.000
  213       -0.000  -0.000   0.000  -0.000
  214       -0.000  -0.000   0.000  -0.000
  215       -0.000  -0.000   0.000  -0.000
  216       -0.000  -0.000   0.000  -0.000
  217       -0.000  -0.000   0.000  -0.000
  218       -0.000  -0.000   0.000  -0.000
  219        0.000  -0.000   0.000  -0.000
  220       -0.000  -0.000   0.000  -0.000
  221       -0.000  -0.000   0.000  -0.000
  222       -0.000  -0.000   0.000  -0.000
  223       -0.000  -0.000   0.000  -0.000
  224       -0.000  -0.000   0.000  -0.000
  225       -0.000  -0.000   0.000  -0.000
  226       -0.000  -0.000   0.000  -0.000
  227       -0.000  -0.000   0.000  -0.000
  228        0.000  -0.000   0.000  -0.000
  229       -0.000  -0.000   0.000  -0.000
  230       -0.000  -0.005   0.000  -0.005
  231       -0.000  -0.000   0.000  -0.000
  232       -0.000  -0.000   0.000  -0.000
  233       -0.000  -0.000   0.000  -0.000
  234       -0.000  -0.000   0.000  -0.000
  235       -0.000  -0.000   0.000  -0.000
  236        0.000  -0.000   0.000  -0.000
  237       -0.000  -0.000   0.000  -0.000
  238       -0.000  -0.000   0.000  -0.000
  239       -0.000  -0.000   0.000  -0.000
  240       -0.000  -0.000   0.000  -0.000
  241       -0.000  -0.000   0.000  -0.000
  242       -0.000  -0.000   0.000  -0.000
  243       -0.000  -0.000   0.000  -0.000
  244       -0.000  -0.000   0.000  -0.000
  245       -0.000  -0.000   0.000  -0.000
  246       -0.000  -0.000   0.000  -0.000
  247       -0.000  -0.000   0.000  -0.000
  248       -0.000  -0.000   0.000  -0.000
  249       -0.000  -0.000   0.000  -0.000
  250       -0.000  -0.000   0.000  -0.000
  251       -0.000  -0.000   0.000  -0.000
  252       -0.000  -0.000   0.000  -0.000
  253       -0.000  -0.000   0.000  -0.000
  254       -0.000  -0.000   0.000  -0.000
  255       -0.000  -0.000   0.000  -0.000
  256       -0.000  -0.000   0.000  -0.000
  257       -0.000  -0.000   0.000  -0.000
--------------------------------------------------
tot          0.002  -0.040   0.974   0.936
 

 total amount of memory used by VASP MPI-rank0   291472. kBytes
=======================================================================

   base      :      30000. kBytes
   nonlr-proj:      49437. kBytes
   fftplans  :      27976. kBytes
   grid      :      34041. kBytes
   one-center:       1026. kBytes
   wavefun   :     148992. kBytes
 
  
  
 General timing and accounting informations for this job:
 ========================================================
  
                  Total CPU time used (sec):     6058.872
                            User time (sec):     5632.306
                          System time (sec):      426.567
                         Elapsed time (sec):     6111.580
  
                   Maximum memory used (kb):      629816.
                   Average memory used (kb):           0.
  
                          Minor page faults:       334030
                          Major page faults:           11
                 Voluntary context switches:        40587
