 vasp.5.4.4.18Apr17-6-g9f103f2a35 (build Apr 30 2017 20:10:35) complex          
  
 executed on             LinuxIFC date 2017.08.04  22:17:21
 running on   64 total cores
 distrk:  each k-point on   64 cores,    1 groups
 distr:  one band on NCORES_PER_BAND=   8 cores,    8 groups


--------------------------------------------------------------------------------------------------------


 INCAR:
 POTCAR:   PAW_PBE Ti_pv 07Sep2000                
 POTCAR:   PAW_PBE O 08Apr2002                    
 POTCAR:    PAW_PBE F 08Apr2002                   
 POTCAR:   PAW_PBE Ti_pv 07Sep2000                
   VRHFIN =Ti: d3 s1                                                            
   LEXCH  = PE                                                                  
   EATOM  =  1042.3781 eV,   76.6126 Ry                                         
                                                                                
   TITEL  = PAW_PBE Ti_pv 07Sep2000                                             
   LULTRA =        F    use ultrasoft PP ?                                      
   IUNSCR =        1    unscreen: 0-lin 1-nonlin 2-no                           
   RPACOR =    2.200    partial core radius                                     
   POMASS =   47.880; ZVAL   =   10.000    mass and valenz                      
   RCORE  =    2.500    outmost cutoff radius                                   
   RWIGS  =    2.500; RWIGS  =    1.323    wigner-seitz radius (au A)           
   ENMAX  =  222.338; ENMIN  =  166.753 eV                                      
   RCLOC  =    1.701    cutoff for local pot                                    
   LCOR   =        T    correct aug charges                                     
   LPAW   =        T    paw PP                                                  
   EAUG   =  482.848                                                            
   DEXC   =    -.008                                                            
   RMAX   =    3.092    core radius for proj-oper                               
   RAUG   =    1.300    factor for augmentation sphere                          
   RDEP   =    2.538    radius for radial grids                                 
   QCUT   =   -4.042; QGAM   =    8.085    optimization parameters              
                                                                                
   Description                                                                  
     l     E      TYP  RCUT    TYP  RCUT                                        
     1   .000     23  2.300                                                     
     1  -.100     23  2.300                                                     
     2   .000     23  2.500                                                     
     2   .000     23  2.500                                                     
     0   .000     23  2.500                                                     
     0  1.500     23  2.500                                                     
     3   .000      7   .000                                                     
  local pseudopotential read in
  partial core-charges read in
  atomic valenz-charges read in
  non local Contribution for L=           1  read in
    real space projection operators read in
  non local Contribution for L=           1  read in
    real space projection operators read in
  non local Contribution for L=           2  read in
    real space projection operators read in
  non local Contribution for L=           2  read in
    real space projection operators read in
  non local Contribution for L=           0  read in
    real space projection operators read in
  non local Contribution for L=           0  read in
    real space projection operators read in
    PAW grid and wavefunctions read in
 
   number of l-projection  operators is LMAX  =           6
   number of lm-projection operators is LMMAX =          18
 
 POTCAR:   PAW_PBE O 08Apr2002                    
   VRHFIN =O: s2p4                                                              
   LEXCH  = PE                                                                  
   EATOM  =   432.3788 eV,   31.7789 Ry                                         
                                                                                
   TITEL  = PAW_PBE O 08Apr2002                                                 
   LULTRA =        F    use ultrasoft PP ?                                      
   IUNSCR =        0    unscreen: 0-lin 1-nonlin 2-no                           
   RPACOR =     .000    partial core radius                                     
   POMASS =   16.000; ZVAL   =    6.000    mass and valenz                      
   RCORE  =    1.520    outmost cutoff radius                                   
   RWIGS  =    1.550; RWIGS  =     .820    wigner-seitz radius (au A)           
   ENMAX  =  400.000; ENMIN  =  300.000 eV                                      
   ICORE  =        2    local potential                                         
   LCOR   =        T    correct aug charges                                     
   LPAW   =        T    paw PP                                                  
   EAUG   =  605.392                                                            
   DEXC   =     .000                                                            
   RMAX   =    2.264    core radius for proj-oper                               
   RAUG   =    1.300    factor for augmentation sphere                          
   RDEP   =    1.550    radius for radial grids                                 
   QCUT   =   -5.520; QGAM   =   11.041    optimization parameters              
                                                                                
   Description                                                                  
     l     E      TYP  RCUT    TYP  RCUT                                        
     0   .000     23  1.200                                                     
     0  -.700     23  1.200                                                     
     1   .000     23  1.520                                                     
     1   .600     23  1.520                                                     
     2   .000      7  1.500                                                     
  local pseudopotential read in
  atomic valenz-charges read in
  non local Contribution for L=           0  read in
    real space projection operators read in
  non local Contribution for L=           0  read in
    real space projection operators read in
  non local Contribution for L=           1  read in
    real space projection operators read in
  non local Contribution for L=           1  read in
    real space projection operators read in
    PAW grid and wavefunctions read in
 
   number of l-projection  operators is LMAX  =           4
   number of lm-projection operators is LMMAX =           8
 
 POTCAR:    PAW_PBE F 08Apr2002                   
   VRHFIN =F: s2p5                                                              
   LEXCH  = PE                                                                  
   EATOM  =   659.6475 eV,   48.4827 Ry                                         
                                                                                
   TITEL  = PAW_PBE F 08Apr2002                                                 
   LULTRA =        F    use ultrasoft PP ?                                      
   IUNSCR =        1    unscreen: 0-lin 1-nonlin 2-no                           
   RPACOR =    1.200    partial core radius                                     
   POMASS =   18.998; ZVAL   =    7.000    mass and valenz                      
   RCORE  =    1.520    outmost cutoff radius                                   
   RWIGS  =    1.500; RWIGS  =    0.794    wigner-seitz radius (au A)           
   ENMAX  =  400.000; ENMIN  =  300.000 eV                                      
   ICORE  =        2    local potential                                         
   LCOR   =        T    correct aug charges                                     
   LPAW   =        T    paw PP                                                  
   EAUG   =  613.614                                                            
   RMAX   =    1.555    core radius for proj-oper                               
   RAUG   =    1.300    factor for augmentation sphere                          
   RDEP   =    1.539    radius for radial grids                                 
   RDEPT  =    1.299    core radius for aug-charge                              
                                                                                
   Atomic configuration                                                         
    4 entries                                                                   
     n  l   j            E        occ.                                          
     1  0  0.50      -663.3661   2.0000                                         
     2  0  0.50       -29.8995   2.0000                                         
     2  1  0.50       -11.1114   5.0000                                         
     3  2  1.50       -10.8847   0.0000                                         
   Description                                                                  
     l       E           TYP  RCUT    TYP  RCUT                                 
     0    -29.8995018     23  1.200                                             
     0     -9.5240782     23  1.200                                             
     1    -11.1113914     23  1.520                                             
     1      1.3605826     23  1.520                                             
     2    -10.8846608      7  1.500                                             
  local pseudopotential read in
  partial core-charges read in
  partial kinetic energy density read in
  atomic valenz-charges read in
  non local Contribution for L=           0  read in
    real space projection operators read in
  non local Contribution for L=           0  read in
    real space projection operators read in
  non local Contribution for L=           1  read in
    real space projection operators read in
  non local Contribution for L=           1  read in
    real space projection operators read in
    PAW grid and wavefunctions read in
 
   number of l-projection  operators is LMAX  =           4
   number of lm-projection operators is LMMAX =           8
 
 Optimization of the real space projectors (new method)

 maximal supplied QI-value         = 15.12
 optimisation between [QCUT,QGAM] = [ 13.45, 27.06] = [ 50.69,205.06] Ry 
 Optimized for a Real-space Cutoff    1.49 Angstroem

   l    n(q)    QCUT    max X(q) W(low)/X(q) W(high)/X(q)  e(spline) 
   1     12    13.455     4.841    0.13E-05    0.83E-06    0.56E-07
   1     12    13.455     5.701    0.32E-04    0.25E-04    0.17E-06
   2     11    13.455     4.569    0.64E-05    0.34E-05    0.50E-07
   2     11    13.455    32.276    0.49E-04    0.38E-04    0.46E-06
   0     12    13.455    30.046    0.17E-04    0.41E-05    0.51E-07
   0     12    13.455    45.433    0.12E-04    0.27E-04    0.38E-06
 Optimization of the real space projectors (new method)

 maximal supplied QI-value         = 24.76
 optimisation between [QCUT,QGAM] = [ 13.37, 26.98] = [ 50.04,203.89] Ry 
 Optimized for a Real-space Cutoff    1.17 Angstroem

   l    n(q)    QCUT    max X(q) W(low)/X(q) W(high)/X(q)  e(spline) 
   0      9    13.368     4.192    0.20E-04    0.58E-05    0.56E-07
   0      9    13.368     8.473    0.60E-04    0.52E-04    0.21E-06
   1      9    13.368     2.474    0.22E-04    0.17E-04    0.28E-07
   1      9    13.368     3.912    0.94E-04    0.97E-04    0.20E-06
 Optimization of the real space projectors (new method)

 maximal supplied QI-value         = 24.76
 optimisation between [QCUT,QGAM] = [ 13.37, 26.98] = [ 50.04,203.89] Ry 
 Optimized for a Real-space Cutoff    1.17 Angstroem

   l    n(q)    QCUT    max X(q) W(low)/X(q) W(high)/X(q)  e(spline) 
   0      9    13.368    14.049    0.39E-04    0.34E-04    0.16E-06
   0      9    13.368     8.945    0.54E-04    0.47E-04    0.20E-06
   1      9    13.368     7.086    0.99E-04    0.10E-03    0.23E-06
   1      9    13.368     6.747    0.86E-04    0.89E-04    0.21E-06

 ----------------------------------------------------------------------------- 
|                                                                             |
|  ADVICE TO THIS USER RUNNING 'VASP/VAMP'   (HEAR YOUR MASTER'S VOICE ...):  |
|                                                                             |
|      You enforced a specific xc-type in the INCAR file,                     |
|      a different type was found on the POTCAR file                          |
|          I HOPE YOU KNOW, WHAT YOU ARE  DOING                               |
|                                                                             |
 ----------------------------------------------------------------------------- 

 PAW_PBE Ti_pv 07Sep2000                :
 energy of atom  1       EATOM=-1042.3781
 kinetic energy error for atom=    0.0006 (will be added to EATOM!!)
 PAW_PBE O 08Apr2002                    :
 energy of atom  2       EATOM= -432.3788
 kinetic energy error for atom=    0.0091 (will be added to EATOM!!)
  PAW_PBE F 08Apr2002                   :
 energy of atom  3       EATOM= -659.6475
 kinetic energy error for atom=    0.0140 (will be added to EATOM!!)
 
 
 POSCAR: TiOF2 2x2x2 config 2000                 
  positions in direct lattice
  velocities in cartesian coordinates
 exchange correlation table for  LEXCH =       14
   RHO(1)=    0.500       N(1)  =     2000
   RHO(2)=  100.500       N(2)  =     4000

 VTST: version 3.1, (03/28/14)

 CHAIN: initializing optimizer
 
 OPT: Using VASP QUASI-newton optimizer
 CHAIN: Read ICHAIN            0
 
 POSCAR: TiOF2 2x2x2 config 2000                 
  positions in direct lattice
  velocities in cartesian coordinates
 


--------------------------------------------------------------------------------------------------------


 ion  position               nearest neighbor table
   1  1.000  0.000  0.001-  25 1.95  23 1.95  17 1.96  20 1.96  29 1.98  30 1.99
   2  0.999  0.001  0.500-  24 1.87  21 1.87  26 1.87  18 1.87  29 1.88  30 1.89
   3  0.999  0.500  0.981-  13 1.73  22 1.92  19 1.93  23 1.97  25 1.97  31 2.02
   4  0.010  0.501  0.502-   9 1.78  10 1.97  13 1.97  31 2.01  26 2.04  24 2.04
   5  0.500  0.001  0.981-  14 1.74  27 1.93  28 1.93  20 1.96  17 1.96  32 2.02
   6  0.499  0.989  0.502-  12 1.78  14 1.97  11 1.98  32 2.01  18 2.04  21 2.04
   7  0.499  0.500  0.994-  16 1.78  15 1.95  27 1.99  22 1.99  19 1.99  28 1.99
   8  0.509  0.492  0.495-  15 1.92  10 1.94  11 1.95  16 2.09  12 2.11   9 2.12
   9  0.238  0.501  0.499-   4 1.78   8 2.12
  10  0.758  0.501  0.499-   8 1.94   4 1.97
  11  0.500  0.243  0.498-   8 1.95   6 1.98
  12  0.499  0.762  0.499-   6 1.78   8 2.11
  13  0.998  0.500  0.757-   3 1.73   4 1.97
  14  0.500  0.002  0.756-   5 1.74   6 1.97
  15  0.505  0.494  0.246-   8 1.92   7 1.95
  16  0.501  0.499  0.764-   7 1.78   8 2.09
  17  0.250  0.994  0.004-   5 1.96   1 1.96
  18  0.238  0.001  0.498-   2 1.87   6 2.04
  19  0.245  0.498  0.009-   3 1.93   7 1.99
  20  0.749  0.005  0.005-   5 1.96   1 1.96
  21  0.760  0.001  0.498-   2 1.87   6 2.04
  22  0.754  0.504  0.007-   3 1.92   7 1.99
  23  0.995  0.250  0.005-   1 1.95   3 1.97
  24  0.999  0.240  0.498-   2 1.87   4 2.04
  25  0.005  0.751  0.003-   1 1.95   3 1.97
  26  0.999  0.762  0.499-   2 1.87   4 2.04
  27  0.495  0.246  0.007-   5 1.93   7 1.99
  28  0.502  0.755  0.009-   5 1.93   7 1.99
  29  0.999  0.001  0.257-   2 1.88   1 1.98
  30  0.999  0.001  0.744-   2 1.89   1 1.99
  31  0.997  0.501  0.242-   4 2.01   3 2.02
  32  0.499  0.003  0.242-   6 2.01   5 2.02
 

IMPORTANT INFORMATION: All symmetrisations will be switched off!
NOSYMM: (Re-)initialisation of all symmetry stuff for point group C_1.

 
 
 KPOINTS: Title                                   

Automatic generation of k-mesh.
Space group operators:
 irot       det(A)        alpha          n_x          n_y          n_z        tau_x        tau_y        tau_z
    1     1.000000     0.000001     1.000000     0.000000     0.000000     0.000000     0.000000     0.000000
 
 Subroutine IBZKPT returns following result:
 ===========================================
 
 Found      4 irreducible k-points:
 
 Following reciprocal coordinates:
            Coordinates               Weight
  0.250000  0.250000  0.250000      2.000000
 -0.250000  0.250000  0.250000      2.000000
  0.250000 -0.250000  0.250000      2.000000
 -0.250000 -0.250000  0.250000      2.000000
 
 Following cartesian coordinates:
            Coordinates               Weight
  0.032100  0.032001  0.032326      2.000000
 -0.031868  0.031852  0.032255      2.000000
  0.031949 -0.031963  0.032436      2.000000
 -0.032020 -0.032112  0.032366      2.000000
 


--------------------------------------------------------------------------------------------------------




 Dimension of arrays:
   k-points           NKPTS =      4   k-points in BZ     NKDIM =      4   number of bands    NBANDS=    160
   number of dos      NEDOS =   3001   number of ions     NIONS =     32
   non local maximal  LDIM  =      6   non local SUM 2l+1 LMDIM =     18
   total plane-waves  NPLWV = 343000
   max r-space proj   IRMAX =  10071   max aug-charges    IRDMAX= 225762
   dimension x,y,z NGX =    70 NGY =   70 NGZ =   70
   dimension x,y,z NGXF=   140 NGYF=  140 NGZF=  140
   support grid    NGXF=   280 NGYF=  280 NGZF=  280
   ions per type =               8   8  16
   NGX,Y,Z   is equivalent  to a cutoff of  14.89, 14.89, 15.06 a.u.
   NGXF,Y,Z  is equivalent  to a cutoff of  29.78, 29.77, 30.11 a.u.

 SYSTEM =  LTO                                     
 POSCAR =  TiOF2 2x2x2 config 2000                 

 Startparameter for this run:
   NWRITE =      2    write-flag & timer
   PREC   = accura    normal or accurate (medium, high low for compatibility)
   ISTART =      1    job   : 0-new  1-cont  2-samecut
   ICHARG =      0    charge: 1-file 2-atom 10-const
   ISPIN  =      2    spin polarized calculation?
   LNONCOLLINEAR =      F non collinear calculations
   LSORBIT =      F    spin-orbit coupling
   INIWAV =      1    electr: 0-lowe 1-rand  2-diag
   LASPH  =      T    aspherical Exc in radial PAW
   METAGGA=      F    non-selfconsistent MetaGGA calc.

 Electronic Relaxation 1
   ENCUT  =  700.0 eV  51.45 Ry    7.17 a.u.  16.86 16.86 16.67*2*pi/ulx,y,z
   ENINI  =  700.0     initial cutoff
   ENAUG  =  613.6 eV  augmentation charge cutoff
   NELM   =     60;   NELMIN=  2; NELMDL=  0     # of ELM steps 
   EDIFF  = 0.1E-05   stopping-criterion for ELM
   LREAL  =      T    real-space projection
   NLSPLINE    = F    spline interpolate recip. space projectors
   LCOMPAT=      F    compatible to vasp.4.4
   GGA_COMPAT  = T    GGA compatible to vasp.4.4-vasp.4.6
   LMAXPAW     = -100 max onsite density
   LMAXMIX     =    4 max onsite mixed and CHGCAR
   VOSKOWN=      0    Vosko Wilk Nusair interpolation
   ROPT   =   -0.00010  -0.00010  -0.00010
 Ionic relaxation
   EDIFFG = -.1E-01   stopping-criterion for IOM
   NSW    =    100    number of steps for IOM
   NBLOCK =      1;   KBLOCK =    100    inner block; outer block 
   IBRION =      1    ionic relax: 0-MD 1-quasi-New 2-CG
   NFREE  =      0    steps in history (QN), initial steepest desc. (CG)
   ISIF   =      3    stress and relaxation
   IWAVPR =     11    prediction:  0-non 1-charg 2-wave 3-comb
   ISYM   =      0    0-nonsym 1-usesym 2-fastsym
   LCORR  =      T    Harris-Foulkes like correction to forces

   POTIM  = 0.5000    time-step for ionic-motion
   TEIN   =    0.0    initial temperature
   TEBEG  =    0.0;   TEEND  =   0.0 temperature during run
   SMASS  =  -3.00    Nose mass-parameter (am)
   estimated Nose-frequenzy (Omega)   =  0.10E-29 period in steps =****** mass=  -0.140E-26a.u.
   SCALEE = 1.0000    scale energy and forces
   NPACO  =    256;   APACO  = 16.0  distance and # of slots for P.C.
   PSTRESS=    0.0 pullay stress

  Mass of Ions in am
   POMASS =  47.88 16.00 19.00
  Ionic Valenz
   ZVAL   =  10.00  6.00  7.00
  Atomic Wigner-Seitz radii
   RWIGS  =  -1.00 -1.00 -1.00
  virtual crystal weights 
   VCA    =   1.00  1.00  1.00
   NELECT =     240.0000    total number of electrons
   NUPDOWN=      -1.0000    fix difference up-down

 DOS related values:
   EMIN   =  10.00;   EMAX   =-10.00  energy-range for DOS
   EFERMI =   0.00
   ISMEAR =     0;   SIGMA  =   0.01  broadening in eV -4-tet -1-fermi 0-gaus

 Electronic relaxation 2 (details)
   IALGO  =     38    algorithm
   LDIAG  =      T    sub-space diagonalisation (order eigenvalues)
   LSUBROT=      F    optimize rotation matrix (better conditioning)
   TURBO    =      0    0=normal 1=particle mesh
   IRESTART =      0    0=no restart 2=restart with 2 vectors
   NREBOOT  =      0    no. of reboots
   NMIN     =      0    reboot dimension
   EREF     =   0.00    reference energy to select bands
   IMIX   =      4    mixing-type and parameters
     AMIX     =   0.40;   BMIX     =  1.00
     AMIX_MAG =   1.60;   BMIX_MAG =  1.00
     AMIN     =   0.10
     WC   =   100.;   INIMIX=   1;  MIXPRE=   1;  MAXMIX= -45

 Intra band minimization:
   WEIMIN = 0.0010     energy-eigenvalue tresh-hold
   EBREAK =  0.16E-08  absolut break condition
   DEPER  =   0.30     relativ break condition  

   TIME   =   0.40     timestep for ELM

  volume/ion in A,a.u.               =      14.76        99.59
  Fermi-wavevector in a.u.,A,eV,Ry     =   1.306437  2.468807 23.222109  1.706777
  Thomas-Fermi vector in A             =   2.437239
 
 Write flags
   LWAVE        =      T    write WAVECAR
   LDOWNSAMPLE  =      F    k-point downsampling of WAVECAR
   LCHARG       =      T    write CHGCAR
   LVTOT        =      F    write LOCPOT, total local potential
   LVHAR        =      F    write LOCPOT, Hartree potential only
   LELF         =      F    write electronic localiz. function (ELF)
   LORBIT       =     11    0 simple, 1 ext, 2 COOP (PROOUT), +10 PAW based schemes


 Dipole corrections
   LMONO  =      F    monopole corrections only (constant potential shift)
   LDIPOL =      F    correct potential (dipole corrections)
   IDIPOL =      0    1-x, 2-y, 3-z, 4-all directions 
   EPSILON=  1.0000000 bulk dielectric constant

 LDA+U is selected, type is set to LDAUTYPE =  2
   angular momentum for each species LDAUL =     2   -1   -1
   U (eV)           for each species LDAUU =   4.2  0.0  0.0
   J (eV)           for each species LDAUJ =   0.0  0.0  0.0
 Exchange correlation treatment:
   GGA     =    PS    GGA type
   LEXCH   =    14    internal setting for exchange type
   VOSKOWN=      0    Vosko Wilk Nusair interpolation
   LHFCALC =     F    Hartree Fock is set to
   LHFONE  =     F    Hartree Fock one center treatment
   AEXX    =    0.0000 exact exchange contribution

 Linear response parameters
   LEPSILON=     F    determine dielectric tensor
   LRPA    =     F    only Hartree local field effects (RPA)
   LNABLA  =     F    use nabla operator in PAW spheres
   LVEL    =     F    velocity operator in full k-point grid
   LINTERFAST=   F  fast interpolation
   KINTER  =     0    interpolate to denser k-point grid
   CSHIFT  =0.1000    complex shift for real part using Kramers Kronig
   OMEGAMAX=  -1.0    maximum frequency
   DEG_THRESHOLD= 0.2000000E-02 threshold for treating states as degnerate
   RTIME   =   -0.100 relaxation time in fs
  (WPLASMAI=    0.000 imaginary part of plasma frequency in eV, 0.658/RTIME)
   DFIELD  = 0.0000000 0.0000000 0.0000000 field for delta impulse in time
 
 Orbital magnetization related:
   ORBITALMAG=     F  switch on orbital magnetization
   LCHIMAG   =     F  perturbation theory with respect to B field
   DQ        =  0.001000  dq finite difference perturbation B field
   LLRAUG    =     F  two centre corrections for induced B field



--------------------------------------------------------------------------------------------------------


 quasi-Newton-method for relaxation of ions
 charge density and potential will be updated during run
 spin polarized calculation
 Variant of blocked Davidson
 Davidson routine will perform the subspace rotation
 perform sub-space diagonalisation
    after iterative eigenvector-optimisation
 modified Broyden-mixing scheme, WC =      100.0
 initial mixing is a Kerker type mixing with AMIX =  0.4000 and BMIX =      1.0000
 Hartree-type preconditioning will be used
 using additional bands           40
 real space projection scheme for non local part
 use partial core corrections
 calculate Harris-corrections to forces 
   (improved forces if not selfconsistent)
 use gradient corrections 
 use of overlap-Matrix (Vanderbilt PP)
 Gauss-broadening in eV      SIGMA  =   0.01


--------------------------------------------------------------------------------------------------------


  energy-cutoff  :      700.00
  volume of cell :      472.25
      direct lattice vectors                 reciprocal lattice vectors
     7.816457268 -0.018557836 -0.009783677     0.127936080  0.000297518  0.000141504
    -0.018193472  7.816985434  0.013495492     0.000303449  0.127927641 -0.000220959
    -0.008579790  0.013370107  7.729041737     0.000161416 -0.000222995  0.129382710

  length of vectors
     7.816485421  7.817018255  7.729058064     0.127936505  0.127928191  0.129383003


 
 old parameters found on file WAVECAR:
  energy-cutoff  :      700.00
  volume of cell :      472.26
      direct lattice vectors                 reciprocal lattice vectors
     7.816392714 -0.018488699 -0.009634483     0.127937126  0.000296373  0.000139040
    -0.018123499  7.817109869  0.013603069     0.000302317  0.127925605 -0.000222735
    -0.008431166  0.013477426  7.729182812     0.000158942 -0.000224775  0.129380349

  length of vectors

 
 k-points in units of 2pi/SCALE and weight: Title                                   
   0.03210024  0.03200054  0.03232581       0.250
  -0.03186780  0.03185178  0.03225506       0.250
   0.03194851 -0.03196328  0.03243629       0.250
  -0.03201953 -0.03211204  0.03236554       0.250
 
 k-points in reciprocal lattice and weights: Title                                   
   0.25000000  0.25000000  0.25000000       0.250
  -0.25000000  0.25000000  0.25000000       0.250
   0.25000000 -0.25000000  0.25000000       0.250
  -0.25000000 -0.25000000  0.25000000       0.250
 
 position of ions in fractional coordinates (direct lattice) 
   0.99972177  0.00044222  0.00087118
   0.99885475  0.00129994  0.49982796
   0.99882978  0.50046803  0.98115580
   0.01009357  0.50145044  0.50198435
   0.49967072  0.00091263  0.98070997
   0.49871559  0.98922629  0.50166926
   0.49937868  0.50021391  0.99397395
   0.50925846  0.49180156  0.49463194
   0.23772725  0.50116434  0.49934277
   0.75771296  0.50070186  0.49866350
   0.49960798  0.24255194  0.49770878
   0.49924323  0.76178768  0.49883283
   0.99806404  0.49978002  0.75699423
   0.50012235  0.00210918  0.75614873
   0.50462083  0.49425160  0.24645022
   0.50105946  0.49865811  0.76421432
   0.25039307  0.99437042  0.00381747
   0.23845432  0.00052282  0.49824394
   0.24468349  0.49824544  0.00898571
   0.74892770  0.00549174  0.00484128
   0.75962125  0.00059488  0.49804596
   0.75408740  0.50425728  0.00745447
   0.99476492  0.25004979  0.00489086
   0.99933457  0.24037798  0.49774047
   0.00496726  0.75089140  0.00309041
   0.99928517  0.76187446  0.49870743
   0.49546020  0.24569827  0.00706077
   0.50220971  0.75490307  0.00904006
   0.99944642  0.00051527  0.25677812
   0.99948828  0.00107976  0.74391224
   0.99714325  0.50133261  0.24202723
   0.49905158  0.00297508  0.24218380
 
 position of ions in cartesian coordinates  (Angst):
   7.81426698 -0.01508421 -0.00304162
   7.80319343 -0.00169223  3.85343622
   7.78978693  3.90673335  7.58037593
   0.06546590  3.92635509  3.88652655
   3.89722393  0.01097341  7.57507199
   3.87588742  7.73021977  3.88589346
   3.88574343  3.91418701  7.68433100
   3.96740556  3.84156818  3.82468560
   1.84478270  3.91985887  3.86387876
   5.90924302  3.90658478  3.85353500
   3.89648132  1.89340777  3.84519731
   3.88417392  5.95228774  3.86089603
   7.78573737  3.89837231  5.84782003
   3.90265900  0.01731600  5.83944051
   3.93324054  3.85748799  1.90655714
   3.90088073  3.89892223  5.90847178
   1.93906292  7.76838338  0.04047516
   1.85958367  0.00632327  3.84862229
   1.90341616  3.89035667  0.07378113
   5.85381990  0.02909507  0.03016527
   5.93326308 -0.00278783  3.84199417
   5.88505383  3.92787725  0.05704339
   7.77094628  1.93624025  0.03144374
   7.80261213  1.86714053  3.84052370
   0.02513853  5.86965627  0.03397093
   7.79272986  5.94368478  3.85503574
   3.86821277  1.91151954  0.05304141
   3.91168886  5.89186723  0.07514535
   7.80991774 -0.01108654  1.97487749
   7.80605514 -0.00016170  5.73996464
   7.78293007  3.90364082  1.86764854
   3.89868332  0.01723284  1.86700629
 


--------------------------------------------------------------------------------------------------------


 k-point  1 :   0.2500 0.2500 0.2500  plane waves:   19856
 k-point  2 :  -0.2500 0.2500 0.2500  plane waves:   19881
 k-point  3 :   0.2500-0.2500 0.2500  plane waves:   19875
 k-point  4 :  -0.2500-0.2500 0.2500  plane waves:   19852

 maximum and minimum number of plane-waves per node :      2504     2457

 maximum number of plane-waves:     19881
 maximum index in each direction: 
   IXMAX=   17   IYMAX=   17   IZMAX=   16
   IXMIN=  -17   IYMIN=  -17   IZMIN=  -16


 real space projection operators:
  total allocation   :      18122.28 KBytes
  max/ min on nodes  :       2410.88       1880.56


 parallel 3D FFT for wavefunctions:
    minimum data exchange during FFTs selected (reduces bandwidth)
 parallel 3D FFT for charge:
    minimum data exchange during FFTs selected (reduces bandwidth)


 total amount of memory used by VASP MPI-rank0    62245. kBytes
=======================================================================

   base      :      30000. kBytes
   nonlr-proj:       8402. kBytes
   fftplans  :       8424. kBytes
   grid      :       8783. kBytes
   one-center:        124. kBytes
   wavefun   :       6512. kBytes
 
     INWAV:  cpu time    3.8294: real time    4.4350
 Broyden mixing: mesh for mixing (old mesh)
   NGX = 33   NGY = 33   NGZ = 33
  (NGX  =140   NGY  =140   NGZ  =140)
  gives a total of  35937 points

 charge density for first step will be calculated from the start-wavefunctions


--------------------------------------------------------------------------------------------------------


 Maximum index for non-local projection operator         1350
 Maximum index for augmentation-charges         7038 (set IRDMAX)


--------------------------------------------------------------------------------------------------------


 initial charge from wavefunction
 First call to EWALD:  gamma=   0.228
 Maximum number of real-space cells 3x 3x 3
 Maximum number of reciprocal cells 3x 3x 3

    FEWALD:  cpu time    0.0040: real time    0.0033


--------------------------------------- Iteration      1(   1)  ---------------------------------------


    POTLOK:  cpu time    0.2180: real time    0.3928
    SETDIJ:  cpu time    0.8269: real time    0.8350
     EDDAV:  cpu time    4.5993: real time    4.6087
       DOS:  cpu time    0.0000: real time    0.0009
    CHARGE:  cpu time    0.3669: real time    0.3793
    MIXING:  cpu time    0.0020: real time    0.0028
    --------------------------------------------
      LOOP:  cpu time    6.0131: real time    6.2194

 eigenvalue-minimisations  :  3672
 total energy-change (2. order) :-0.2079404E+03  (-0.2065470E-04)
 number of electron     240.0000004 magnetization       0.0000000
 augmentation part       62.0647412 magnetization       0.4145640

 Broyden mixing:
  rms(total) = 0.61887E-01    rms(broyden)= 0.61864E-01
  rms(prec ) = 0.86545E-01
  weight for this iteration     100.00

 Free energy of the ion-electron system (eV)
  ---------------------------------------------------
  alpha Z        PSCENC =       741.48690687
  Ewald energy   TEWEN  =    -12603.41630179
  -Hartree energ DENC   =     -8392.05826376
  -exchange      EXHF   =         0.00000000
  -V(xc)+E(xc)   XCENC  =      1119.14953761
  PAW double counting   =     17995.41965259   -18115.00966751
  entropy T*S    EENTRO =        -0.00000000
  eigenvalues    EBANDS =     -3255.86545517
  atomic energy  EATOM  =     22302.35321627
  Solvation  Ediel_sol  =         0.00000000
  ---------------------------------------------------
  free energy    TOTEN  =      -207.94037490 eV

  energy without entropy =     -207.94037490  energy(sigma->0) =     -207.94037490


--------------------------------------------------------------------------------------------------------




--------------------------------------- Iteration      1(   2)  ---------------------------------------


    POTLOK:  cpu time    0.1500: real time    0.1654
    SETDIJ:  cpu time    0.8419: real time    0.8397
     EDDAV:  cpu time    4.8703: real time    4.8732
       DOS:  cpu time    0.0010: real time    0.0012
    CHARGE:  cpu time    0.3759: real time    0.3744
    MIXING:  cpu time    0.0040: real time    0.0030
    --------------------------------------------
      LOOP:  cpu time    6.2431: real time    6.2568

 eigenvalue-minimisations  :  3856
 total energy-change (2. order) :-0.1070962E-01  (-0.2609028E-02)
 number of electron     240.0000004 magnetization       0.0000000
 augmentation part       62.0643770 magnetization       0.4141547

 Broyden mixing:
  rms(total) = 0.26188E+00    rms(broyden)= 0.26180E+00
  rms(prec ) = 0.35892E+00
  weight for this iteration     100.00

 eigenvalues of (default mixing * dielectric matrix)
  average eigenvalue GAMMA=   0.1859
  0.1859

 Free energy of the ion-electron system (eV)
  ---------------------------------------------------
  alpha Z        PSCENC =       741.48690687
  Ewald energy   TEWEN  =    -12603.41630179
  -Hartree energ DENC   =     -8392.06218385
  -exchange      EXHF   =         0.00000000
  -V(xc)+E(xc)   XCENC  =      1119.14982325
  PAW double counting   =     17995.43023251   -18115.02012123
  entropy T*S    EENTRO =        -0.00000000
  eigenvalues    EBANDS =     -3255.87265655
  atomic energy  EATOM  =     22302.35321627
  Solvation  Ediel_sol  =         0.00000000
  ---------------------------------------------------
  free energy    TOTEN  =      -207.95108452 eV

  energy without entropy =     -207.95108452  energy(sigma->0) =     -207.95108452


--------------------------------------------------------------------------------------------------------




--------------------------------------- Iteration      1(   3)  ---------------------------------------


    POTLOK:  cpu time    0.1540: real time    0.1712
    SETDIJ:  cpu time    0.8379: real time    0.8364
     EDDAV:  cpu time    4.5753: real time    4.5741
       DOS:  cpu time    0.0010: real time    0.0010
    CHARGE:  cpu time    0.3779: real time    0.3744
    MIXING:  cpu time    0.0030: real time    0.0031
    --------------------------------------------
      LOOP:  cpu time    5.9491: real time    5.9603

 eigenvalue-minimisations  :  3680
 total energy-change (2. order) : 0.1282430E-01  (-0.1580854E-02)
 number of electron     240.0000004 magnetization       0.0000000
 augmentation part       62.0647576 magnetization       0.4145066

 Broyden mixing:
  rms(total) = 0.32163E-01    rms(broyden)= 0.31987E-01
  rms(prec ) = 0.44385E-01
  weight for this iteration     100.00

 eigenvalues of (default mixing * dielectric matrix)
  average eigenvalue GAMMA=   0.2891
  0.3188  0.2594

 Free energy of the ion-electron system (eV)
  ---------------------------------------------------
  alpha Z        PSCENC =       741.48690687
  Ewald energy   TEWEN  =    -12603.41630179
  -Hartree energ DENC   =     -8392.06245684
  -exchange      EXHF   =         0.00000000
  -V(xc)+E(xc)   XCENC  =      1119.14945046
  PAW double counting   =     17995.42369333   -18115.01430852
  entropy T*S    EENTRO =        -0.00000000
  eigenvalues    EBANDS =     -3255.85846000
  atomic energy  EATOM  =     22302.35321627
  Solvation  Ediel_sol  =         0.00000000
  ---------------------------------------------------
  free energy    TOTEN  =      -207.93826022 eV

  energy without entropy =     -207.93826022  energy(sigma->0) =     -207.93826022


--------------------------------------------------------------------------------------------------------




--------------------------------------- Iteration      1(   4)  ---------------------------------------


    POTLOK:  cpu time    0.1850: real time    0.2150
    SETDIJ:  cpu time    0.8359: real time    0.8343
     EDDAV:  cpu time    3.6644: real time    3.6631
       DOS:  cpu time    0.0010: real time    0.0009
    CHARGE:  cpu time    0.3789: real time    0.3773
    MIXING:  cpu time    0.0030: real time    0.0028
    --------------------------------------------
      LOOP:  cpu time    5.0682: real time    5.0933

 eigenvalue-minimisations  :  2608
 total energy-change (2. order) :-0.1266565E-02  (-0.3527033E-03)
 number of electron     240.0000004 magnetization       0.0000000
 augmentation part       62.0646286 magnetization       0.4145600

 Broyden mixing:
  rms(total) = 0.34663E-02    rms(broyden)= 0.31384E-02
  rms(prec ) = 0.50319E-02
  weight for this iteration     100.00

 eigenvalues of (default mixing * dielectric matrix)
  average eigenvalue GAMMA=   0.3929
  0.4723  0.4723  0.2340

 Free energy of the ion-electron system (eV)
  ---------------------------------------------------
  alpha Z        PSCENC =       741.48690687
  Ewald energy   TEWEN  =    -12603.41630179
  -Hartree energ DENC   =     -8392.06327727
  -exchange      EXHF   =         0.00000000
  -V(xc)+E(xc)   XCENC  =      1119.14958950
  PAW double counting   =     17995.42803891   -18115.01807570
  entropy T*S    EENTRO =        -0.00000000
  eigenvalues    EBANDS =     -3255.85962356
  atomic energy  EATOM  =     22302.35321627
  Solvation  Ediel_sol  =         0.00000000
  ---------------------------------------------------
  free energy    TOTEN  =      -207.93952679 eV

  energy without entropy =     -207.93952679  energy(sigma->0) =     -207.93952679


--------------------------------------------------------------------------------------------------------




--------------------------------------- Iteration      1(   5)  ---------------------------------------


    POTLOK:  cpu time    0.2140: real time    0.2241
    SETDIJ:  cpu time    0.8369: real time    0.8353
     EDDAV:  cpu time    3.7154: real time    3.7139
       DOS:  cpu time    0.0010: real time    0.0010
    CHARGE:  cpu time    0.3779: real time    0.3756
    MIXING:  cpu time    0.0030: real time    0.0031
    --------------------------------------------
      LOOP:  cpu time    5.1482: real time    5.1529

 eigenvalue-minimisations  :  2736
 total energy-change (2. order) :-0.2270222E-03  (-0.1404491E-04)
 number of electron     240.0000004 magnetization       0.0000000
 augmentation part       62.0646668 magnetization       0.4145440

 Broyden mixing:
  rms(total) = 0.16689E-01    rms(broyden)= 0.16687E-01
  rms(prec ) = 0.22180E-01
  weight for this iteration     100.00

 eigenvalues of (default mixing * dielectric matrix)
  average eigenvalue GAMMA=   0.4973
  0.7184  0.7184  0.2762  0.2762

 Free energy of the ion-electron system (eV)
  ---------------------------------------------------
  alpha Z        PSCENC =       741.48690687
  Ewald energy   TEWEN  =    -12603.41630179
  -Hartree energ DENC   =     -8392.06201204
  -exchange      EXHF   =         0.00000000
  -V(xc)+E(xc)   XCENC  =      1119.14964662
  PAW double counting   =     17995.42268704   -18115.01271488
  entropy T*S    EENTRO =        -0.00000000
  eigenvalues    EBANDS =     -3255.86118189
  atomic energy  EATOM  =     22302.35321627
  Solvation  Ediel_sol  =         0.00000000
  ---------------------------------------------------
  free energy    TOTEN  =      -207.93975381 eV

  energy without entropy =     -207.93975381  energy(sigma->0) =     -207.93975381


--------------------------------------------------------------------------------------------------------




--------------------------------------- Iteration      1(   6)  ---------------------------------------


    POTLOK:  cpu time    0.2950: real time    0.3515
    SETDIJ:  cpu time    0.8269: real time    0.8345
     EDDAV:  cpu time    3.4285: real time    3.4396
       DOS:  cpu time    0.0010: real time    0.0009
    CHARGE:  cpu time    0.3609: real time    0.3705
    MIXING:  cpu time    0.0030: real time    0.0032
    --------------------------------------------
      LOOP:  cpu time    4.9153: real time    5.0002

 eigenvalue-minimisations  :  2472
 total energy-change (2. order) : 0.1264536E-04  (-0.1537324E-05)
 number of electron     240.0000004 magnetization       0.0000000
 augmentation part       62.0646345 magnetization       0.4145507

 Broyden mixing:
  rms(total) = 0.14009E-01    rms(broyden)= 0.14009E-01
  rms(prec ) = 0.18777E-01
  weight for this iteration     100.00

 eigenvalues of (default mixing * dielectric matrix)
  average eigenvalue GAMMA=   0.5633
  0.8949  0.8949  0.2530  0.3868  0.3868

 Free energy of the ion-electron system (eV)
  ---------------------------------------------------
  alpha Z        PSCENC =       741.48690687
  Ewald energy   TEWEN  =    -12603.41630179
  -Hartree energ DENC   =     -8392.06290001
  -exchange      EXHF   =         0.00000000
  -V(xc)+E(xc)   XCENC  =      1119.14971854
  PAW double counting   =     17995.42388332   -18115.01387000
  entropy T*S    EENTRO =        -0.00000000
  eigenvalues    EBANDS =     -3255.86039435
  atomic energy  EATOM  =     22302.35321627
  Solvation  Ediel_sol  =         0.00000000
  ---------------------------------------------------
  free energy    TOTEN  =      -207.93974116 eV

  energy without entropy =     -207.93974116  energy(sigma->0) =     -207.93974116


--------------------------------------------------------------------------------------------------------




--------------------------------------- Iteration      1(   7)  ---------------------------------------


    POTLOK:  cpu time    0.2380: real time    0.2553
    SETDIJ:  cpu time    0.8369: real time    0.8348
     EDDAV:  cpu time    3.5455: real time    3.5431
       DOS:  cpu time    0.0010: real time    0.0010
    CHARGE:  cpu time    0.3759: real time    0.3741
    MIXING:  cpu time    0.0040: real time    0.0033
    --------------------------------------------
      LOOP:  cpu time    5.0012: real time    5.0117

 eigenvalue-minimisations  :  2592
 total energy-change (2. order) : 0.1627648E-04  (-0.1319321E-05)
 number of electron     240.0000004 magnetization       0.0000000
 augmentation part       62.0646968 magnetization       0.4145455

 Broyden mixing:
  rms(total) = 0.68794E-02    rms(broyden)= 0.68774E-02
  rms(prec ) = 0.90753E-02
  weight for this iteration     100.00

 eigenvalues of (default mixing * dielectric matrix)
  average eigenvalue GAMMA=   0.5549
  0.9486  0.9486  0.2626  0.2968  0.4364  0.4364

 Free energy of the ion-electron system (eV)
  ---------------------------------------------------
  alpha Z        PSCENC =       741.48690687
  Ewald energy   TEWEN  =    -12603.41630179
  -Hartree energ DENC   =     -8392.06198285
  -exchange      EXHF   =         0.00000000
  -V(xc)+E(xc)   XCENC  =      1119.14974940
  PAW double counting   =     17995.42077063   -18115.01074956
  entropy T*S    EENTRO =        -0.00000000
  eigenvalues    EBANDS =     -3255.86133386
  atomic energy  EATOM  =     22302.35321627
  Solvation  Ediel_sol  =         0.00000000
  ---------------------------------------------------
  free energy    TOTEN  =      -207.93972489 eV

  energy without entropy =     -207.93972489  energy(sigma->0) =     -207.93972489


--------------------------------------------------------------------------------------------------------




--------------------------------------- Iteration      1(   8)  ---------------------------------------


    POTLOK:  cpu time    0.2300: real time    0.2560
    SETDIJ:  cpu time    0.8669: real time    0.8790
     EDDAV:  cpu time    3.2645: real time    3.2738
       DOS:  cpu time    0.0010: real time    0.0011
    CHARGE:  cpu time    0.3749: real time    0.3739
    MIXING:  cpu time    0.0040: real time    0.0032
    --------------------------------------------
      LOOP:  cpu time    4.7413: real time    4.7870

 eigenvalue-minimisations  :  2368
 total energy-change (2. order) :-0.5381124E-05  (-0.8122085E-06)
 number of electron     240.0000004 magnetization       0.0000000
 augmentation part       62.0646263 magnetization       0.4145465

 Broyden mixing:
  rms(total) = 0.45363E-02    rms(broyden)= 0.45354E-02
  rms(prec ) = 0.59831E-02
  weight for this iteration     100.00

 eigenvalues of (default mixing * dielectric matrix)
  average eigenvalue GAMMA=   0.7399
  1.2974  1.2974  0.7434  0.7434  0.2566  0.3272  0.5141

 Free energy of the ion-electron system (eV)
  ---------------------------------------------------
  alpha Z        PSCENC =       741.48690687
  Ewald energy   TEWEN  =    -12603.41630179
  -Hartree energ DENC   =     -8392.06334942
  -exchange      EXHF   =         0.00000000
  -V(xc)+E(xc)   XCENC  =      1119.14975679
  PAW double counting   =     17995.42378893   -18115.01358029
  entropy T*S    EENTRO =        -0.00000000
  eigenvalues    EBANDS =     -3255.86016762
  atomic energy  EATOM  =     22302.35321627
  Solvation  Ediel_sol  =         0.00000000
  ---------------------------------------------------
  free energy    TOTEN  =      -207.93973027 eV

  energy without entropy =     -207.93973027  energy(sigma->0) =     -207.93973027


--------------------------------------------------------------------------------------------------------




--------------------------------------- Iteration      1(   9)  ---------------------------------------


    POTLOK:  cpu time    0.1440: real time    0.1644
    SETDIJ:  cpu time    0.8319: real time    0.8368
     EDDAV:  cpu time    2.9496: real time    2.9536
       DOS:  cpu time    0.0000: real time    0.0009
    CHARGE:  cpu time    0.3649: real time    0.3736
    MIXING:  cpu time    0.0030: real time    0.0032
    --------------------------------------------
      LOOP:  cpu time    4.2933: real time    4.3325

 eigenvalue-minimisations  :  2008
 total energy-change (2. order) :-0.1424491E-05  (-0.2990718E-06)
 number of electron     240.0000004 magnetization       0.0000000
 augmentation part       62.0647096 magnetization       0.4145488

 Broyden mixing:
  rms(total) = 0.25281E-02    rms(broyden)= 0.25273E-02
  rms(prec ) = 0.33967E-02
  weight for this iteration     100.00

 eigenvalues of (default mixing * dielectric matrix)
  average eigenvalue GAMMA=   0.8044
  1.4831  1.4831  0.9004  0.9004  0.2568  0.3241  0.5439  0.5439

 Free energy of the ion-electron system (eV)
  ---------------------------------------------------
  alpha Z        PSCENC =       741.48690687
  Ewald energy   TEWEN  =    -12603.41630179
  -Hartree energ DENC   =     -8392.06377444
  -exchange      EXHF   =         0.00000000
  -V(xc)+E(xc)   XCENC  =      1119.14991235
  PAW double counting   =     17995.42344196   -18115.01335282
  entropy T*S    EENTRO =        -0.00000000
  eigenvalues    EBANDS =     -3255.85978008
  atomic energy  EATOM  =     22302.35321627
  Solvation  Ediel_sol  =         0.00000000
  ---------------------------------------------------
  free energy    TOTEN  =      -207.93973169 eV

  energy without entropy =     -207.93973169  energy(sigma->0) =     -207.93973169


--------------------------------------------------------------------------------------------------------




--------------------------------------- Iteration      1(  10)  ---------------------------------------


    POTLOK:  cpu time    0.3260: real time    0.3466
    SETDIJ:  cpu time    0.8309: real time    0.8381
     EDDAV:  cpu time    2.9586: real time    2.9680
       DOS:  cpu time    0.0010: real time    0.0009
    --------------------------------------------
      LOOP:  cpu time    4.1164: real time    4.1536

 eigenvalue-minimisations  :  1992
 total energy-change (2. order) :-0.7107665E-06  (-0.2441964E-06)
 number of electron     240.0000004 magnetization       0.0000000
 augmentation part       62.0647096 magnetization       0.4145488

 Free energy of the ion-electron system (eV)
  ---------------------------------------------------
  alpha Z        PSCENC =       741.48690687
  Ewald energy   TEWEN  =    -12603.41630179
  -Hartree energ DENC   =     -8392.06433323
  -exchange      EXHF   =         0.00000000
  -V(xc)+E(xc)   XCENC  =      1119.14988613
  PAW double counting   =     17995.42466946   -18115.01439382
  entropy T*S    EENTRO =        -0.00000000
  eigenvalues    EBANDS =     -3255.85938229
  atomic energy  EATOM  =     22302.35321627
  Solvation  Ediel_sol  =         0.00000000
  ---------------------------------------------------
  free energy    TOTEN  =      -207.93973240 eV

  energy without entropy =     -207.93973240  energy(sigma->0) =     -207.93973240


--------------------------------------------------------------------------------------------------------




 average (electrostatic) potential at core
  the test charge radii are     1.0397  0.7215  0.7167
  (the norm of the test charge is              1.0000)
       1 -58.4311       2 -60.7025       3 -59.1634       4 -57.9846       5 -59.1606
       6 -58.0211       7 -58.3318       8 -57.3954       9 -72.9262      10 -72.9183
      11 -73.0058      12 -72.9774      13 -74.3229      14 -74.3142      15 -73.1878
      16 -73.1929      17 -79.9361      18 -80.0796      19 -79.4267      20 -79.9385
      21 -80.0802      22 -79.4202      23 -80.0205      24 -80.0840      25 -80.0166
      26 -80.0816      27 -79.4176      28 -79.4215      29 -80.5677      30 -80.6001
      31 -78.6492      32 -78.6436
 
 
 
 E-fermi :   0.3520     XC(G=0):  -8.8721     alpha+bet : -7.4824


 spin component 1

 k-point     1 :       0.2500    0.2500    0.2500
  band No.  band energies     occupation 
      1     -36.7182      1.00000
      2     -36.6208      1.00000
      3     -36.6101      1.00000
      4     -35.3494      1.00000
      5     -35.2658      1.00000
      6     -35.2441      1.00000
      7     -35.1703      1.00000
      8     -35.1666      1.00000
      9     -34.9671      1.00000
     10     -34.9636      1.00000
     11     -34.8088      1.00000
     12     -34.7546      1.00000
     13     -34.4622      1.00000
     14     -34.4343      1.00000
     15     -34.1860      1.00000
     16     -34.1550      1.00000
     17     -34.0493      1.00000
     18     -34.0159      1.00000
     19     -33.9426      1.00000
     20     -33.6575      1.00000
     21     -33.6125      1.00000
     22     -33.2390      1.00000
     23     -33.2092      1.00000
     24     -33.1967      1.00000
     25     -24.4804      1.00000
     26     -24.0462      1.00000
     27     -23.9315      1.00000
     28     -23.8617      1.00000
     29     -23.7918      1.00000
     30     -23.7351      1.00000
     31     -23.4971      1.00000
     32     -23.4706      1.00000
     33     -23.4672      1.00000
     34     -23.4233      1.00000
     35     -23.2719      1.00000
     36     -23.1538      1.00000
     37     -22.9066      1.00000
     38     -22.8619      1.00000
     39     -22.3098      1.00000
     40     -22.3033      1.00000
     41     -16.6932      1.00000
     42     -16.6895      1.00000
     43     -15.7701      1.00000
     44     -15.4554      1.00000
     45     -15.3305      1.00000
     46     -15.0660      1.00000
     47     -14.8696      1.00000
     48     -14.7996      1.00000
     49      -7.9780      1.00000
     50      -7.4475      1.00000
     51      -7.3776      1.00000
     52      -7.3149      1.00000
     53      -7.1810      1.00000
     54      -6.7869      1.00000
     55      -6.7226      1.00000
     56      -6.6157      1.00000
     57      -6.5893      1.00000
     58      -6.5149      1.00000
     59      -6.3540      1.00000
     60      -6.3238      1.00000
     61      -6.1624      1.00000
     62      -6.1195      1.00000
     63      -6.0441      1.00000
     64      -5.9946      1.00000
     65      -5.8237      1.00000
     66      -5.7890      1.00000
     67      -5.7468      1.00000
     68      -5.6770      1.00000
     69      -5.6637      1.00000
     70      -5.6006      1.00000
     71      -5.3216      1.00000
     72      -5.3182      1.00000
     73      -5.1244      1.00000
     74      -5.0797      1.00000
     75      -4.9547      1.00000
     76      -4.9336      1.00000
     77      -4.8923      1.00000
     78      -4.8744      1.00000
     79      -4.8508      1.00000
     80      -4.8142      1.00000
     81      -4.7688      1.00000
     82      -4.7228      1.00000
     83      -4.5834      1.00000
     84      -4.5019      1.00000
     85      -4.4732      1.00000
     86      -4.4586      1.00000
     87      -4.3609      1.00000
     88      -4.2634      1.00000
     89      -4.1936      1.00000
     90      -4.1847      1.00000
     91      -4.0580      1.00000
     92      -3.7143      1.00000
     93      -3.5838      1.00000
     94      -3.5305      1.00000
     95      -3.4833      1.00000
     96      -3.4523      1.00000
     97      -3.4319      1.00000
     98      -3.4095      1.00000
     99      -3.4012      1.00000
    100      -3.2517      1.00000
    101      -3.1438      1.00000
    102      -2.4370      1.00000
    103      -2.3803      1.00000
    104      -2.3060      1.00000
    105      -2.2541      1.00000
    106      -1.6374      1.00000
    107      -1.5801      1.00000
    108      -1.5545      1.00000
    109      -1.5259      1.00000
    110      -1.3963      1.00000
    111      -1.3532      1.00000
    112      -0.7722      1.00000
    113      -0.6518      1.00000
    114      -0.6372      1.00000
    115      -0.5895      1.00000
    116      -0.4725      1.00000
    117      -0.4003      1.00000
    118      -0.2762      1.00000
    119       0.2374      1.00000
    120       0.3083      1.00000
    121       0.4018      0.00000
    122       1.2519      0.00000
    123       1.2940      0.00000
    124       1.4134      0.00000
    125       1.9727      0.00000
    126       2.3247      0.00000
    127       2.4646      0.00000
    128       2.5184      0.00000
    129       2.6130      0.00000
    130       2.6743      0.00000
    131       2.7541      0.00000
    132       2.7726      0.00000
    133       2.8679      0.00000
    134       2.9690      0.00000
    135       3.1984      0.00000
    136       3.2093      0.00000
    137       3.4054      0.00000
    138       3.4715      0.00000
    139       3.4902      0.00000
    140       3.6359      0.00000
    141       3.6702      0.00000
    142       3.7413      0.00000
    143       3.8246      0.00000
    144       3.9841      0.00000
    145       4.0290      0.00000
    146       4.1385      0.00000
    147       4.1967      0.00000
    148       4.5447      0.00000
    149       4.6206      0.00000
    150       4.8216      0.00000
    151       4.8431      0.00000
    152       4.8660      0.00000
    153       5.1571      0.00000
    154       5.1628      0.00000
    155       5.2136      0.00000
    156       5.4426      0.00000
    157       5.6850      0.00000
    158       5.8260      0.00000
    159       6.5334      0.00000
    160       7.0330      0.00000

 k-point     2 :      -0.2500    0.2500    0.2500
  band No.  band energies     occupation 
      1     -36.7182      1.00000
      2     -36.6208      1.00000
      3     -36.6101      1.00000
      4     -35.3495      1.00000
      5     -35.2655      1.00000
      6     -35.2443      1.00000
      7     -35.1703      1.00000
      8     -35.1666      1.00000
      9     -34.9671      1.00000
     10     -34.9636      1.00000
     11     -34.8088      1.00000
     12     -34.7546      1.00000
     13     -34.4622      1.00000
     14     -34.4343      1.00000
     15     -34.1860      1.00000
     16     -34.1550      1.00000
     17     -34.0493      1.00000
     18     -34.0159      1.00000
     19     -33.9426      1.00000
     20     -33.6575      1.00000
     21     -33.6125      1.00000
     22     -33.2390      1.00000
     23     -33.2092      1.00000
     24     -33.1967      1.00000
     25     -24.4805      1.00000
     26     -24.0462      1.00000
     27     -23.9317      1.00000
     28     -23.8646      1.00000
     29     -23.7915      1.00000
     30     -23.7275      1.00000
     31     -23.5102      1.00000
     32     -23.4741      1.00000
     33     -23.4640      1.00000
     34     -23.4136      1.00000
     35     -23.2728      1.00000
     36     -23.1556      1.00000
     37     -22.8977      1.00000
     38     -22.8693      1.00000
     39     -22.3098      1.00000
     40     -22.3033      1.00000
     41     -16.6932      1.00000
     42     -16.6895      1.00000
     43     -15.7709      1.00000
     44     -15.4543      1.00000
     45     -15.3275      1.00000
     46     -15.0714      1.00000
     47     -14.8706      1.00000
     48     -14.7964      1.00000
     49      -7.9784      1.00000
     50      -7.4472      1.00000
     51      -7.3781      1.00000
     52      -7.3254      1.00000
     53      -7.1677      1.00000
     54      -6.7807      1.00000
     55      -6.7233      1.00000
     56      -6.6172      1.00000
     57      -6.5930      1.00000
     58      -6.5198      1.00000
     59      -6.3616      1.00000
     60      -6.3185      1.00000
     61      -6.1696      1.00000
     62      -6.1048      1.00000
     63      -6.0442      1.00000
     64      -5.9957      1.00000
     65      -5.8128      1.00000
     66      -5.7992      1.00000
     67      -5.7367      1.00000
     68      -5.6980      1.00000
     69      -5.6584      1.00000
     70      -5.6092      1.00000
     71      -5.3138      1.00000
     72      -5.2730      1.00000
     73      -5.1579      1.00000
     74      -5.0791      1.00000
     75      -4.9476      1.00000
     76      -4.9386      1.00000
     77      -4.9015      1.00000
     78      -4.8836      1.00000
     79      -4.8465      1.00000
     80      -4.8109      1.00000
     81      -4.7748      1.00000
     82      -4.7203      1.00000
     83      -4.6145      1.00000
     84      -4.5054      1.00000
     85      -4.4648      1.00000
     86      -4.4295      1.00000
     87      -4.3545      1.00000
     88      -4.2639      1.00000
     89      -4.1986      1.00000
     90      -4.1684      1.00000
     91      -4.0856      1.00000
     92      -3.7019      1.00000
     93      -3.5649      1.00000
     94      -3.5355      1.00000
     95      -3.5113      1.00000
     96      -3.4485      1.00000
     97      -3.4354      1.00000
     98      -3.4172      1.00000
     99      -3.3888      1.00000
    100      -3.2441      1.00000
    101      -3.1383      1.00000
    102      -2.4506      1.00000
    103      -2.3809      1.00000
    104      -2.2887      1.00000
    105      -2.2714      1.00000
    106      -1.6443      1.00000
    107      -1.5599      1.00000
    108      -1.5492      1.00000
    109      -1.5199      1.00000
    110      -1.3913      1.00000
    111      -1.3635      1.00000
    112      -0.7729      1.00000
    113      -0.6451      1.00000
    114      -0.6202      1.00000
    115      -0.5705      1.00000
    116      -0.5051      1.00000
    117      -0.4107      1.00000
    118      -0.3119      1.00000
    119       0.2394      1.00000
    120       0.3124      1.00000
    121       0.4207      0.00000
    122       1.2512      0.00000
    123       1.2946      0.00000
    124       1.4138      0.00000
    125       1.9670      0.00000
    126       2.3284      0.00000
    127       2.4657      0.00000
    128       2.5451      0.00000
    129       2.5978      0.00000
    130       2.6699      0.00000
    131       2.7566      0.00000
    132       2.7660      0.00000
    133       2.8671      0.00000
    134       2.9828      0.00000
    135       3.1977      0.00000
    136       3.2133      0.00000
    137       3.3918      0.00000
    138       3.4699      0.00000
    139       3.5073      0.00000
    140       3.6469      0.00000
    141       3.6632      0.00000
    142       3.7336      0.00000
    143       3.8065      0.00000
    144       3.9718      0.00000
    145       3.9899      0.00000
    146       4.1857      0.00000
    147       4.1984      0.00000
    148       4.5443      0.00000
    149       4.6279      0.00000
    150       4.8256      0.00000
    151       4.8431      0.00000
    152       4.8593      0.00000
    153       5.1580      0.00000
    154       5.1635      0.00000
    155       5.2166      0.00000
    156       5.4347      0.00000
    157       5.6887      0.00000
    158       5.8228      0.00000
    159       6.5374      0.00000
    160       7.0297      0.00000

 k-point     3 :       0.2500   -0.2500    0.2500
  band No.  band energies     occupation 
      1     -36.7182      1.00000
      2     -36.6208      1.00000
      3     -36.6101      1.00000
      4     -35.3495      1.00000
      5     -35.2655      1.00000
      6     -35.2443      1.00000
      7     -35.1703      1.00000
      8     -35.1666      1.00000
      9     -34.9671      1.00000
     10     -34.9636      1.00000
     11     -34.8088      1.00000
     12     -34.7546      1.00000
     13     -34.4622      1.00000
     14     -34.4343      1.00000
     15     -34.1860      1.00000
     16     -34.1550      1.00000
     17     -34.0493      1.00000
     18     -34.0159      1.00000
     19     -33.9426      1.00000
     20     -33.6575      1.00000
     21     -33.6125      1.00000
     22     -33.2390      1.00000
     23     -33.2092      1.00000
     24     -33.1967      1.00000
     25     -24.4804      1.00000
     26     -24.0468      1.00000
     27     -23.9315      1.00000
     28     -23.8641      1.00000
     29     -23.7915      1.00000
     30     -23.7275      1.00000
     31     -23.5103      1.00000
     32     -23.4741      1.00000
     33     -23.4640      1.00000
     34     -23.4136      1.00000
     35     -23.2728      1.00000
     36     -23.1556      1.00000
     37     -22.8977      1.00000
     38     -22.8693      1.00000
     39     -22.3098      1.00000
     40     -22.3033      1.00000
     41     -16.6932      1.00000
     42     -16.6895      1.00000
     43     -15.7691      1.00000
     44     -15.4603      1.00000
     45     -15.3274      1.00000
     46     -15.0618      1.00000
     47     -14.8761      1.00000
     48     -14.7965      1.00000
     49      -7.9779      1.00000
     50      -7.4472      1.00000
     51      -7.3779      1.00000
     52      -7.3267      1.00000
     53      -7.1674      1.00000
     54      -6.7805      1.00000
     55      -6.7212      1.00000
     56      -6.6186      1.00000
     57      -6.5922      1.00000
     58      -6.5214      1.00000
     59      -6.3597      1.00000
     60      -6.3167      1.00000
     61      -6.1700      1.00000
     62      -6.1051      1.00000
     63      -6.0439      1.00000
     64      -5.9961      1.00000
     65      -5.8157      1.00000
     66      -5.8011      1.00000
     67      -5.7375      1.00000
     68      -5.6987      1.00000
     69      -5.6597      1.00000
     70      -5.6107      1.00000
     71      -5.3149      1.00000
     72      -5.2734      1.00000
     73      -5.1586      1.00000
     74      -5.0799      1.00000
     75      -4.9409      1.00000
     76      -4.9280      1.00000
     77      -4.8987      1.00000
     78      -4.8735      1.00000
     79      -4.8585      1.00000
     80      -4.8030      1.00000
     81      -4.7765      1.00000
     82      -4.7342      1.00000
     83      -4.6140      1.00000
     84      -4.5017      1.00000
     85      -4.4623      1.00000
     86      -4.4281      1.00000
     87      -4.3555      1.00000
     88      -4.2626      1.00000
     89      -4.2087      1.00000
     90      -4.1683      1.00000
     91      -4.0861      1.00000
     92      -3.7021      1.00000
     93      -3.6009      1.00000
     94      -3.4917      1.00000
     95      -3.4852      1.00000
     96      -3.4510      1.00000
     97      -3.4264      1.00000
     98      -3.4167      1.00000
     99      -3.4072      1.00000
    100      -3.2678      1.00000
    101      -3.1452      1.00000
    102      -2.4319      1.00000
    103      -2.3714      1.00000
    104      -2.2894      1.00000
    105      -2.2718      1.00000
    106      -1.6502      1.00000
    107      -1.6059      1.00000
    108      -1.5605      1.00000
    109      -1.5156      1.00000
    110      -1.3884      1.00000
    111      -1.3375      1.00000
    112      -0.7720      1.00000
    113      -0.6536      1.00000
    114      -0.6397      1.00000
    115      -0.5980      1.00000
    116      -0.4977      1.00000
    117      -0.3587      1.00000
    118      -0.2572      1.00000
    119       0.2417      1.00000
    120       0.2912      1.00000
    121       0.3916      0.00000
    122       1.2512      0.00000
    123       1.2947      0.00000
    124       1.4139      0.00000
    125       1.9669      0.00000
    126       2.3293      0.00000
    127       2.4661      0.00000
    128       2.5450      0.00000
    129       2.5960      0.00000
    130       2.6694      0.00000
    131       2.7574      0.00000
    132       2.7642      0.00000
    133       2.8647      0.00000
    134       2.9829      0.00000
    135       3.1974      0.00000
    136       3.2079      0.00000
    137       3.3881      0.00000
    138       3.4666      0.00000
    139       3.4910      0.00000
    140       3.6481      0.00000
    141       3.6645      0.00000
    142       3.7252      0.00000
    143       3.8552      0.00000
    144       3.9872      0.00000
    145       4.0602      0.00000
    146       4.1303      0.00000
    147       4.1678      0.00000
    148       4.5397      0.00000
    149       4.6128      0.00000
    150       4.8195      0.00000
    151       4.8475      0.00000
    152       4.8699      0.00000
    153       5.1541      0.00000
    154       5.1632      0.00000
    155       5.2146      0.00000
    156       5.4492      0.00000
    157       5.6810      0.00000
    158       5.8259      0.00000
    159       6.5363      0.00000
    160       7.0299      0.00000

 k-point     4 :      -0.2500   -0.2500    0.2500
  band No.  band energies     occupation 
      1     -36.7182      1.00000
      2     -36.6208      1.00000
      3     -36.6101      1.00000
      4     -35.3494      1.00000
      5     -35.2658      1.00000
      6     -35.2441      1.00000
      7     -35.1703      1.00000
      8     -35.1666      1.00000
      9     -34.9671      1.00000
     10     -34.9636      1.00000
     11     -34.8088      1.00000
     12     -34.7546      1.00000
     13     -34.4622      1.00000
     14     -34.4343      1.00000
     15     -34.1860      1.00000
     16     -34.1550      1.00000
     17     -34.0493      1.00000
     18     -34.0159      1.00000
     19     -33.9426      1.00000
     20     -33.6575      1.00000
     21     -33.6125      1.00000
     22     -33.2390      1.00000
     23     -33.2092      1.00000
     24     -33.1967      1.00000
     25     -24.4804      1.00000
     26     -24.0464      1.00000
     27     -23.9315      1.00000
     28     -23.8615      1.00000
     29     -23.7918      1.00000
     30     -23.7352      1.00000
     31     -23.4971      1.00000
     32     -23.4706      1.00000
     33     -23.4672      1.00000
     34     -23.4232      1.00000
     35     -23.2719      1.00000
     36     -23.1538      1.00000
     37     -22.9066      1.00000
     38     -22.8619      1.00000
     39     -22.3098      1.00000
     40     -22.3033      1.00000
     41     -16.6932      1.00000
     42     -16.6895      1.00000
     43     -15.7697      1.00000
     44     -15.4574      1.00000
     45     -15.3291      1.00000
     46     -15.0646      1.00000
     47     -14.8716      1.00000
     48     -14.7987      1.00000
     49      -7.9780      1.00000
     50      -7.4475      1.00000
     51      -7.3775      1.00000
     52      -7.3154      1.00000
     53      -7.1805      1.00000
     54      -6.7868      1.00000
     55      -6.7226      1.00000
     56      -6.6157      1.00000
     57      -6.5894      1.00000
     58      -6.5152      1.00000
     59      -6.3524      1.00000
     60      -6.3246      1.00000
     61      -6.1624      1.00000
     62      -6.1199      1.00000
     63      -6.0440      1.00000
     64      -5.9944      1.00000
     65      -5.8245      1.00000
     66      -5.7895      1.00000
     67      -5.7462      1.00000
     68      -5.6776      1.00000
     69      -5.6639      1.00000
     70      -5.6010      1.00000
     71      -5.3213      1.00000
     72      -5.3190      1.00000
     73      -5.1240      1.00000
     74      -5.0795      1.00000
     75      -4.9550      1.00000
     76      -4.9303      1.00000
     77      -4.8916      1.00000
     78      -4.8767      1.00000
     79      -4.8496      1.00000
     80      -4.8132      1.00000
     81      -4.7719      1.00000
     82      -4.7218      1.00000
     83      -4.5831      1.00000
     84      -4.5006      1.00000
     85      -4.4733      1.00000
     86      -4.4593      1.00000
     87      -4.3610      1.00000
     88      -4.2633      1.00000
     89      -4.1949      1.00000
     90      -4.1841      1.00000
     91      -4.0581      1.00000
     92      -3.7144      1.00000
     93      -3.5860      1.00000
     94      -3.5217      1.00000
     95      -3.4881      1.00000
     96      -3.4533      1.00000
     97      -3.4320      1.00000
     98      -3.4083      1.00000
     99      -3.4001      1.00000
    100      -3.2583      1.00000
    101      -3.1411      1.00000
    102      -2.4368      1.00000
    103      -2.3805      1.00000
    104      -2.3063      1.00000
    105      -2.2540      1.00000
    106      -1.6379      1.00000
    107      -1.5819      1.00000
    108      -1.5500      1.00000
    109      -1.5291      1.00000
    110      -1.3845      1.00000
    111      -1.3616      1.00000
    112      -0.7721      1.00000
    113      -0.6523      1.00000
    114      -0.6457      1.00000
    115      -0.5882      1.00000
    116      -0.4715      1.00000
    117      -0.3858      1.00000
    118      -0.2819      1.00000
    119       0.2366      1.00000
    120       0.3082      1.00000
    121       0.3979      0.00000
    122       1.2520      0.00000
    123       1.2941      0.00000
    124       1.4134      0.00000
    125       1.9727      0.00000
    126       2.3250      0.00000
    127       2.4647      0.00000
    128       2.5180      0.00000
    129       2.6136      0.00000
    130       2.6738      0.00000
    131       2.7524      0.00000
    132       2.7759      0.00000
    133       2.8681      0.00000
    134       2.9688      0.00000
    135       3.1982      0.00000
    136       3.2096      0.00000
    137       3.4059      0.00000
    138       3.4709      0.00000
    139       3.4909      0.00000
    140       3.6360      0.00000
    141       3.6705      0.00000
    142       3.7410      0.00000
    143       3.8268      0.00000
    144       3.9843      0.00000
    145       4.0306      0.00000
    146       4.1267      0.00000
    147       4.2046      0.00000
    148       4.5399      0.00000
    149       4.6216      0.00000
    150       4.8218      0.00000
    151       4.8453      0.00000
    152       4.8655      0.00000
    153       5.1541      0.00000
    154       5.1634      0.00000
    155       5.2153      0.00000
    156       5.4436      0.00000
    157       5.6848      0.00000
    158       5.8265      0.00000
    159       6.5339      0.00000
    160       7.0334      0.00000

 spin component 2

 k-point     1 :       0.2500    0.2500    0.2500
  band No.  band energies     occupation 
      1     -36.6867      1.00000
      2     -36.6054      1.00000
      3     -36.5748      1.00000
      4     -35.2682      1.00000
      5     -35.2574      1.00000
      6     -35.1658      1.00000
      7     -35.1623      1.00000
      8     -34.9841      1.00000
      9     -34.9609      1.00000
     10     -34.9569      1.00000
     11     -34.4378      1.00000
     12     -34.4049      1.00000
     13     -34.1598      1.00000
     14     -34.1303      1.00000
     15     -34.0227      1.00000
     16     -33.9902      1.00000
     17     -33.9020      1.00000
     18     -33.6776      1.00000
     19     -33.6219      1.00000
     20     -33.6190      1.00000
     21     -33.5753      1.00000
     22     -33.1631      1.00000
     23     -33.1406      1.00000
     24     -33.1333      1.00000
     25     -24.4687      1.00000
     26     -24.0314      1.00000
     27     -23.9253      1.00000
     28     -23.8573      1.00000
     29     -23.7920      1.00000
     30     -23.7294      1.00000
     31     -23.4894      1.00000
     32     -23.4701      1.00000
     33     -23.4672      1.00000
     34     -23.4071      1.00000
     35     -23.2731      1.00000
     36     -23.1570      1.00000
     37     -22.9099      1.00000
     38     -22.8652      1.00000
     39     -22.3140      1.00000
     40     -22.3081      1.00000
     41     -16.7116      1.00000
     42     -16.7086      1.00000
     43     -16.0680      1.00000
     44     -15.7299      1.00000
     45     -15.5930      1.00000
     46     -15.3720      1.00000
     47     -15.1570      1.00000
     48     -15.0584      1.00000
     49      -7.9365      1.00000
     50      -7.4435      1.00000
     51      -7.3748      1.00000
     52      -7.2808      1.00000
     53      -7.1356      1.00000
     54      -6.7868      1.00000
     55      -6.6874      1.00000
     56      -6.5884      1.00000
     57      -6.5023      1.00000
     58      -6.4408      1.00000
     59      -6.3420      1.00000
     60      -6.2876      1.00000
     61      -6.1571      1.00000
     62      -6.1001      1.00000
     63      -6.0393      1.00000
     64      -5.9818      1.00000
     65      -5.7938      1.00000
     66      -5.7854      1.00000
     67      -5.7493      1.00000
     68      -5.6752      1.00000
     69      -5.5936      1.00000
     70      -5.5432      1.00000
     71      -5.3233      1.00000
     72      -5.2969      1.00000
     73      -5.1130      1.00000
     74      -5.0725      1.00000
     75      -4.9694      1.00000
     76      -4.9226      1.00000
     77      -4.8954      1.00000
     78      -4.8733      1.00000
     79      -4.8334      1.00000
     80      -4.8128      1.00000
     81      -4.7473      1.00000
     82      -4.7116      1.00000
     83      -4.5837      1.00000
     84      -4.4922      1.00000
     85      -4.4755      1.00000
     86      -4.4566      1.00000
     87      -4.3688      1.00000
     88      -4.2664      1.00000
     89      -4.1963      1.00000
     90      -4.1850      1.00000
     91      -4.0606      1.00000
     92      -3.7179      1.00000
     93      -3.6651      1.00000
     94      -3.5617      1.00000
     95      -3.5153      1.00000
     96      -3.4506      1.00000
     97      -3.4397      1.00000
     98      -3.4185      1.00000
     99      -3.4075      1.00000
    100      -3.3183      1.00000
    101      -3.2232      1.00000
    102      -2.5159      1.00000
    103      -2.4363      1.00000
    104      -2.2874      1.00000
    105      -2.2541      1.00000
    106      -1.8863      1.00000
    107      -1.7305      1.00000
    108      -1.7117      1.00000
    109      -1.6725      1.00000
    110      -1.5755      1.00000
    111      -1.5200      1.00000
    112      -0.9278      1.00000
    113      -0.7873      1.00000
    114      -0.7371      1.00000
    115      -0.6659      1.00000
    116      -0.5963      1.00000
    117      -0.5212      1.00000
    118      -0.2772      1.00000
    119      -0.0912      1.00000
    120       0.0303      1.00000
    121       1.2953      0.00000
    122       1.3466      0.00000
    123       1.4461      0.00000
    124       2.1030      0.00000
    125       2.4677      0.00000
    126       2.4989      0.00000
    127       2.5378      0.00000
    128       2.7616      0.00000
    129       2.7778      0.00000
    130       2.8430      0.00000
    131       2.9847      0.00000
    132       3.0395      0.00000
    133       3.0659      0.00000
    134       3.2848      0.00000
    135       3.3714      0.00000
    136       3.4638      0.00000
    137       3.5150      0.00000
    138       3.5412      0.00000
    139       3.6357      0.00000
    140       3.6961      0.00000
    141       3.7797      0.00000
    142       3.8948      0.00000
    143       4.0157      0.00000
    144       4.0393      0.00000
    145       4.1548      0.00000
    146       4.2187      0.00000
    147       4.3042      0.00000
    148       4.6993      0.00000
    149       4.7523      0.00000
    150       4.8634      0.00000
    151       4.8751      0.00000
    152       4.9018      0.00000
    153       5.1919      0.00000
    154       5.3210      0.00000
    155       5.3887      0.00000
    156       5.4863      0.00000
    157       5.7148      0.00000
    158       5.8541      0.00000
    159       6.5389      0.00000
    160       7.0399      0.00000

 k-point     2 :      -0.2500    0.2500    0.2500
  band No.  band energies     occupation 
      1     -36.6867      1.00000
      2     -36.6054      1.00000
      3     -36.5748      1.00000
      4     -35.2683      1.00000
      5     -35.2573      1.00000
      6     -35.1658      1.00000
      7     -35.1623      1.00000
      8     -34.9841      1.00000
      9     -34.9609      1.00000
     10     -34.9569      1.00000
     11     -34.4378      1.00000
     12     -34.4049      1.00000
     13     -34.1598      1.00000
     14     -34.1303      1.00000
     15     -34.0227      1.00000
     16     -33.9902      1.00000
     17     -33.9020      1.00000
     18     -33.6776      1.00000
     19     -33.6219      1.00000
     20     -33.6190      1.00000
     21     -33.5753      1.00000
     22     -33.1631      1.00000
     23     -33.1406      1.00000
     24     -33.1333      1.00000
     25     -24.4688      1.00000
     26     -24.0314      1.00000
     27     -23.9255      1.00000
     28     -23.8612      1.00000
     29     -23.7917      1.00000
     30     -23.7188      1.00000
     31     -23.5060      1.00000
     32     -23.4742      1.00000
     33     -23.4636      1.00000
     34     -23.3947      1.00000
     35     -23.2756      1.00000
     36     -23.1581      1.00000
     37     -22.9009      1.00000
     38     -22.8727      1.00000
     39     -22.3140      1.00000
     40     -22.3081      1.00000
     41     -16.7117      1.00000
     42     -16.7085      1.00000
     43     -16.0686      1.00000
     44     -15.7292      1.00000
     45     -15.5898      1.00000
     46     -15.3765      1.00000
     47     -15.1584      1.00000
     48     -15.0557      1.00000
[...]
 -0.000  -0.000  -0.001  -0.002  -0.000  -0.002  -0.004   0.515   0.001   0.652   0.005  -0.002   0.295   0.001   0.365   0.003
 -0.000  -0.000  -0.000  -0.000  -0.000  -0.000  -0.000   0.004   0.001   0.005   0.017   0.000   0.002   0.000   0.003  -0.003
  0.000   0.000   0.000   0.000  -0.000   0.000  -0.002  -0.002   0.001  -0.002   0.000  -0.007  -0.001  -0.003  -0.002  -0.000
  0.000  -0.000  -0.000  -0.001  -0.000  -0.002  -0.002   0.233   0.000   0.295   0.002  -0.001   0.182   0.000   0.235   0.002
  0.000   0.000  -0.000   0.000   0.000  -0.000  -0.001   0.000  -0.003   0.001   0.000  -0.003   0.000  -0.016   0.000  -0.001
 -0.000   0.000  -0.000  -0.002  -0.000  -0.002  -0.002   0.295   0.001   0.365   0.003  -0.002   0.235   0.000   0.287   0.003
 -0.000   0.000  -0.000  -0.000  -0.000  -0.000   0.000   0.003   0.000   0.003  -0.003  -0.000   0.002  -0.001   0.003  -0.024
 -0.000  -0.000   0.000   0.000   0.000  -0.000   0.005  -0.000   0.004   0.000   0.002  -0.016   0.000  -0.014  -0.000  -0.005
 -0.000   0.000  -0.000   0.000   0.000  -0.000   0.008   0.001   0.011   0.001   0.005  -0.009   0.001  -0.018   0.001  -0.007


------------------------ aborting loop because EDIFF is reached ----------------------------------------


 


 total charge     
 
# of ion       s       p       d       tot
------------------------------------------
    1        0.239   6.335   1.822   8.396
    2        0.327   6.516   1.738   8.581
    3        0.314   6.471   1.823   8.609
    4        0.295   6.446   1.793   8.534
    5        0.315   6.472   1.820   8.607
    6        0.296   6.447   1.792   8.535
    7        0.295   6.455   1.785   8.535
    8        0.304   6.412   1.658   8.374
    9        1.571   3.397   0.000   4.969
   10        1.569   3.369   0.000   4.938
   11        1.569   3.360   0.000   4.929
   12        1.571   3.400   0.000   4.971
   13        1.573   3.452   0.000   5.025
   14        1.573   3.453   0.000   5.026
   15        1.572   3.373   0.000   4.945
   16        1.573   3.403   0.000   4.976
   17        1.729   4.396   0.000   6.125
   18        1.732   4.381   0.000   6.113
   19        1.730   4.387   0.000   6.117
   20        1.729   4.396   0.000   6.125
   21        1.733   4.380   0.000   6.112
   22        1.730   4.388   0.000   6.118
   23        1.729   4.396   0.000   6.125
   24        1.733   4.380   0.000   6.112
   25        1.729   4.396   0.000   6.125
   26        1.732   4.381   0.000   6.113
   27        1.730   4.388   0.000   6.118
   28        1.730   4.387   0.000   6.116
   29        1.732   4.399   0.000   6.130
   30        1.731   4.396   0.000   6.127
   31        1.729   4.379   0.000   6.108
   32        1.729   4.378   0.000   6.108
--------------------------------------------------
tot         42.644 148.970  14.230 205.843
 


 magnetization (x)
 
# of ion       s       p       d       tot
------------------------------------------
    1        0.004   0.006   0.913   0.923
    2       -0.000   0.000   0.027   0.027
    3       -0.000  -0.000   0.005   0.004
    4        0.000   0.001   0.031   0.032
    5       -0.000  -0.000   0.005   0.004
    6        0.001   0.001   0.032   0.033
    7        0.001   0.000   0.033   0.034
    8        0.003   0.004   0.073   0.080
    9       -0.000  -0.036   0.000  -0.037
   10       -0.003  -0.234   0.000  -0.237
   11       -0.004  -0.271   0.000  -0.275
   12       -0.000  -0.037   0.000  -0.037
   13       -0.000  -0.008   0.000  -0.009
   14       -0.000  -0.010   0.000  -0.010
   15       -0.004  -0.273   0.000  -0.277
   16       -0.001  -0.065   0.000  -0.066
   17       -0.000   0.001   0.000   0.000
   18        0.000  -0.001   0.000  -0.001
   19       -0.000  -0.002   0.000  -0.002
   20       -0.000   0.001   0.000   0.000
   21        0.000  -0.000   0.000  -0.000
   22       -0.000  -0.002   0.000  -0.002
   23       -0.000  -0.003   0.000  -0.003
   24        0.000  -0.001   0.000  -0.001
   25       -0.000  -0.003   0.000  -0.003
   26        0.000  -0.001   0.000  -0.001
   27       -0.000  -0.002   0.000  -0.002
   28       -0.000  -0.002   0.000  -0.003
   29       -0.000   0.000   0.000   0.000
   30       -0.000   0.000   0.000  -0.000
   31       -0.000  -0.002   0.000  -0.002
   32       -0.000  -0.003   0.000  -0.003
--------------------------------------------------
tot         -0.008  -0.941   1.118   0.170
 
    CHARGE:  cpu time    0.3979: real time    0.3967
    FORLOC:  cpu time    0.0100: real time    0.0100
    FORNL :  cpu time    2.0527: real time    2.0461
    STRESS:  cpu time    6.3100: real time    6.2918
    FORCOR:  cpu time    0.1290: real time    0.1296
    FORHAR:  cpu time    0.0210: real time    0.0211
    MIXING:  cpu time    0.0020: real time    0.0021
    OFIELD:  cpu time    0.0000: real time    0.0000

  FORCE on cell =-STRESS in cart. coord.  units (eV):
  Direction    XX          YY          ZZ          XY          YZ          ZX
  --------------------------------------------------------------------------------------
  Alpha Z   741.48691   741.48691   741.48691
  Ewald   -4208.49815 -4209.73517 -4185.23779   -18.34524    14.08104    -8.27331
  Hartree  2800.74707  2792.68124  2798.63335    -9.17581     7.60613    -4.61374
  E(xc)   -1231.72571 -1231.68596 -1232.10814    -0.12911     0.00905    -0.00800
  Local   -2240.33533 -2225.02933 -2287.03747    23.61642   -23.17010    14.48593
  n-local  -972.73899  -971.67001  -967.77428    -0.91937    -0.35333     0.39884
  augment   751.85074   749.34120   763.73850     3.90548     0.29362    -0.32463
  Kinetic  4359.20529  4354.61790  4368.31982     1.04708     1.53299    -1.66971
  Fock        0.00000     0.00000     0.00000     0.00000     0.00000     0.00000
  -------------------------------------------------------------------------------------
  Total      -0.00818     0.00679     0.02090    -0.00056    -0.00060    -0.00462
  in kB      -0.02775     0.02302     0.07090    -0.00189    -0.00204    -0.01569
  external pressure =        0.02 kB  Pullay stress =        0.00 kB


 VOLUME and BASIS-vectors are now :
 -----------------------------------------------------------------------------
  energy-cutoff  :      700.00
  volume of cell :      472.25
      direct lattice vectors                 reciprocal lattice vectors
     7.816457268 -0.018557836 -0.009783677     0.127936080  0.000297518  0.000141504
    -0.018193472  7.816985434  0.013495492     0.000303449  0.127927641 -0.000220959
    -0.008579790  0.013370107  7.729041737     0.000161416 -0.000222995  0.129382710

  length of vectors
     7.816485421  7.817018255  7.729058064     0.127936505  0.127928191  0.129383003


 FORCES acting on ions
    electron-ion (+dipol)            ewald-force                    non-local-force                 convergence-correction
 -----------------------------------------------------------------------------------------------
   -.330E+00 -.217E+00 0.207E+02   0.333E+00 0.204E+00 -.205E+02   -.688E-02 0.150E-01 -.217E+00   0.285E-03 0.719E-04 -.179E-04
   0.908E+00 -.182E+01 -.187E+02   -.891E+00 0.179E+01 0.186E+02   -.188E-01 0.252E-01 0.139E+00   0.943E-03 0.491E-03 0.201E-04
   -.468E+01 0.652E+00 0.221E+02   0.463E+01 -.628E+00 -.219E+02   0.516E-01 -.217E-01 -.195E+00   0.916E-03 -.106E-03 -.142E-03
   0.198E+02 -.141E+01 -.265E+02   -.202E+02 0.138E+01 0.274E+02   0.405E+00 0.331E-01 -.935E+00   0.107E-01 -.481E-03 0.428E-03
   -.546E+00 0.556E+01 0.243E+02   0.523E+00 -.550E+01 -.241E+02   0.201E-01 -.621E-01 -.148E+00   -.302E-03 0.615E-03 -.474E-04
   0.227E+01 -.212E+02 -.271E+02   -.223E+01 0.216E+02 0.280E+02   -.393E-01 -.383E+00 -.928E+00   -.947E-03 0.791E-02 -.616E-04
   0.768E+01 -.785E+01 -.881E+00   -.757E+01 0.773E+01 0.141E+01   -.109E+00 0.125E+00 -.528E+00   -.830E-03 -.551E-03 -.327E-03
   0.264E+02 -.240E+02 -.437E+02   -.256E+02 0.233E+02 0.430E+02   -.753E+00 0.705E+00 0.745E+00   -.116E-01 -.869E-02 -.742E-03
   -.121E+03 -.426E+01 -.926E+01   0.130E+03 0.446E+01 0.924E+01   -.881E+01 -.194E+00 0.137E-01   0.400E-02 -.145E-02 0.190E-03
   0.330E+02 -.643E+01 -.128E+02   -.322E+02 0.665E+01 0.128E+02   -.864E+00 -.224E+00 0.276E-01   -.417E-02 -.161E-02 -.435E-03
   0.724E+01 -.329E+02 -.125E+02   -.749E+01 0.321E+02 0.124E+02   0.249E+00 0.770E+00 0.794E-01   -.165E-02 -.242E-02 -.886E-03
   0.493E+01 0.119E+03 -.886E+01   -.514E+01 -.128E+03 0.884E+01   0.216E+00 0.869E+01 0.142E-01   -.163E-02 0.260E-02 -.247E-03
   0.583E+01 0.167E+01 0.928E+02   -.658E+01 -.182E+01 -.101E+03   0.747E+00 0.148E+00 0.801E+01   0.234E-02 0.223E-03 0.243E-02
   -.828E+00 -.694E+01 0.907E+02   0.937E+00 0.775E+01 -.985E+02   -.110E+00 -.824E+00 0.778E+01   -.652E-03 0.184E-02 -.127E-02
   0.462E+01 -.286E+01 -.388E+02   -.413E+01 0.232E+01 0.383E+02   -.479E+00 0.545E+00 0.477E+00   -.250E-02 -.225E-02 -.844E-03
   0.466E+01 -.376E+01 0.123E+03   -.474E+01 0.385E+01 -.131E+03   0.823E-01 -.893E-01 0.865E+01   -.244E-02 -.145E-02 0.132E-02
   -.308E+01 0.580E+01 -.180E+01   0.333E+01 -.674E+01 0.445E+01   -.254E+00 0.942E+00 -.265E+01   0.776E-03 0.740E-04 -.133E-03
   -.103E+03 -.584E+01 -.771E+01   0.112E+03 0.676E+01 0.734E+01   -.946E+01 -.931E+00 0.373E+00   0.294E-02 0.128E-02 0.347E-03
   -.435E+02 0.253E+01 -.143E+02   0.467E+02 -.289E+01 0.188E+02   -.330E+01 0.360E+00 -.448E+01   0.264E-02 -.203E-03 -.264E-03
   0.340E+01 -.195E+01 -.275E+01   -.356E+01 0.263E+01 0.560E+01   0.161E+00 -.685E+00 -.285E+01   -.879E-03 0.245E-03 0.518E-04
   0.102E+03 -.433E+01 -.765E+01   -.112E+03 0.524E+01 0.721E+01   0.980E+01 -.913E+00 0.442E+00   -.284E-02 0.126E-02 -.322E-03
   0.432E+02 -.757E+01 -.937E+01   -.469E+02 0.821E+01 0.137E+02   0.371E+01 -.633E+00 -.431E+01   -.264E-02 0.609E-04 -.288E-03
   0.128E+01 -.884E+01 -.271E+01   -.192E+01 0.989E+01 0.546E+01   0.642E+00 -.105E+01 -.274E+01   0.976E-05 -.485E-03 0.900E-04
   0.361E+01 -.103E+03 -.694E+01   -.449E+01 0.113E+03 0.642E+01   0.886E+00 -.993E+01 0.518E+00   0.237E-02 -.401E-02 -.369E-03
   -.474E+01 0.854E+01 -.736E+00   0.558E+01 -.965E+01 0.314E+01   -.842E+00 0.111E+01 -.240E+01   0.618E-03 0.572E-03 -.148E-03
   0.537E+01 0.104E+03 -.800E+01   -.630E+01 -.113E+03 0.769E+01   0.928E+00 0.960E+01 0.313E+00   0.236E-02 0.411E-02 0.434E-03
   0.818E+01 -.435E+02 -.859E+01   -.884E+01 0.470E+02 0.129E+02   0.651E+00 -.357E+01 -.427E+01   -.419E-03 -.397E-03 0.183E-03
   -.332E+01 0.434E+02 -.146E+02   0.377E+01 -.466E+02 0.191E+02   -.459E+00 0.320E+01 -.450E+01   -.261E-03 0.369E-03 0.140E-03
   -.893E+00 0.122E+01 0.457E+02   0.921E+00 -.130E+01 -.517E+02   -.298E-01 0.739E-01 0.604E+01   0.266E-03 0.196E-03 -.142E-03
   0.262E-01 -.132E+01 -.471E+02   0.291E-01 0.136E+01 0.529E+02   -.596E-01 -.311E-01 -.584E+01   0.385E-03 0.878E-04 0.142E-03
   0.555E+01 -.146E+01 -.430E+02   -.680E+01 0.146E+01 0.431E+02   0.124E+01 0.543E-02 -.916E-01   0.248E-02 -.477E-03 -.293E-02
   0.111E+01 -.628E+01 -.415E+02   -.108E+01 0.761E+01 0.413E+02   -.393E-01 -.133E+01 0.259E+00   -.213E-04 0.210E-02 0.155E-02
 -----------------------------------------------------------------------------------------------
   0.585E+01 -.548E+01 0.322E+01   0.207E-12 -.116E-12 -.206E-12   -.585E+01 0.548E+01 -.321E+01   0.226E-03 -.463E-03 -.228E-02
 
 
 POSITION                                       TOTAL-FORCE (eV/Angst)
 -----------------------------------------------------------------------------------
      7.81427     -0.01508     -0.00304        -0.002935      0.002543     -0.000098
      7.80319     -0.00169      3.85344        -0.000642      0.000652     -0.000365
      7.78979      3.90673      7.58038         0.001184      0.002341     -0.000853
      0.06547      3.92636      3.88653         0.004239      0.000502      0.000080
      3.89722      0.01097      7.57507        -0.002881     -0.001384      0.004254
      3.87589      7.73022      3.88589        -0.000598     -0.001026     -0.001021
      3.88574      3.91419      7.68433         0.000858     -0.000758      0.000676
      3.96741      3.84157      3.82469         0.003280     -0.004131      0.000216
      1.84478      3.91986      3.86388         0.004632     -0.001523     -0.002054
      5.90924      3.90658      3.85354         0.001891     -0.001765      0.000857
      3.89648      1.89341      3.84520         0.001975     -0.002971      0.002935
      3.88417      5.95229      3.86090         0.001443     -0.001812     -0.001459
      7.78574      3.89837      5.84782         0.004219      0.000008     -0.000380
      3.90266      0.01732      5.83944        -0.001119     -0.004928     -0.002898
      3.93324      3.85749      1.90656         0.006630     -0.003982      0.000590
      3.90088      3.89892      5.90847         0.001136     -0.000264     -0.000921
      1.93906      7.76838      0.04048        -0.005513     -0.001298     -0.002901
      1.85958      0.00632      3.84862        -0.000424     -0.000885      0.001416
      1.90342      3.89036      0.07378         0.001216      0.002776      0.003166
      5.85382      0.02910      0.03017        -0.000509      0.003557      0.000867
      5.93326     -0.00279      3.84199        -0.000681     -0.000762     -0.001264
      5.88505      3.92788      0.05704         0.000839      0.002742     -0.003066
      7.77095      1.93624      0.03144        -0.002139      0.004776      0.003222
      7.80261      1.86714      3.84052         0.001431      0.000680     -0.002266
      0.02514      5.86966      0.03397        -0.001112      0.000129     -0.001932
      7.79273      5.94368      3.85504         0.001190      0.000090      0.002214
      3.86821      1.91152      0.05304        -0.006362     -0.001113     -0.002660
      3.91169      5.89187      0.07515        -0.001591     -0.000913      0.003204
      7.80992     -0.01109      1.97488        -0.001144     -0.000680     -0.000139
      7.80606     -0.00016      5.73996        -0.003924      0.004420      0.000078
      7.78293      3.90364      1.86765        -0.000037      0.005068      0.000731
      3.89868      0.01723      1.86701        -0.004551     -0.000086     -0.000228
 -----------------------------------------------------------------------------------
    total drift:                               -0.001170     -0.001225      0.008099


--------------------------------------------------------------------------------------------------------



  FREE ENERGIE OF THE ION-ELECTRON SYSTEM (eV)
  ---------------------------------------------------
  free  energy   TOTEN  =      -207.93973240 eV

  energy  without entropy=     -207.93973240  energy(sigma->0) =     -207.93973240
 


--------------------------------------------------------------------------------------------------------


    POTLOK:  cpu time    0.9679: real time    0.9774


--------------------------------------------------------------------------------------------------------


 stress matrix after NEB project (eV)
     -0.00818     -0.00056     -0.00462
     -0.00056      0.00679     -0.00058
     -0.00464     -0.00060      0.02090
  FORCES: max atom, RMS     0.007757    0.004258
  FORCE total and by dimension    0.024089    0.006630
  Stress total and by dimension    0.024370    0.020898
 Quasi-Newton relaxation of ions (Broydens 2nd method)
  g(Force)  = 0.280E-04   g(Stress)= 0.895E-06

 Reset! Starting new Quasi-Newton update for ions 


--------------------------------------------------------------------------------------------------------


  
 reached required accuracy - stopping structural energy minimisation
 writing wavefunctions
     LOOP+:  cpu time   71.3731: real time   74.7579
    4ORBIT:  cpu time    0.0000: real time    0.0000
 


 total charge     
 
# of ion       s       p       d       tot
------------------------------------------
    1        0.239   6.335   1.822   8.396
    2        0.327   6.516   1.738   8.581
    3        0.314   6.471   1.823   8.609
    4        0.295   6.446   1.793   8.534
    5        0.315   6.472   1.820   8.607
    6        0.296   6.447   1.792   8.535
    7        0.295   6.455   1.785   8.535
    8        0.304   6.412   1.658   8.374
    9        1.571   3.397   0.000   4.969
   10        1.569   3.369   0.000   4.938
   11        1.569   3.360   0.000   4.929
   12        1.571   3.400   0.000   4.971
   13        1.573   3.452   0.000   5.025
   14        1.573   3.453   0.000   5.026
   15        1.572   3.373   0.000   4.945
   16        1.573   3.403   0.000   4.976
   17        1.729   4.396   0.000   6.125
   18        1.732   4.381   0.000   6.113
   19        1.730   4.387   0.000   6.117
   20        1.729   4.396   0.000   6.125
   21        1.733   4.380   0.000   6.112
   22        1.730   4.388   0.000   6.118
   23        1.729   4.396   0.000   6.125
   24        1.733   4.380   0.000   6.112
   25        1.729   4.396   0.000   6.125
   26        1.732   4.381   0.000   6.113
   27        1.730   4.388   0.000   6.118
   28        1.730   4.387   0.000   6.116
   29        1.732   4.399   0.000   6.130
   30        1.731   4.396   0.000   6.127
   31        1.729   4.379   0.000   6.108
   32        1.729   4.378   0.000   6.108
--------------------------------------------------
tot         42.644 148.970  14.230 205.843
 


 magnetization (x)
 
# of ion       s       p       d       tot
------------------------------------------
    1        0.004   0.006   0.913   0.923
    2       -0.000   0.000   0.027   0.027
    3       -0.000  -0.000   0.005   0.004
    4        0.000   0.001   0.031   0.032
    5       -0.000  -0.000   0.005   0.004
    6        0.001   0.001   0.032   0.033
    7        0.001   0.000   0.033   0.034
    8        0.003   0.004   0.073   0.080
    9       -0.000  -0.036   0.000  -0.037
   10       -0.003  -0.234   0.000  -0.237
   11       -0.004  -0.271   0.000  -0.275
   12       -0.000  -0.037   0.000  -0.037
   13       -0.000  -0.008   0.000  -0.009
   14       -0.000  -0.010   0.000  -0.010
   15       -0.004  -0.273   0.000  -0.277
   16       -0.001  -0.065   0.000  -0.066
   17       -0.000   0.001   0.000   0.000
   18        0.000  -0.001   0.000  -0.001
   19       -0.000  -0.002   0.000  -0.002
   20       -0.000   0.001   0.000   0.000
   21        0.000  -0.000   0.000  -0.000
   22       -0.000  -0.002   0.000  -0.002
   23       -0.000  -0.003   0.000  -0.003
   24        0.000  -0.001   0.000  -0.001
   25       -0.000  -0.003   0.000  -0.003
   26        0.000  -0.001   0.000  -0.001
   27       -0.000  -0.002   0.000  -0.002
   28       -0.000  -0.002   0.000  -0.003
   29       -0.000   0.000   0.000   0.000
   30       -0.000   0.000   0.000  -0.000
   31       -0.000  -0.002   0.000  -0.002
   32       -0.000  -0.003   0.000  -0.003
--------------------------------------------------
tot         -0.008  -0.941   1.118   0.170
 

 total amount of memory used by VASP MPI-rank0    62245. kBytes
=======================================================================

   base      :      30000. kBytes
   nonlr-proj:       8402. kBytes
   fftplans  :       8424. kBytes
   grid      :       8783. kBytes
   one-center:        124. kBytes
   wavefun   :       6512. kBytes
 
  
  
 General timing and accounting informations for this job:
 ========================================================
  
                  Total CPU time used (sec):       87.873
                            User time (sec):       80.028
                          System time (sec):        7.845
                         Elapsed time (sec):       94.390
  
                   Maximum memory used (kb):      173464.
                   Average memory used (kb):           0.
  
                          Minor page faults:        30699
                          Major page faults:            2
                 Voluntary context switches:        20034
