 vasp.5.4.4.18Apr17-6-g9f103f2a35 (build Jul 16 2019 12:12:28) complex          
  
 executed on             LinuxIFC date 2020.01.06  11:58:01
 running on   96 total cores
 distrk:  each k-point on   96 cores,    1 groups
 distr:  one band on NCORES_PER_BAND=   8 cores,   12 groups


--------------------------------------------------------------------------------------------------------


 INCAR:
 POTCAR:    PAW_PBE Li_sv 10Sep2004               
 POTCAR:    PAW_PBE Ti_pv 07Sep2000               
 POTCAR:    PAW_PBE O 08Apr2002                   
 POTCAR:    PAW_PBE F 08Apr2002                   
 POTCAR:    PAW_PBE Li_sv 10Sep2004               
   VRHFIN =Li: 1s2s2p                                                           
   LEXCH  = PE                                                                  
   EATOM  =   202.7858 eV,   14.9043 Ry                                         
                                                                                
   TITEL  = PAW_PBE Li_sv 10Sep2004                                             
   LULTRA =        F    use ultrasoft PP ?                                      
   IUNSCR =        0    unscreen: 0-lin 1-nonlin 2-no                           
   RPACOR =    0.000    partial core radius                                     
   POMASS =    7.010; ZVAL   =    3.000    mass and valenz                      
   RCORE  =    1.700    outmost cutoff radius                                   
   RWIGS  =    2.050; RWIGS  =    1.085    wigner-seitz radius (au A)           
   ENMAX  =  499.034; ENMIN  =  374.276 eV                                      
   ICORE  =        2    local potential                                         
   LCOR   =        T    correct aug charges                                     
   LPAW   =        T    paw PP                                                  
   EAUG   =  628.945                                                            
   RMAX   =    1.732    core radius for proj-oper                               
   RAUG   =    1.300    factor for augmentation sphere                          
   RDEP   =    1.728    radius for radial grids                                 
   RDEPT  =    1.329    core radius for aug-charge                              
                                                                                
   Atomic configuration                                                         
    4 entries                                                                   
     n  l   j            E        occ.                                          
     1  0  0.50       -51.8549   2.0000                                         
     2  0  0.50        -2.8742   1.0000                                         
     2  1  0.50        -1.3606   0.0000                                         
     3  2  1.50        -1.3606   0.0000                                         
   Description                                                                  
     l       E           TYP  RCUT    TYP  RCUT                                 
     0    -51.8548813     23  1.400                                             
     0     -2.8742052     23  1.700                                             
     1     -1.3605826     23  1.400                                             
     2     -1.3605826     23  1.400                                             
  local pseudopotential read in
  atomic valenz-charges read in
  non local Contribution for L=           0  read in
    real space projection operators read in
  non local Contribution for L=           0  read in
    real space projection operators read in
  non local Contribution for L=           1  read in
    real space projection operators read in
    PAW grid and wavefunctions read in
 
   number of l-projection  operators is LMAX  =           3
   number of lm-projection operators is LMMAX =           5
 
 POTCAR:    PAW_PBE Ti_pv 07Sep2000               
   VRHFIN =Ti: d3 s1                                                            
   LEXCH  = PE                                                                  
   EATOM  =  1042.5995 eV,   76.6289 Ry                                         
                                                                                
   TITEL  = PAW_PBE Ti_pv 07Sep2000                                             
   LULTRA =        F    use ultrasoft PP ?                                      
   IUNSCR =        1    unscreen: 0-lin 1-nonlin 2-no                           
   RPACOR =    2.200    partial core radius                                     
   POMASS =   47.880; ZVAL   =   10.000    mass and valenz                      
   RCORE  =    2.500    outmost cutoff radius                                   
   RWIGS  =    2.500; RWIGS  =    1.323    wigner-seitz radius (au A)           
   ENMAX  =  222.335; ENMIN  =  166.751 eV                                      
   RCLOC  =    1.701    cutoff for local pot                                    
   LCOR   =        T    correct aug charges                                     
   LPAW   =        T    paw PP                                                  
   EAUG   =  482.848                                                            
   DEXC   =    0.000                                                            
   RMAX   =    2.564    core radius for proj-oper                               
   RAUG   =    1.300    factor for augmentation sphere                          
   RDEP   =    2.538    radius for radial grids                                 
   RDEPT  =    1.952    core radius for aug-charge                              
                                                                                
   Atomic configuration                                                         
    8 entries                                                                   
     n  l   j            E        occ.                                          
     1  0  0.50     -4865.3608   2.0000                                         
     2  0  0.50      -533.1368   2.0000                                         
     2  1  1.50      -440.5031   6.0000                                         
     3  0  0.50       -59.3186   2.0000                                         
     3  1  1.50       -35.7012   6.0000                                         
     3  2  2.50        -1.9157   3.0000                                         
     4  0  0.50        -3.7291   1.0000                                         
     4  3  2.50        -1.3606   0.0000                                         
   Description                                                                  
     l       E           TYP  RCUT    TYP  RCUT                                 
     1    -35.7012140     23  2.300                                             
     1     -1.3605826     23  2.300                                             
     2     -1.9156996     23  2.500                                             
     2     -0.4063033     23  2.500                                             
     0     -3.7290856     23  2.500                                             
     0     20.4087390     23  2.500                                             
  local pseudopotential read in
  partial core-charges read in
  partial kinetic energy density read in
  atomic valenz-charges read in
  non local Contribution for L=           1  read in
    real space projection operators read in
  non local Contribution for L=           1  read in
    real space projection operators read in
  non local Contribution for L=           2  read in
    real space projection operators read in
  non local Contribution for L=           2  read in
    real space projection operators read in
  non local Contribution for L=           0  read in
    real space projection operators read in
  non local Contribution for L=           0  read in
    real space projection operators read in
    PAW grid and wavefunctions read in
 
   number of l-projection  operators is LMAX  =           6
   number of lm-projection operators is LMMAX =          18
 
 POTCAR:    PAW_PBE O 08Apr2002                   
   VRHFIN =O: s2p4                                                              
   LEXCH  = PE                                                                  
   EATOM  =   432.3788 eV,   31.7789 Ry                                         
                                                                                
   TITEL  = PAW_PBE O 08Apr2002                                                 
   LULTRA =        F    use ultrasoft PP ?                                      
   IUNSCR =        1    unscreen: 0-lin 1-nonlin 2-no                           
   RPACOR =    1.200    partial core radius                                     
   POMASS =   16.000; ZVAL   =    6.000    mass and valenz                      
   RCORE  =    1.520    outmost cutoff radius                                   
   RWIGS  =    1.550; RWIGS  =    0.820    wigner-seitz radius (au A)           
   ENMAX  =  400.000; ENMIN  =  300.000 eV                                      
   ICORE  =        2    local potential                                         
   LCOR   =        T    correct aug charges                                     
   LPAW   =        T    paw PP                                                  
   EAUG   =  605.392                                                            
   DEXC   =    0.000                                                            
   RMAX   =    1.553    core radius for proj-oper                               
   RAUG   =    1.300    factor for augmentation sphere                          
   RDEP   =    1.550    radius for radial grids                                 
   RDEPT  =    1.329    core radius for aug-charge                              
                                                                                
   Atomic configuration                                                         
    4 entries                                                                   
     n  l   j            E        occ.                                          
     1  0  0.50      -514.6923   2.0000                                         
     2  0  0.50       -23.9615   2.0000                                         
     2  1  0.50        -9.0305   4.0000                                         
     3  2  1.50        -9.5241   0.0000                                         
   Description                                                                  
     l       E           TYP  RCUT    TYP  RCUT                                 
     0    -23.9615318     23  1.200                                             
     0     -9.5240782     23  1.200                                             
     1     -9.0304911     23  1.520                                             
     1      8.1634956     23  1.520                                             
     2     -9.5240782      7  1.500                                             
  local pseudopotential read in
  partial core-charges read in
  partial kinetic energy density read in
  kinetic energy density of atom read in
  atomic valenz-charges read in
  non local Contribution for L=           0  read in
    real space projection operators read in
  non local Contribution for L=           0  read in
    real space projection operators read in
  non local Contribution for L=           1  read in
    real space projection operators read in
  non local Contribution for L=           1  read in
    real space projection operators read in
    PAW grid and wavefunctions read in
 
   number of l-projection  operators is LMAX  =           4
   number of lm-projection operators is LMMAX =           8
 
 POTCAR:    PAW_PBE F 08Apr2002                   
   VRHFIN =F: s2p5                                                              
   LEXCH  = PE                                                                  
   EATOM  =   659.6475 eV,   48.4827 Ry                                         
                                                                                
   TITEL  = PAW_PBE F 08Apr2002                                                 
   LULTRA =        F    use ultrasoft PP ?                                      
   IUNSCR =        1    unscreen: 0-lin 1-nonlin 2-no                           
   RPACOR =    1.200    partial core radius                                     
   POMASS =   18.998; ZVAL   =    7.000    mass and valenz                      
   RCORE  =    1.520    outmost cutoff radius                                   
   RWIGS  =    1.500; RWIGS  =    0.794    wigner-seitz radius (au A)           
   ENMAX  =  400.000; ENMIN  =  300.000 eV                                      
   ICORE  =        2    local potential                                         
   LCOR   =        T    correct aug charges                                     
   LPAW   =        T    paw PP                                                  
   EAUG   =  613.614                                                            
   RMAX   =    1.555    core radius for proj-oper                               
   RAUG   =    1.300    factor for augmentation sphere                          
   RDEP   =    1.539    radius for radial grids                                 
   RDEPT  =    1.299    core radius for aug-charge                              
                                                                                
   Atomic configuration                                                         
    4 entries                                                                   
     n  l   j            E        occ.                                          
     1  0  0.50      -663.3661   2.0000                                         
     2  0  0.50       -29.8995   2.0000                                         
     2  1  0.50       -11.1114   5.0000                                         
     3  2  1.50       -10.8847   0.0000                                         
   Description                                                                  
     l       E           TYP  RCUT    TYP  RCUT                                 
     0    -29.8995018     23  1.200                                             
     0     -9.5240782     23  1.200                                             
     1    -11.1113914     23  1.520                                             
     1      1.3605826     23  1.520                                             
     2    -10.8846608      7  1.500                                             
  local pseudopotential read in
  partial core-charges read in
  partial kinetic energy density read in
  atomic valenz-charges read in
  non local Contribution for L=           0  read in
    real space projection operators read in
  non local Contribution for L=           0  read in
    real space projection operators read in
  non local Contribution for L=           1  read in
    real space projection operators read in
  non local Contribution for L=           1  read in
    real space projection operators read in
    PAW grid and wavefunctions read in
 
   number of l-projection  operators is LMAX  =           4
   number of lm-projection operators is LMMAX =           8
 
 Optimization of the real space projectors (new method)

 maximal supplied QI-value         = 22.11
 optimisation between [QCUT,QGAM] = [ 11.28, 22.77] = [ 35.61,145.23] Ry 
 Optimized for a Real-space Cutoff    1.31 Angstroem

   l    n(q)    QCUT    max X(q) W(low)/X(q) W(high)/X(q)  e(spline) 
   0      9    11.276    10.506    0.19E-04    0.17E-04    0.32E-07
   0      9    11.276     8.367    0.38E-04    0.40E-04    0.65E-07
   1      8    11.276     8.983    0.55E-04    0.98E-04    0.20E-06
 Optimization of the real space projectors (new method)

 maximal supplied QI-value         = 15.12
 optimisation between [QCUT,QGAM] = [ 11.34, 22.83] = [ 36.00,145.93] Ry 
 Optimized for a Real-space Cutoff    1.56 Angstroem

   l    n(q)    QCUT    max X(q) W(low)/X(q) W(high)/X(q)  e(spline) 
   1     10    11.338     4.216    0.27E-04    0.12E-04    0.66E-07
   1     10    11.338     5.422    0.81E-04    0.24E-04    0.19E-06
   2     10    11.338    72.084    0.64E-04    0.21E-03    0.51E-06
   2     10    11.338    65.965    0.63E-04    0.21E-03    0.50E-06
   0     11    11.338    41.531    0.33E-04    0.54E-04    0.13E-06
   0     11    11.338    16.290    0.26E-04    0.41E-04    0.11E-06
 Optimization of the real space projectors (new method)

 maximal supplied QI-value         = 24.76
 optimisation between [QCUT,QGAM] = [ 11.39, 22.77] = [ 36.31,145.25] Ry 
 Optimized for a Real-space Cutoff    1.20 Angstroem

   l    n(q)    QCUT    max X(q) W(low)/X(q) W(high)/X(q)  e(spline) 
   0      8    11.387    20.381    0.89E-04    0.31E-03    0.27E-06
   0      8    11.387    15.268    0.93E-04    0.32E-03    0.29E-06
   1      8    11.387     5.964    0.53E-04    0.28E-03    0.29E-06
   1      8    11.387     5.382    0.37E-04    0.22E-03    0.26E-06
 Optimization of the real space projectors (new method)

 maximal supplied QI-value         = 24.76
 optimisation between [QCUT,QGAM] = [ 11.39, 22.77] = [ 36.31,145.25] Ry 
 Optimized for a Real-space Cutoff    1.20 Angstroem

   l    n(q)    QCUT    max X(q) W(low)/X(q) W(high)/X(q)  e(spline) 
   0      8    11.387    14.049    0.69E-04    0.23E-03    0.18E-06
   0      8    11.387     8.945    0.88E-04    0.30E-03    0.26E-06
   1      8    11.387     7.086    0.62E-04    0.27E-03    0.27E-06
   1      8    11.387     6.747    0.46E-04    0.23E-03    0.25E-06

 ----------------------------------------------------------------------------- 
|                                                                             |
|  ADVICE TO THIS USER RUNNING 'VASP/VAMP'   (HEAR YOUR MASTER'S VOICE ...):  |
|                                                                             |
|      You enforced a specific xc-type in the INCAR file,                     |
|      a different type was found on the POTCAR file                          |
|          I HOPE YOU KNOW, WHAT YOU ARE  DOING                               |
|                                                                             |
 ----------------------------------------------------------------------------- 

  PAW_PBE Li_sv 10Sep2004               :
 energy of atom  1       EATOM= -202.7858
 kinetic energy error for atom=    0.0143 (will be added to EATOM!!)
  PAW_PBE Ti_pv 07Sep2000               :
 energy of atom  2       EATOM=-1042.5995
 kinetic energy error for atom=    0.0024 (will be added to EATOM!!)
  PAW_PBE O 08Apr2002                   :
 energy of atom  3       EATOM= -432.3788
 kinetic energy error for atom=    0.0224 (will be added to EATOM!!)
  PAW_PBE F 08Apr2002                   :
 energy of atom  4       EATOM= -659.6475
 kinetic energy error for atom=    0.0354 (will be added to EATOM!!)
 
 
 POSCAR: config 58                               
  positions in direct lattice
  velocities in cartesian coordinates
 exchange correlation table for  LEXCH =       14
   RHO(1)=    0.500       N(1)  =     2000
   RHO(2)=  100.500       N(2)  =     4000

 VTST: version 3.2, (02/03/18)

 CHAIN: initializing optimizer
 
 OPT: Using VASP QUASI-newton optimizer
 CHAIN: Read ICHAIN            0
 
 POSCAR: config 58                               
  positions in direct lattice
  velocities in cartesian coordinates
 


--------------------------------------------------------------------------------------------------------


 ion  position               nearest neighbor table
   1  0.868  0.564  0.375- 104 1.91 160 1.96 107 1.96
   2  0.995  0.996  0.994- 118 1.87  68 1.88 103 1.89 171 2.03 212 2.03 130 2.05
   3  1.000  0.992  0.493- 119 1.80  67 1.83 172 1.94 193 1.95 131 2.01 213 2.07
   4  0.005  0.495  0.997-  89 1.83 117 1.86 138 1.91 132 1.99 214 2.01 194 2.02
   5  0.994  0.503  0.507- 104 1.79  66 1.82 215 1.96 223 2.01 173 2.02 137 2.08
   6  0.494  0.995  1.000- 101 1.83 121 1.84 140 1.95 133 1.96 216 2.01 174 2.03
   7  0.501  0.008  0.500- 112 1.77 191 1.91 134 1.91 139 1.92 175 1.93 225 2.02
   8  0.504  0.496  0.996-  70 1.87 120 1.88  90 1.90 192 2.02 135 2.04 217 2.05
   9  0.491  0.499  0.495- 102 1.81  69 1.87 224 1.98 218 1.99 176 1.99 136 2.01
  10  0.007  0.003  0.256-  91 1.83  67 1.86 219 1.95 227 1.97 130 2.00 197 2.06
  11  0.001  0.008  0.757-  68 1.80 113 1.84 177 1.95 198 1.98 228 2.04 131 2.06
  12  0.995  0.493  0.249- 122 1.83 107 1.87 137 1.93 132 1.93 178 1.99 220 2.02
  13  0.991  0.499  0.743- 108 1.80  66 1.82 226 1.94 221 1.97 138 2.02 179 2.05
  14  0.507  0.008  0.250- 114 1.82  92 1.83 133 1.92 139 1.97 195 2.00 231 2.05
  15  0.493  0.005  0.752- 105 1.81 115 1.83 140 1.93 134 1.99 232 2.01 180 2.03
  16  0.493  0.497  0.258-  69 1.81 106 1.84 229 1.95 222 2.00 135 2.01 181 2.07
  17  0.501  0.505  0.759-  70 1.81 116 1.87 182 1.94 196 1.96 230 2.03 136 2.06
  18  0.995  0.258  0.001- 117 1.82 110 1.87 146 1.96 141 1.96 183 2.00 212 2.02
  19  0.999  0.248  0.491-  74 1.78 213 1.91 202 1.92 184 1.93 223 1.93 142 2.01
  20  0.998  0.758  0.006- 118 1.80  71 1.86 203 1.94 185 1.97 148 2.04 214 2.06
  21  0.998  0.757  0.506-  72 1.83 119 1.83 204 1.94 186 1.96 215 2.01 147 2.04
  22  0.495  0.258  0.001- 120 1.80 109 1.84 150 1.95 143 1.97 187 2.03 216 2.06
  23  0.508  0.246  0.500-  93 1.80 112 1.90 144 1.92 149 1.94 224 1.96 199 2.00
  24  0.507  0.757  0.999-  94 1.82 121 1.83 152 1.93 145 1.99 217 2.01 200 2.02
  25  0.507  0.753  0.509-  73 1.79  95 1.83 218 1.96 225 1.96 201 2.01 151 2.07
  26  0.999  0.257  0.255- 122 1.81  74 1.87 209 1.94 188 1.95 141 1.99 219 2.01
  27  0.006  0.243  0.747- 113 1.81  96 1.83 142 1.96 146 1.97 226 2.04 210 2.05
  28  0.007  0.749  0.243-  71 1.81  97 1.83 220 1.95 227 1.97 147 2.05 211 2.07
  29  0.993  0.751  0.743- 111 1.82  72 1.85 228 1.93 221 1.97 189 2.02 148 2.02
  30  0.508  0.243  0.251-  98 1.82 114 1.82 143 1.92 149 1.96 229 2.01 205 2.02
  31  0.507  0.243  0.750-  99 1.84 115 1.84 150 1.93 144 1.97 230 2.02 206 2.02
  32  0.507  0.752  0.252- 100 1.79 151 1.92 231 1.93 145 1.94 222 1.94 207 2.00
  33  0.502  0.742  0.744- 116 1.81  73 1.84 190 1.93 208 1.97 152 2.02 232 2.06
  34  0.256  0.999  0.006-  75 1.84 101 1.86 246 1.93 233 1.96 171 2.01 157 2.04
  35  0.250  0.994  0.507- 128 1.83  76 1.84 172 1.94 191 1.98 234 2.02 156 2.03
  36  0.243  0.508  0.998- 123 1.82  89 1.84 159 1.93 153 1.97 192 2.02 245 2.03
  37  0.254  0.495  0.506-  77 1.85 102 1.87 127 1.88 173 2.01 235 2.05 158 2.05
  38  0.757  0.001  0.994- 103 1.79  81 1.87 236 1.95 249 1.96 154 2.04 174 2.05
  39  0.751  0.008  0.495- 124 1.82  80 1.84 193 1.93 175 1.99 155 1.99 250 2.03
  40  0.742  0.501  0.003-  90 1.79  78 1.90 237 1.95 247 1.96 161 1.96 194 2.05
  41  0.751  0.497  0.506-  79 1.89 248 2.02 104 2.02 176 2.03 238 2.05 160 2.08
  42  0.245  0.003  0.244-  75 1.83  91 1.85 239 1.94 252 1.96 156 2.04 195 2.05
  43  0.258  0.998  0.744- 105 1.84  76 1.84 253 1.93 240 1.97 177 2.02 157 2.02
  44  0.256  0.493  0.252- 106 1.82 129 1.83 158 1.92 153 1.96 241 2.03 178 2.06
  45  0.247  0.506  0.741-  77 1.79 125 1.84 179 1.94 196 1.97 251 2.03 159 2.06
  46  0.745  0.000  0.256-  80 1.85  92 1.85 256 1.95 242 1.95 197 2.00 154 2.00
  47  0.748  0.007  0.756-  81 1.82 126 1.83 180 1.94 198 1.97 257 2.03 155 2.06
  48  0.755  0.499  0.239-  78 1.77 107 1.90 254 1.95 243 1.96 181 1.98 160 2.09
  49  0.757  0.498  0.743-  79 1.78 108 1.84 255 1.95 244 1.99 182 2.03 161 2.05
  50  0.257  0.252  0.006- 109 1.83  82 1.86 245 1.93 233 1.97 168 2.01 183 2.05
  51  0.253  0.257  0.505- 127 1.80  83 1.85 199 1.95 184 2.01 167 2.03 234 2.05
  52  0.252  0.743  0.993- 123 1.82  86 1.83 200 1.94 185 1.96 246 2.03 162 2.04
  53  0.252  0.756  0.493-  85 1.83 128 1.86 201 1.95 186 1.97 235 2.00 163 2.04
  54  0.757  0.251  0.007- 110 1.81  84 1.86 236 1.94 247 1.94 170 2.02 187 2.03
  55  0.743  0.243  0.498- 124 1.83  93 1.85 169 1.94 248 1.95 164 1.96 202 2.04
  56  0.742  0.750  0.994-  94 1.82  88 1.83 249 1.95 237 1.95 203 2.01 165 2.04
  57  0.741  0.753  0.494-  95 1.81  87 1.88 238 1.91 250 1.94 166 2.01 204 2.04
  58  0.252  0.258  0.244- 129 1.82  82 1.82 205 1.96 188 1.99 167 2.03 239 2.03
  59  0.244  0.252  0.744-  83 1.83  96 1.84 251 1.93 240 1.97 168 2.04 206 2.04
  60  0.244  0.749  0.256-  97 1.83  85 1.84 241 1.94 252 1.97 162 2.02 207 2.06
  61  0.248  0.742  0.757- 125 1.81  86 1.84 189 1.93 208 1.97 163 2.04 253 2.04
  62  0.742  0.252  0.242-  84 1.80  98 1.82 242 1.94 254 1.95 209 2.03 169 2.05
  63  0.744  0.242  0.751- 126 1.82  99 1.84 170 1.94 164 2.00 210 2.01 255 2.03
  64  0.745  0.751  0.256-  87 1.81 100 1.89 256 1.94 243 1.95 211 1.99 165 2.02
  65  0.757  0.751  0.757- 111 1.82  88 1.84 257 1.93 244 1.96 190 2.03 166 2.05
  66  0.000  0.502  0.625-  13 1.82   5 1.82
  67  0.995  0.006  0.376-   3 1.83  10 1.86
  68  0.999  0.002  0.873-  11 1.80   2 1.88
  69  0.502  0.495  0.375-  16 1.81   9 1.87
  70  0.497  0.499  0.876-  17 1.81   8 1.87
  71  0.999  0.746  0.126-  28 1.81  20 1.86
  72  0.001  0.746  0.624-  21 1.83  29 1.85
  73  0.502  0.755  0.625-  25 1.79  33 1.84
  74  0.996  0.247  0.376-  19 1.78  26 1.87
  75  0.255  0.004  0.125-  42 1.83  34 1.84
  76  0.254  0.004  0.625-  43 1.84  35 1.84
  77  0.243  0.496  0.626-  45 1.79  37 1.85
  78  0.757  0.489  0.124-  48 1.77  40 1.90
  79  0.751  0.491  0.629-  49 1.78  41 1.89
  80  0.751  0.001  0.376-  39 1.84  46 1.85
  81  0.747  0.999  0.874-  47 1.82  38 1.87
  82  0.247  0.250  0.126-  58 1.82  50 1.86
  83  0.253  0.250  0.625-  59 1.83  51 1.85
  84  0.744  0.261  0.126-  62 1.80  54 1.86
  85  0.255  0.747  0.374-  53 1.83  60 1.84
  86  0.251  0.753  0.875-  52 1.83  61 1.84
  87  0.753  0.749  0.373-  64 1.81  57 1.88
  88  0.748  0.752  0.876-  56 1.83  65 1.84
  89  0.124  0.504  0.000-   4 1.83  36 1.84
  90  0.626  0.507  0.003-  40 1.79   8 1.90
  91  0.126  0.002  0.252-  10 1.83  42 1.85
  92  0.625  0.998  0.250-  14 1.83  46 1.85
  93  0.624  0.257  0.497-  23 1.80  55 1.85
  94  0.625  0.743  0.003-  56 1.82  24 1.82
  95  0.624  0.764  0.495-  57 1.81  25 1.83
  96  0.125  0.251  0.749-  27 1.83  59 1.84
  97  0.126  0.754  0.252-  60 1.83  28 1.83
  98  0.626  0.250  0.261-  30 1.82  62 1.82
  99  0.625  0.252  0.746-  31 1.84  63 1.84
 100  0.623  0.756  0.251-  32 1.79  64 1.89
 101  0.376  0.000  0.993-   6 1.83  34 1.86
 102  0.374  0.506  0.501-   9 1.81  37 1.87
 103  0.873  0.003  0.001-  38 1.79   2 1.89
 104  0.880  0.508  0.485-   5 1.79   1 1.91  41 2.02
 105  0.376  0.996  0.756-  15 1.81  43 1.84
 106  0.374  0.498  0.252-  44 1.82  16 1.84
 107  0.876  0.507  0.262-  12 1.87  48 1.90   1 1.96
 108  0.875  0.508  0.755-  13 1.80  49 1.84
 109  0.376  0.248  0.003-  50 1.83  22 1.84
 110  0.874  0.248  0.005-  54 1.81  18 1.87
 111  0.875  0.745  0.749-  65 1.82  29 1.82
 112  0.510  0.123  0.498-   7 1.77  23 1.90
 113  0.996  0.126  0.744-  27 1.81  11 1.84
 114  0.498  0.125  0.261-  14 1.82  30 1.82
 115  0.501  0.124  0.746-  15 1.83  31 1.84
 116  0.501  0.625  0.749-  33 1.81  17 1.87
 117  0.999  0.375  0.005-  18 1.82   4 1.86
 118  0.001  0.875  0.001-  20 1.80   2 1.87
 119  0.997  0.875  0.498-   3 1.80  21 1.83
 120  0.502  0.374  0.006-  22 1.80   8 1.88
 121  0.504  0.876  0.002-  24 1.83   6 1.84
 122  0.002  0.375  0.246-  26 1.81  12 1.83
 123  0.255  0.625  0.002-  52 1.82  36 1.82
 124  0.742  0.125  0.505-  39 1.82  55 1.83
 125  0.248  0.625  0.750-  61 1.81  45 1.84
 126  0.752  0.125  0.744-  63 1.82  47 1.83
 127  0.252  0.373  0.494-  51 1.80  37 1.88
 128  0.253  0.876  0.500-  35 1.83  53 1.86
 129  0.243  0.375  0.256-  58 1.82  44 1.83
 130  0.000  0.003  0.127-  10 2.00   2 2.05
 131  0.005  0.998  0.623-   3 2.01  11 2.06
 132  0.993  0.510  0.125-  12 1.93   4 1.99
 133  0.495  0.006  0.126-  14 1.92   6 1.96
 134  0.498  0.993  0.623-   7 1.91  15 1.99
 135  0.500  0.507  0.128-  16 2.01   8 2.04
 136  0.503  0.499  0.625-   9 2.01  17 2.06
 137  0.009  0.500  0.373-  12 1.93   5 2.08
 138  0.002  0.497  0.873-   4 1.91  13 2.02
 139  0.503  0.992  0.377-   7 1.92  14 1.97
 140  0.514  0.002  0.875-  15 1.93   6 1.95
 141  0.007  0.246  0.127-  18 1.96  26 1.99
 142  0.999  0.259  0.621-  27 1.96  19 2.01
 143  0.507  0.240  0.127-  30 1.92  22 1.97
 144  0.494  0.250  0.623-  23 1.92  31 1.97
 145  0.496  0.747  0.127-  32 1.94  24 1.99
 146  0.996  0.251  0.874-  18 1.96  27 1.97
 147  0.992  0.751  0.375-  21 2.04  28 2.05
 148  0.002  0.751  0.874-  29 2.02  20 2.04
 149  0.493  0.261  0.376-  23 1.94  30 1.96
 150  0.502  0.250  0.875-  31 1.93  22 1.95
 151  0.493  0.753  0.376-  32 1.92  25 2.07
 152  0.498  0.751  0.874-  24 1.93  33 2.02
 153  0.249  0.495  0.125-  44 1.96  36 1.97
 154  0.749  0.002  0.127-  46 2.00  38 2.04
 155  0.746  0.995  0.623-  39 1.99  47 2.06
 156  0.253  0.001  0.375-  35 2.03  42 2.04
 157  0.244  0.995  0.875-  43 2.02  34 2.04
 158  0.243  0.511  0.375-  44 1.92  37 2.05
 159  0.255  0.498  0.874-  36 1.93  45 2.06
 160  0.750  0.517  0.373-   1 1.96  41 2.08  48 2.09
 161  0.747  0.507  0.876-  40 1.96  49 2.05
 162  0.252  0.754  0.125-  60 2.02  52 2.04
 163  0.249  0.751  0.625-  61 2.04  53 2.04
 164  0.752  0.262  0.623-  55 1.96  63 2.00
 165  0.753  0.750  0.126-  64 2.02  56 2.04
 166  0.747  0.751  0.624-  57 2.01  65 2.05
 167  0.252  0.244  0.374-  58 2.03  51 2.03
 168  0.251  0.251  0.875-  50 2.01  59 2.04
 169  0.761  0.240  0.373-  55 1.94  62 2.05
 170  0.751  0.243  0.876-  63 1.94  54 2.02
 171  0.126  0.002  0.002-  34 2.01   2 2.03
 172  0.125  0.005  0.497-  35 1.94   3 1.94
 173  0.124  0.500  0.495-  37 2.01   5 2.02
 174  0.625  0.002  0.007-   6 2.03  38 2.05
 175  0.624  0.984  0.502-   7 1.93  39 1.99
 176  0.620  0.490  0.500-   9 1.99  41 2.03
 177  0.127  0.002  0.748-  11 1.95  43 2.02
 178  0.123  0.506  0.243-  12 1.99  44 2.06
 179  0.123  0.494  0.758-  45 1.94  13 2.05
 180  0.624  0.995  0.742-  47 1.94  15 2.03
 181  0.627  0.496  0.248-  48 1.98  16 2.07
 182  0.626  0.494  0.754-  17 1.94  49 2.03
 183  0.125  0.251  0.996-  18 2.00  50 2.05
 184  0.124  0.246  0.499-  19 1.93  51 2.01
 185  0.125  0.746  0.001-  52 1.96  20 1.97
 186  0.125  0.751  0.495-  21 1.96  53 1.97
 187  0.626  0.250  0.996-  22 2.03  54 2.03
 188  0.124  0.240  0.255-  26 1.95  58 1.99
 189  0.123  0.754  0.751-  61 1.93  29 2.02
 190  0.626  0.754  0.751-  33 1.93  65 2.03
 191  0.378  0.008  0.497-   7 1.91  35 1.98
 192  0.373  0.496  0.006-   8 2.02  36 2.02
 193  0.875  0.008  0.509-  39 1.93   3 1.95
 194  0.875  0.499  0.994-   4 2.02  40 2.05
 195  0.377  0.998  0.256-  14 2.00  42 2.05
 196  0.374  0.498  0.746-  17 1.96  45 1.97
 197  0.874  0.002  0.246-  46 2.00  10 2.06
 198  0.874  0.993  0.742-  47 1.97  11 1.98
 199  0.379  0.241  0.497-  51 1.95  23 2.00
 200  0.377  0.756  0.002-  52 1.94  24 2.02
 201  0.377  0.744  0.503-  53 1.95  25 2.01
 202  0.875  0.246  0.504-  19 1.92  55 2.04
 203  0.872  0.754  0.999-  20 1.94  56 2.01
 204  0.873  0.743  0.502-  21 1.94  57 2.04
 205  0.378  0.256  0.248-  58 1.96  30 2.02
 206  0.376  0.250  0.754-  31 2.02  59 2.04
 207  0.377  0.747  0.247-  32 2.00  60 2.06
 208  0.375  0.755  0.749-  33 1.97  61 1.97
 209  0.874  0.252  0.245-  26 1.94  62 2.03
 210  0.874  0.254  0.747-  63 2.01  27 2.05
 211  0.874  0.742  0.249-  64 1.99  28 2.07
 212  0.004  0.127  0.001-  18 2.02   2 2.03
 213  1.000  0.126  0.509-  19 1.91   3 2.07
 214  0.994  0.626  0.994-   4 2.01  20 2.06
 215  0.006  0.628  0.490-   5 1.96  21 2.01
 216  0.505  0.125  0.999-   6 2.01  22 2.06
 217  0.490  0.627  0.001-  24 2.01   8 2.05
 218  0.508  0.627  0.498-  25 1.96   9 1.99
 219  0.994  0.128  0.246-  10 1.95  26 2.01
 220  0.001  0.624  0.259-  28 1.95  12 2.02
 221  0.010  0.625  0.756-  29 1.97  13 1.97
 222  0.504  0.626  0.254-  32 1.94  16 2.00
 223  0.002  0.373  0.497-  19 1.93   5 2.01
 224  0.489  0.372  0.506-  23 1.96   9 1.98
 225  0.487  0.878  0.497-  25 1.96   7 2.02
 226  0.996  0.374  0.751-  13 1.94  27 2.04
 227  0.993  0.876  0.251-  10 1.97  28 1.97
 228  0.001  0.876  0.747-  29 1.93  11 2.04
 229  0.502  0.372  0.241-  16 1.95  30 2.01
 230  0.497  0.373  0.747-  31 2.02  17 2.03
 231  0.494  0.876  0.248-  32 1.93  14 2.05
 232  0.503  0.875  0.755-  15 2.01  33 2.06
 233  0.246  0.125  0.994-  34 1.96  50 1.97
 234  0.250  0.124  0.497-  35 2.02  51 2.05
 235  0.245  0.627  0.504-  53 2.00  37 2.05
 236  0.743  0.126  0.004-  54 1.94  38 1.95
 237  0.760  0.626  0.005-  56 1.95  40 1.95
 238  0.742  0.629  0.503-  57 1.91  41 2.05
 239  0.258  0.127  0.254-  42 1.94  58 2.03
 240  0.252  0.125  0.758-  43 1.97  59 1.97
 241  0.249  0.624  0.242-  60 1.94  44 2.03
 242  0.755  0.126  0.246-  62 1.94  46 1.95
 243  0.743  0.625  0.243-  64 1.95  48 1.96
 244  0.739  0.625  0.748-  65 1.96  49 1.99
 245  0.249  0.376  0.998-  50 1.93  36 2.03
 246  0.246  0.874  0.004-  34 1.93  52 2.03
 247  0.748  0.375  0.987-  54 1.94  40 1.96
 248  0.759  0.368  0.484-  55 1.95  41 2.02
 249  0.746  0.875  0.008-  56 1.95  38 1.96
 250  0.763  0.877  0.502-  57 1.94  39 2.03
 251  0.253  0.376  0.756-  59 1.93  45 2.03
 252  0.256  0.876  0.251-  42 1.96  60 1.97
 253  0.246  0.874  0.746-  43 1.93  61 2.04
 254  0.754  0.375  0.267-  48 1.95  62 1.95
 255  0.754  0.373  0.763-  49 1.95  63 2.03
 256  0.758  0.875  0.245-  64 1.94  46 1.95
 257  0.750  0.875  0.745-  65 1.93  47 2.03
 

IMPORTANT INFORMATION: All symmetrisations will be switched off!
NOSYMM: (Re-)initialisation of all symmetry stuff for point group C_1.

 
 
 KPOINTS: Title                                   

Automatic generation of k-mesh.
Space group operators:
 irot       det(A)        alpha          n_x          n_y          n_z        tau_x        tau_y        tau_z
    1     1.000000     0.000001     1.000000     0.000000     0.000000     0.000000     0.000000     0.000000
 
 Subroutine IBZKPT returns following result:
 ===========================================
 
 Found      4 irreducible k-points:
 
 Following reciprocal coordinates:
            Coordinates               Weight
  0.250000  0.250000  0.250000      2.000000
 -0.250000  0.250000  0.250000      2.000000
  0.250000 -0.250000  0.250000      2.000000
 -0.250000 -0.250000  0.250000      2.000000
 
 Following cartesian coordinates:
            Coordinates               Weight
  0.016206  0.016206  0.016206      2.000000
 -0.016206  0.016206  0.016206      2.000000
  0.016206 -0.016206  0.016206      2.000000
 -0.016206 -0.016206  0.016206      2.000000
 


--------------------------------------------------------------------------------------------------------




 Dimension of arrays:
   k-points           NKPTS =      4   k-points in BZ     NKDIM =      4   number of bands    NBANDS=   1164
   number of dos      NEDOS =   3001   number of ions     NIONS =    257
   non local maximal  LDIM  =      6   non local SUM 2l+1 LMDIM =     18
   total plane-waves  NPLWV = ******
   max r-space proj   IRMAX =   7595   max aug-charges    IRDMAX= 146383
   dimension x,y,z NGX =   120 NGY =  120 NGZ =  120
   dimension x,y,z NGXF=   240 NGYF=  240 NGZF=  240
   support grid    NGXF=   480 NGYF=  480 NGZF=  480
   ions per type =               1  64  64 128
   NGX,Y,Z   is equivalent  to a cutoff of  12.93, 12.93, 12.93 a.u.
   NGXF,Y,Z  is equivalent  to a cutoff of  25.86, 25.86, 25.86 a.u.

 SYSTEM =  LTO                                     
 POSCAR =  config 58                               

 Startparameter for this run:
   NWRITE =      2    write-flag & timer
   PREC   = accura    normal or accurate (medium, high low for compatibility)
   ISTART =      1    job   : 0-new  1-cont  2-samecut
   ICHARG =      0    charge: 1-file 2-atom 10-const
   ISPIN  =      2    spin polarized calculation?
   LNONCOLLINEAR =      F non collinear calculations
   LSORBIT =      F    spin-orbit coupling
   INIWAV =      1    electr: 0-lowe 1-rand  2-diag
   LASPH  =      T    aspherical Exc in radial PAW
   METAGGA=      F    non-selfconsistent MetaGGA calc.

 Electronic Relaxation 1
   ENCUT  =  500.0 eV  36.75 Ry    6.06 a.u.  28.13 28.13 28.13*2*pi/ulx,y,z
   ENINI  =  500.0     initial cutoff
   ENAUG  =  628.9 eV  augmentation charge cutoff
   NELM   =     60;   NELMIN=  2; NELMDL=  0     # of ELM steps 
   EDIFF  = 0.1E-05   stopping-criterion for ELM
   LREAL  =      T    real-space projection
   NLSPLINE    = F    spline interpolate recip. space projectors
   LCOMPAT=      F    compatible to vasp.4.4
   GGA_COMPAT  = T    GGA compatible to vasp.4.4-vasp.4.6
   LMAXPAW     = -100 max onsite density
   LMAXMIX     =    4 max onsite mixed and CHGCAR
   VOSKOWN=      0    Vosko Wilk Nusair interpolation
   ROPT   =   -0.00010  -0.00010  -0.00010  -0.00010
 Ionic relaxation
   EDIFFG = -.5E-01   stopping-criterion for IOM
   NSW    =    100    number of steps for IOM
   NBLOCK =      1;   KBLOCK =    100    inner block; outer block 
   IBRION =      1    ionic relax: 0-MD 1-quasi-New 2-CG
   NFREE  =      0    steps in history (QN), initial steepest desc. (CG)
   ISIF   =      2    stress and relaxation
   IWAVPR =     11    prediction:  0-non 1-charg 2-wave 3-comb
   ISYM   =      0    0-nonsym 1-usesym 2-fastsym
   LCORR  =      T    Harris-Foulkes like correction to forces

   POTIM  = 0.5000    time-step for ionic-motion
   TEIN   =    0.0    initial temperature
   TEBEG  =    0.0;   TEEND  =   0.0 temperature during run
   SMASS  =  -3.00    Nose mass-parameter (am)
   estimated Nose-frequenzy (Omega)   =  0.10E-29 period in steps =****** mass=  -0.544E-26a.u.
   SCALEE = 1.0000    scale energy and forces
   NPACO  =    256;   APACO  = 16.0  distance and # of slots for P.C.
   PSTRESS=    0.0 pullay stress

  Mass of Ions in am
   POMASS =   7.01 47.88 16.00 19.00
  Ionic Valenz
   ZVAL   =   3.00 10.00  6.00  7.00
  Atomic Wigner-Seitz radii
   RWIGS  =  -1.00 -1.00 -1.00 -1.00
  virtual crystal weights 
   VCA    =   1.00  1.00  1.00  1.00
   NELECT =    1923.0000    total number of electrons
   NUPDOWN=       1.0000    fix difference up-down

 DOS related values:
   EMIN   =  10.00;   EMAX   =-10.00  energy-range for DOS
   EFERMI =   0.00
   ISMEAR =     0;   SIGMA  =   0.01  broadening in eV -4-tet -1-fermi 0-gaus

 Electronic relaxation 2 (details)
   IALGO  =     38    algorithm
   LDIAG  =      T    sub-space diagonalisation (order eigenvalues)
   LSUBROT=      F    optimize rotation matrix (better conditioning)
   TURBO    =      0    0=normal 1=particle mesh
   IRESTART =      0    0=no restart 2=restart with 2 vectors
   NREBOOT  =      0    no. of reboots
   NMIN     =      0    reboot dimension
   EREF     =   0.00    reference energy to select bands
   IMIX   =      4    mixing-type and parameters
     AMIX     =   0.40;   BMIX     =  1.00
     AMIX_MAG =   1.60;   BMIX_MAG =  1.00
     AMIN     =   0.10
     WC   =   100.;   INIMIX=   1;  MIXPRE=   1;  MAXMIX= -45

 Intra band minimization:
   WEIMIN = 0.0010     energy-eigenvalue tresh-hold
   EBREAK =  0.21E-09  absolut break condition
   DEPER  =   0.30     relativ break condition  

   TIME   =   0.40     timestep for ELM

  volume/ion in A,a.u.               =      14.28        96.39
  Fermi-wavevector in a.u.,A,eV,Ry     =   1.319690  2.493853 23.695660  1.741582
  Thomas-Fermi vector in A             =   2.449570
 
 Write flags
   LWAVE        =      T    write WAVECAR
   LDOWNSAMPLE  =      F    k-point downsampling of WAVECAR
   LCHARG       =      T    write CHGCAR
   LVTOT        =      F    write LOCPOT, total local potential
   LVHAR        =      F    write LOCPOT, Hartree potential only
   LELF         =      F    write electronic localiz. function (ELF)
   LORBIT       =     11    0 simple, 1 ext, 2 COOP (PROOUT), +10 PAW based schemes


 Dipole corrections
   LMONO  =      F    monopole corrections only (constant potential shift)
   LDIPOL =      F    correct potential (dipole corrections)
   IDIPOL =      0    1-x, 2-y, 3-z, 4-all directions 
   EPSILON=  1.0000000 bulk dielectric constant

 LDA+U is selected, type is set to LDAUTYPE =  2
   angular momentum for each species LDAUL =    -1    2   -1   -1
   U (eV)           for each species LDAUU =   0.0  4.2  0.0  0.0
   J (eV)           for each species LDAUJ =   0.0  0.0  0.0  0.0
 Exchange correlation treatment:
   GGA     =    PS    GGA type
   LEXCH   =    14    internal setting for exchange type
   VOSKOWN=      0    Vosko Wilk Nusair interpolation
   LHFCALC =     F    Hartree Fock is set to
   LHFONE  =     F    Hartree Fock one center treatment
   AEXX    =    0.0000 exact exchange contribution

 Linear response parameters
   LEPSILON=     F    determine dielectric tensor
   LRPA    =     F    only Hartree local field effects (RPA)
   LNABLA  =     F    use nabla operator in PAW spheres
   LVEL    =     F    velocity operator in full k-point grid
   LINTERFAST=   F  fast interpolation
   KINTER  =     0    interpolate to denser k-point grid
   CSHIFT  =0.1000    complex shift for real part using Kramers Kronig
   OMEGAMAX=  -1.0    maximum frequency
   DEG_THRESHOLD= 0.2000000E-02 threshold for treating states as degnerate
   RTIME   =   -0.100 relaxation time in fs
  (WPLASMAI=    0.000 imaginary part of plasma frequency in eV, 0.658/RTIME)
   DFIELD  = 0.0000000 0.0000000 0.0000000 field for delta impulse in time
 
 Orbital magnetization related:
   ORBITALMAG=     F  switch on orbital magnetization
   LCHIMAG   =     F  perturbation theory with respect to B field
   DQ        =  0.001000  dq finite difference perturbation B field
   LLRAUG    =     F  two centre corrections for induced B field



--------------------------------------------------------------------------------------------------------


 quasi-Newton-method for relaxation of ions
 charge density and potential will be updated during run
 spin polarized calculation
 Variant of blocked Davidson
 Davidson routine will perform the subspace rotation
 perform sub-space diagonalisation
    after iterative eigenvector-optimisation
 modified Broyden-mixing scheme, WC =      100.0
 initial mixing is a Kerker type mixing with AMIX =  0.4000 and BMIX =      1.0000
 Hartree-type preconditioning will be used
 using additional bands          202
 real space projection scheme for non local part
 use partial core corrections
 calculate Harris-corrections to forces 
   (improved forces if not selfconsistent)
 use gradient corrections 
 use of overlap-Matrix (Vanderbilt PP)
 Gauss-broadening in eV      SIGMA  =   0.01


--------------------------------------------------------------------------------------------------------


  energy-cutoff  :      500.00
  volume of cell :     3671.03
      direct lattice vectors                 reciprocal lattice vectors
    15.426331000  0.000000000  0.000000000     0.064824228  0.000000000  0.000000000
     0.000000000 15.426331000  0.000000000     0.000000000  0.064824228  0.000000000
     0.000000000  0.000000000 15.426331000     0.000000000  0.000000000  0.064824228

  length of vectors
    15.426331000 15.426331000 15.426331000     0.064824228  0.064824228  0.064824228


 
 old parameters found on file WAVECAR:
  energy-cutoff  :      500.00
  volume of cell :     3671.03
      direct lattice vectors                 reciprocal lattice vectors
    15.426331000  0.000000000  0.000000000     0.064824228  0.000000000  0.000000000
     0.000000000 15.426331000  0.000000000     0.000000000  0.064824228  0.000000000
     0.000000000  0.000000000 15.426331000     0.000000000  0.000000000  0.064824228

  length of vectors

 
 k-points in units of 2pi/SCALE and weight: Title                                   
   0.01620606  0.01620606  0.01620606       0.250
  -0.01620606  0.01620606  0.01620606       0.250
   0.01620606 -0.01620606  0.01620606       0.250
  -0.01620606 -0.01620606  0.01620606       0.250
 
 k-points in reciprocal lattice and weights: Title                                   
   0.25000000  0.25000000  0.25000000       0.250
  -0.25000000  0.25000000  0.25000000       0.250
   0.25000000 -0.25000000  0.25000000       0.250
  -0.25000000 -0.25000000  0.25000000       0.250
 
 position of ions in fractional coordinates (direct lattice) 
   0.86782075  0.56362669  0.37549422
   0.99510939  0.99571683  0.99436370
   0.99986526  0.99214770  0.49335868
   0.00545989  0.49548904  0.99709909
   0.99402213  0.50285450  0.50737576
   0.49415979  0.99455355  0.99958389
   0.50131987  0.00819249  0.50020658
   0.50369669  0.49560135  0.99649707
   0.49104210  0.49926482  0.49539838
   0.00691915  0.00265698  0.25604964
   0.00122582  0.00788557  0.75659506
   0.99544613  0.49331471  0.24891823
   0.99102639  0.49926180  0.74281303
   0.50666967  0.00831279  0.25040145
   0.49266961  0.00514773  0.75178802
   0.49301194  0.49730839  0.25780025
   0.50066690  0.50460966  0.75873025
   0.99531099  0.25751658  0.00131328
   0.99897950  0.24819427  0.49147402
   0.99813923  0.75829336  0.00587411
   0.99830458  0.75697561  0.50629652
   0.49480769  0.25804354  0.00092845
   0.50823915  0.24580927  0.49972037
   0.50732430  0.75667499  0.99903865
   0.50695788  0.75340888  0.50903135
   0.99922405  0.25743109  0.25535785
   0.00642437  0.24268605  0.74726615
   0.00721439  0.74933269  0.24270778
   0.99286046  0.75078978  0.74338493
   0.50835085  0.24268488  0.25147064
   0.50669351  0.24294235  0.75008906
   0.50663967  0.75189346  0.25208693
   0.50167219  0.74238943  0.74351845
   0.25634672  0.99882688  0.00606277
   0.25025451  0.99418271  0.50659042
   0.24320944  0.50802749  0.99822893
   0.25396724  0.49468430  0.50629885
   0.75716412  0.00070559  0.99422627
   0.75061554  0.00764915  0.49463896
   0.74173922  0.50059424  0.00271901
   0.75110062  0.49676445  0.50612456
   0.24500833  0.00252316  0.24380000
   0.25750771  0.99798645  0.74432277
   0.25593184  0.49277138  0.25192713
   0.24678435  0.50626200  0.74121399
   0.74497152  0.00045162  0.25589706
   0.74834026  0.00662454  0.75605840
   0.75525761  0.49851891  0.23900165
   0.75679840  0.49754058  0.74345783
   0.25724464  0.25157186  0.00575500
   0.25337274  0.25693520  0.50546992
   0.25198927  0.74277700  0.99348046
   0.25207652  0.75575460  0.49287954
   0.75724426  0.25101337  0.00718246
   0.74289597  0.24346505  0.49774045
   0.74195675  0.74989307  0.99388773
   0.74127860  0.75298447  0.49436030
   0.25152354  0.25810139  0.24362601
   0.24411150  0.25155870  0.74366440
   0.24406965  0.74860687  0.25582877
   0.24804527  0.74191581  0.75659068
   0.74243658  0.25157292  0.24242225
   0.74416449  0.24228468  0.75073818
   0.74510497  0.75059275  0.25626572
   0.75737501  0.75063978  0.75670360
   0.00020257  0.50191729  0.62527510
   0.99533702  0.00580234  0.37576292
   0.99941624  0.00240458  0.87281183
   0.50155710  0.49488043  0.37490868
   0.49697176  0.49875045  0.87566190
   0.99883162  0.74582514  0.12561551
   0.00140415  0.74615710  0.62414994
   0.50188547  0.75503087  0.62487131
   0.99556968  0.24733574  0.37590649
   0.25457273  0.00360483  0.12548970
   0.25370346  0.00378264  0.62536746
   0.24299046  0.49593553  0.62578264
   0.75726834  0.48915186  0.12442332
   0.75058000  0.49088449  0.62873582
   0.75123484  0.00055412  0.37560002
   0.74654004  0.99914329  0.87374778
   0.24678152  0.25008308  0.12574674
   0.25336599  0.24950521  0.62522665
   0.74391399  0.26078810  0.12641954
   0.25522667  0.74724908  0.37441484
   0.25138029  0.75297106  0.87525615
   0.75334895  0.74868984  0.37343312
   0.74845276  0.75237231  0.87555593
   0.12401940  0.50351181  0.00044837
   0.62608860  0.50666905  0.00320680
   0.12550345  0.00158524  0.25225750
   0.62502906  0.99825894  0.25000195
   0.62406591  0.25728551  0.49656305
   0.62465465  0.74265474  0.00322420
   0.62419612  0.76416949  0.49523204
   0.12465624  0.25058053  0.74881979
   0.12551213  0.75371957  0.25206911
   0.62570850  0.24991602  0.26058383
   0.62529326  0.25193758  0.74612478
   0.62280528  0.75636616  0.25115245
   0.37590999  0.00039571  0.99291398
   0.37421673  0.50608160  0.50053290
   0.87308398  0.00273518  0.00070511
   0.88008568  0.50832399  0.48546159
   0.37601255  0.99612539  0.75622473
   0.37408656  0.49814469  0.25157859
   0.87598848  0.50700569  0.26173534
   0.87520060  0.50769977  0.75483311
   0.37575240  0.24806712  0.00260057
   0.87422839  0.24792317  0.00456249
   0.87493214  0.74478315  0.74941512
   0.51002786  0.12261805  0.49764915
   0.99562076  0.12618446  0.74370452
   0.49809887  0.12548645  0.26072571
   0.50059443  0.12365432  0.74604761
   0.50077087  0.62548514  0.74892889
   0.99949765  0.37536107  0.00476646
   0.00138432  0.87513131  0.00136100
   0.99741770  0.87530708  0.49820178
   0.50222605  0.37433993  0.00645240
   0.50397070  0.87550253  0.00241116
   0.00217917  0.37458466  0.24626842
   0.25494182  0.62532912  0.00181988
   0.74175083  0.12487578  0.50483038
   0.24842026  0.62485866  0.75033421
   0.75186794  0.12470546  0.74406320
   0.25231320  0.37316163  0.49370471
   0.25254442  0.87605096  0.49998698
   0.24319898  0.37509152  0.25637457
   0.00033351  0.00253232  0.12679725
   0.00467320  0.99792368  0.62345386
   0.99255369  0.50977615  0.12460303
   0.49462744  0.00554041  0.12645736
   0.49785578  0.99272442  0.62322099
   0.50043857  0.50712165  0.12796330
   0.50265382  0.49926966  0.62541188
   0.00858762  0.49961447  0.37339514
   0.00162552  0.49723244  0.87324865
   0.50279066  0.99187816  0.37691459
   0.51422811  0.00231834  0.87506643
   0.00670611  0.24575418  0.12741858
   0.99900199  0.25851542  0.62109309
   0.50726866  0.24045257  0.12685788
   0.49382634  0.24958268  0.62328568
   0.49638411  0.74743138  0.12708219
   0.99636173  0.25059238  0.87435763
   0.99248122  0.75056796  0.37455985
   0.00191772  0.75121367  0.87397329
   0.49277954  0.26107508  0.37596994
   0.50203294  0.24989336  0.87482215
   0.49254924  0.75253134  0.37559601
   0.49836671  0.75070259  0.87416058
   0.24896484  0.49466433  0.12501553
   0.74907449  0.00243175  0.12650807
   0.74617462  0.99501647  0.62307577
   0.25336947  0.00124185  0.37546840
   0.24374129  0.99473268  0.87461443
   0.24298449  0.51136835  0.37460666
   0.25462584  0.49770690  0.87414155
   0.74950731  0.51708522  0.37288817
   0.74740949  0.50724100  0.87578373
   0.25215188  0.75420859  0.12513007
   0.24898570  0.75107192  0.62495167
   0.75245370  0.26157223  0.62310855
   0.75266783  0.74986104  0.12576961
   0.74748839  0.75067080  0.62441123
   0.25168193  0.24393047  0.37425372
   0.25077134  0.25122478  0.87546282
   0.76083440  0.23965115  0.37338325
   0.75068918  0.24317984  0.87638749
   0.12605887  0.00189163  0.00180547
   0.12511923  0.00511569  0.49734466
   0.12417653  0.49968703  0.49546351
   0.62509519  0.00163386  0.00727306
   0.62408509  0.98361256  0.50151527
   0.61957695  0.48970782  0.50043526
   0.12686793  0.00152441  0.74789488
   0.12340459  0.50572052  0.24275357
   0.12294262  0.49398266  0.75787118
   0.62362300  0.99546511  0.74179911
   0.62701460  0.49593813  0.24817911
   0.62556152  0.49363760  0.75361673
   0.12490498  0.25051781  0.99579163
   0.12381055  0.24623127  0.49904787
   0.12515686  0.74587628  0.00086978
   0.12470617  0.75123953  0.49531268
   0.62606601  0.24952813  0.99611715
   0.12421247  0.24022966  0.25540197
   0.12344463  0.75370348  0.75063769
   0.62619116  0.75394382  0.75062271
   0.37762933  0.00757514  0.49657546
   0.37339148  0.49619684  0.00558458
   0.87507158  0.00763165  0.50885176
   0.87457951  0.49854614  0.99425731
   0.37745262  0.99827095  0.25589226
   0.37420015  0.49772275  0.74583509
   0.87398620  0.00179333  0.24645213
   0.87430031  0.99334898  0.74202947
   0.37858557  0.24075379  0.49653496
   0.37665746  0.75642223  0.00193966
   0.37725514  0.74390510  0.50270619
   0.87500973  0.24597009  0.50444115
   0.87239794  0.75383835  0.99878648
   0.87311987  0.74271030  0.50187856
   0.37822345  0.25614368  0.24783994
   0.37612249  0.25003036  0.75374122
   0.37722919  0.74671744  0.24708360
   0.37505263  0.75544696  0.74870069
   0.87423811  0.25209775  0.24498333
   0.87413384  0.25411565  0.74744727
   0.87364475  0.74208341  0.24930717
   0.00397109  0.12711682  0.00140627
   0.99991824  0.12567480  0.50862044
   0.99409730  0.62552764  0.99399757
   0.00592354  0.62802781  0.49010471
   0.50453217  0.12472518  0.99878232
   0.49042441  0.62744001  0.00089609
   0.50817513  0.62696708  0.49844854
   0.99411362  0.12783717  0.24639159
   0.00135534  0.62394390  0.25876923
   0.01028298  0.62497550  0.75561318
   0.50431353  0.62614323  0.25432206
   0.00150368  0.37347161  0.49715621
   0.48948348  0.37162929  0.50590689
   0.48731357  0.87822655  0.49667410
   0.99579051  0.37413768  0.75114009
   0.99271965  0.87599281  0.25072325
   0.00055871  0.87586418  0.74743536
   0.50230247  0.37234458  0.24099595
   0.49669750  0.37330162  0.74684231
   0.49420691  0.87622720  0.24770362
   0.50284200  0.87525633  0.75508604
   0.24596304  0.12503461  0.99366476
   0.24954080  0.12449404  0.49668009
   0.24540828  0.62708543  0.50436803
   0.74326285  0.12622576  0.00448466
   0.76028611  0.62556890  0.00500314
   0.74249415  0.62928501  0.50288383
   0.25800144  0.12690641  0.25352758
   0.25222776  0.12458379  0.75773102
   0.24935767  0.62392070  0.24155545
   0.75474609  0.12626154  0.24559847
   0.74341308  0.62501743  0.24264431
   0.73943735  0.62536967  0.74783449
   0.24898655  0.37629963  0.99763354
   0.24577312  0.87409880  0.00357382
   0.74819798  0.37496794  0.98671069
   0.75850424  0.36812487  0.48411489
   0.74599717  0.87515910  0.00765377
   0.76269299  0.87692906  0.50165337
   0.25300272  0.37592245  0.75616977
   0.25623859  0.87583615  0.25061868
   0.24608716  0.87368728  0.74607719
   0.75357609  0.37518791  0.26717606
   0.75363595  0.37288458  0.76250854
   0.75773319  0.87518295  0.24468354
   0.75043302  0.87523598  0.74491710
 
 position of ions in cartesian coordinates  (Angst):
  13.38729010  8.69469195  5.79249816
  15.35088681 15.36025744 15.33938354
  15.42425238 15.30519880  7.61071428
   0.08422602  7.64357795 15.38158060
  15.33411439  7.75719996  7.82694642
   7.62307255 15.34231227 15.41991195
   7.73352627  0.12638006  7.71635225
   7.77019193  7.64531053 15.37229359
   7.57497803  7.70182435  7.64217934
   0.10673706  0.04098746  3.94990654
   0.01890994  0.12164542 11.67148576
  15.35608142  7.61003607  3.83989507
  15.28790112  7.70177775 11.45887970
   7.81605398  0.12823588  3.86277565
   7.60008441  0.07941057 11.59733079
   7.60536530  7.67164382  3.97691193
   7.72345338  7.78427566 11.70442398
  15.35399679  3.97253595  0.02025907
  15.41058846  3.82872691  7.58164083
  15.39762620 11.69768436  0.09061598
  15.40017690 11.67735630  7.81029767
   7.63306725  3.98066507  0.01432254
   7.84026541  3.79193515  7.70885177
   7.82615255 11.67271878 15.41150091
   7.82050000 11.62233472  7.85248617
  15.41436099  3.97121719  3.93923474
   0.09910443  3.74375539 11.52757503
   0.11129156 11.55945414  3.74409052
  15.31619413 11.58193165 11.46770203
   7.84198845  3.74373725  3.87926933
   7.81642181  3.74770905 11.57112219
   7.81559119 11.59895739  3.88877649
   7.73896132 11.45234504 11.46976169
   3.95448933 15.40823400  0.09352624
   3.86050883 15.33659162  7.81483158
   3.75182927  7.83700022 15.39900987
   3.91778277  7.63116368  7.81033365
  11.68026441  0.01088459 15.33726356
  11.57924381  0.11799836  7.63046428
  11.44231474  7.72233243  0.04194428
  11.58672674  7.66325289  7.80764499
   3.77957956  0.03892312  3.76093954
   3.97239921 15.39526935 11.48216938
   3.94808925  7.60165449  3.88631136
   3.80697705  7.80976524 11.43421238
  11.49217719  0.00696687  3.94755268
  11.54414461  0.10219227 11.66320719
  11.65085384  7.69031769  3.68691861
  11.67462258  7.67522568 11.46882664
   3.96834096  3.88083083  0.08877855
   3.90861172  3.96356740  7.79754633
   3.88726991 11.45832382 15.32575848
   3.88861577 11.65852055  7.60332289
  11.68150068  3.87221533  0.11079903
  11.46015913  3.75577237  7.67830888
  11.44567041 11.56809870 15.33204107
  11.43520905 11.61578772  7.62616561
   3.88008543  3.98155749  3.75825544
   3.76574474  3.88062779 11.47201326
   3.76509928 11.54825737  3.94649933
   3.82642844 11.44503892 11.67141823
  11.45307246  3.88084719  3.73968588
  11.47972771  3.73756374 11.58113564
  11.49423590 11.57889216  3.95323981
  11.68351763 11.57961766 11.67316020
   0.00312495  7.74274228  9.64570068
  15.35439836  0.08950879  5.79664314
  15.41732571  0.03709385 13.46428423
   7.73718588  7.63418934  5.78346543
   7.66645086  7.69388952 13.50825027
  15.40830718 11.50534551  1.93778648
   0.02166094 11.51046646  9.62834358
   7.74225143 11.64735609  9.63947171
  15.35798744  3.81548298  5.79885789
   3.92712318  0.05560926  1.93584563
   3.91371360  0.05835229  9.64712551
   3.74845131  7.65046569  9.65353021
  11.68187203  7.54581854  1.91939535
  11.57869548  7.57254663  9.69908687
  11.58879728  0.00854796  5.79413030
  11.51637381 15.41311507 13.47872248
   3.80693340  3.85786437  1.93981079
   3.90850756  3.84894992  9.64495332
  11.47586343  4.02300355  1.95018971
   3.93721105 11.52731162  5.77584730
   3.87787549 11.61558078 13.50199115
  11.62141031 11.54953726  5.76070285
  11.54587997 11.60634426 13.50661560
   1.91316430  7.76733989  0.00691677
   9.65824991  7.81604447  0.04946910
   1.93605769  0.02445450  3.89140771
   9.64190520 15.39947289  3.85661285
   9.62704730  3.96897138  7.66014595
   9.63612937 11.45643790  0.04973752
   9.62905595 11.78833155  7.63961337
   1.92298843  3.86553815 11.55154191
   1.93619159 11.62712760  3.88850151
   9.65238648  3.85528730  4.01985237
   9.64598083  3.88647255 11.50996790
   9.60760047 11.66795478  3.87436078
   5.79891196  0.00610442 15.31701967
   5.77279107  7.80698229  7.72138618
  13.46848248  0.04219380  0.01087729
  13.57649297  7.84157411  7.48889115
   5.80049403 15.36656006 11.66577297
   5.77078308  7.68454488  3.88093459
  13.51328826  7.82123762  4.03761594
  13.50113422  7.83194476 11.64430537
   5.79648085  3.82676558  0.04011733
  13.48613659  3.82454491  0.07038246
  13.49699284 11.48927140 11.56072571
   7.86785856  1.89154669  7.67690058
  15.35877533  1.94656332 11.47263216
   7.68383803  1.93579558  4.02204116
   7.72233539  1.90753240 11.50877731
   7.72505717  9.64894088 11.55322490
  15.41858155  5.79044410  0.07352891
   0.02135490 13.50006527  0.02099526
  15.38649553 13.50277677  7.68542551
   7.74750533  5.77469168  0.09953680
   7.77441880 13.50579177  0.03719535
   0.03361656  5.77846692  3.79901812
   3.93281689  9.64653394  0.02807407
  11.44249376  1.92637510  7.78768050
   3.83221319  9.63927654 11.57490388
  11.59856370  1.92374770 11.47816528
   3.89226690  5.75651487  7.61605229
   3.89583376 13.51425204  7.71296468
   3.75166793  5.78628593  3.95491901
   0.00514481  0.03906441  1.95601632
   0.07209028 15.39430103  9.61760564
  15.31146173  7.86397565  1.92216759
   7.63028663  0.08546822  1.95077308
   7.68008801 15.31409543  9.61401331
   7.71993100  7.82302642  1.97400417
   7.75410422  7.70189898  9.64781064
   0.13247553  7.70721817  5.76011700
   0.02507579  7.67047217 13.47102265
   7.75621512 15.30104079  5.81440928
   7.93265303  0.03576348 13.49906437
   0.10345061  3.79108538  1.96560120
  15.41093543  3.98794439  9.58118755
   7.82529428  3.70930089  1.95695166
   7.61792854  3.85014500  9.61501116
   7.65738561 11.53012380  1.96041193
  15.37020589  3.86572095 13.48813014
  15.31034380 11.57850973  5.77808426
   0.02958332 11.58847069 13.48220132
   7.60178030  4.02743067  5.79983682
   7.74452633  3.85493771 13.49529611
   7.59822764 11.60879757  5.79406836
   7.68796980 11.58058663 13.48509051
   3.84061402  7.63085575  1.92853101
  11.55547102  0.03751303  1.95155529
  11.51073674 15.34945334  9.61177302
   3.90856133  0.01915714  5.79209989
   3.76003383 15.34507558 13.49209167
   3.74835918  7.88853743  5.77880638
   3.92794251  7.67779144 13.48479682
  11.56214779  7.97672773  5.75229636
  11.52978617  7.82486750 13.51012975
   3.88977830 11.63467138  1.93029782
   3.84093587 11.58628399  9.64071137
  11.60759977  4.03509981  9.61227878
  11.61090312 11.56760465  1.94016362
  11.53100340 11.58009630  9.63237432
   3.88252879  3.76295218  5.77336184
   3.86848167  3.87547667 13.50517918
  11.73688331  3.69693799  5.75993368
  11.58037977  3.75137272 13.51944343
   1.94462593  0.02918090  0.02785170
   1.93013073  0.07891626  7.67220340
   1.91558830  7.70833757  7.64318418
   9.64292533  0.02520452  0.11219666
   9.62734310 15.17353289  7.73654054
   9.55779918  7.55439494  7.71987992
   1.95710670  0.02351611 11.53727398
   1.90368001  7.80141214  3.74479696
   1.89655362  7.62033998 11.69117170
   9.62021478 15.35637429 11.44323854
   9.67253481  7.65050569  3.82849312
   9.65011900  7.61501700 11.62554119
   1.92682561  3.86457065 15.36141135
   1.90994256  3.79844512  7.69847761
   1.93071116 11.50613440  0.01341758
   1.92375873 11.58886969  7.64085741
   9.65790143  3.84930351 15.36643288
   1.91614273  3.70586226  3.93991537
   1.90429774 11.62687929 11.57958547
   9.65983212 11.63058700 11.57935445
   5.82543510  0.11685667  7.66033740
   5.76006049  7.65449676  0.08614953
  13.49914383  0.11772835  7.84971563
  13.49155297  7.69073774 15.33774232
   5.82270909 15.39965806  3.94747867
   5.77253538  7.67803594 11.50549890
  13.48240040  0.02766453  3.80185215
  13.48724598 15.32373010 11.44679216
   5.84018638  3.71394769  7.65971272
   5.81044267 11.66881976  0.02992189
   5.81966260 11.47572631  7.75491202
  13.49818978  3.79441609  7.78167616
  13.45789944 11.62895987 15.40761086
  13.46903612 11.45729496  7.74214473
   5.83460014  3.95135719  3.82326095
   5.80219009  3.85705108 11.62746156
   5.81926230 11.51911039  3.81159339
   5.78568600 11.65377481 11.54970468
  13.48628648  3.88894327  3.77919391
  13.48467796  3.92007209 11.53036902
  13.47713309 11.44762438  3.84589490
   0.06125930  1.96094622  0.02169356
  15.42506969  1.93870112  7.84614727
  15.33527407  9.64959635 15.33373547
   0.09137846  9.68816482  7.56051748
   7.78308027  1.92405198 15.40754661
   7.56544935  9.67909722  0.01382339
   7.83927775  9.67180173  7.68923215
  15.33552583  1.97205851  3.80091824
   0.02090798  9.62516519  3.99185983
   0.15862868  9.64107893 11.65633904
   7.77970738  9.65909278  3.92325628
   0.02319622  5.76129670  7.66929628
   7.55093414  5.73287645  7.80428720
   7.51746038 13.54781343  7.66185909
  15.36139405  5.77157167 11.58733563
  15.31402194 13.51335507  3.86773978
   0.00861878 13.51137069 11.53018523
   7.74868420  5.74391070  3.71768334
   7.66222001  5.75867431 11.52103666
   7.62379930 13.51697085  3.82115809
   7.75700713 13.50199390 11.64820713
   3.79430724  1.92882532 15.32860144
   3.84949900  1.92048627  7.66195149
   3.78574941  9.67362737  7.78054816
  11.46581869  1.94720040  0.06918179
  11.72842519  9.65023287  0.07718012
  11.45396054  9.70755889  7.75765244
   3.98001564  1.95770021  3.91100041
   3.89094899  1.92187075 11.68900955
   3.84667390  9.62480717  3.72631427
  11.64296301  1.94775229  3.78868322
  11.46813621  9.64172572  3.74311144
  11.40680533  9.64715950 11.53634244
   3.84094896  5.80492267 15.38982524
   3.79137751 13.48413736  0.05513097
  11.54194971  5.78437959 15.22132567
  11.70093748  5.67881614  7.46811651
  11.50799930 13.50049398  0.11806953
  11.76555453 13.52779793  7.73867091
   3.90290363  5.79910420 11.66492520
   3.95282132 13.51093829  3.86612671
   3.79622191 13.47778921 11.50923362
  11.62491419  5.78777283  4.12154628
  11.62583760  5.75224103 11.76270912
  11.68904294 13.50086188  3.77456926
  11.57642822 13.50167989 11.49133776
 


--------------------------------------------------------------------------------------------------------


 k-point  1 :   0.2500 0.2500 0.2500  plane waves:   93161
 k-point  2 :  -0.2500 0.2500 0.2500  plane waves:   93161
 k-point  3 :   0.2500-0.2500 0.2500  plane waves:   93161
 k-point  4 :  -0.2500-0.2500 0.2500  plane waves:   93161

 maximum and minimum number of plane-waves per node :     11686    11606

 maximum number of plane-waves:     93161
 maximum index in each direction: 
   IXMAX=   28   IYMAX=   28   IZMAX=   27
   IXMIN=  -28   IYMIN=  -28   IZMIN=  -28


 real space projection operators:
  total allocation   :     105581.53 KBytes
  max/ min on nodes  :      13240.75      13163.20


 parallel 3D FFT for wavefunctions:
    minimum data exchange during FFTs selected (reduces bandwidth)
 parallel 3D FFT for charge:
    minimum data exchange during FFTs selected (reduces bandwidth)


 total amount of memory used by VASP MPI-rank0   291513. kBytes
=======================================================================

   base      :      30000. kBytes
   nonlr-proj:      49478. kBytes
   fftplans  :      27976. kBytes
   grid      :      34041. kBytes
   one-center:       1026. kBytes
   wavefun   :     148992. kBytes
 
     INWAV:  cpu time   51.2929: real time   52.3826
 Broyden mixing: mesh for mixing (old mesh)
   NGX = 57   NGY = 57   NGZ = 57
  (NGX  =240   NGY  =240   NGZ  =240)
  gives a total of 185193 points

 charge density for first step will be calculated from the start-wavefunctions


--------------------------------------------------------------------------------------------------------


 Maximum index for non-local projection operator          970
 Maximum index for augmentation-charges         3290 (set IRDMAX)


--------------------------------------------------------------------------------------------------------


 initial charge from wavefunction
 First call to EWALD:  gamma=   0.115
 Maximum number of real-space cells 3x 3x 3
 Maximum number of reciprocal cells 3x 3x 3

    FEWALD:  cpu time    0.0157: real time    0.0162


--------------------------------------- Iteration      1(   1)  ---------------------------------------


    POTLOK:  cpu time    0.2704: real time    0.2825
    SETDIJ:  cpu time    1.3824: real time    1.3828
     EDDAV:  cpu time  133.1540: real time  133.7337
       DOS:  cpu time    0.0029: real time    0.0029
    CHARGE:  cpu time    5.2654: real time    5.2687
    MIXING:  cpu time    0.0071: real time    0.0072
    --------------------------------------------
      LOOP:  cpu time  140.0823: real time  140.6780

 eigenvalue-minimisations  : 23232
 total energy-change (2. order) :-0.1857462E+04  (-0.3657610E+03)
 number of electron    1923.0000031 magnetization       1.0000000
 augmentation part      504.4487705 magnetization       0.7813910

 Broyden mixing:
  rms(total) = 0.83250E+01    rms(broyden)= 0.83218E+01
  rms(prec ) = 0.12843E+02
  weight for this iteration     100.00

 Free energy of the ion-electron system (eV)
  ---------------------------------------------------
  alpha Z        PSCENC =      6118.73324990
  Ewald energy   TEWEN  =   -103115.13550136
  -Hartree energ DENC   =    -65494.72833498
  -exchange      EXHF   =         0.00000000
  -V(xc)+E(xc)   XCENC  =      8961.41722921
  PAW double counting   =    198977.56665236  -199974.05442374
  entropy T*S    EENTRO =        -0.00295490
  eigenvalues    EBANDS =    -25908.51090170
  atomic energy  EATOM  =    178577.25249613
  Solvation  Ediel_sol  =         0.00000000
  ---------------------------------------------------
  free energy    TOTEN  =     -1857.46248906 eV

  energy without entropy =    -1857.45953417  energy(sigma->0) =    -1857.46101162


--------------------------------------------------------------------------------------------------------




--------------------------------------- Iteration      1(   2)  ---------------------------------------


    POTLOK:  cpu time    0.2623: real time    0.2650
    SETDIJ:  cpu time    1.4061: real time    1.4343
     EDDAV:  cpu time  146.1255: real time  147.0712
       DOS:  cpu time    0.0030: real time    0.0030
    CHARGE:  cpu time    5.2510: real time    5.2547
    MIXING:  cpu time    0.0113: real time    0.0113
    --------------------------------------------
      LOOP:  cpu time  153.0593: real time  154.0396

 eigenvalue-minimisations  : 26736
 total energy-change (2. order) :-0.4075656E+02  (-0.3417732E+03)
 number of electron    1923.0000031 magnetization       1.0000000
 augmentation part      507.3381383 magnetization       0.6673830

 Broyden mixing:
  rms(total) = 0.10660E+02    rms(broyden)= 0.10655E+02
  rms(prec ) = 0.15713E+02
  weight for this iteration     100.00

 eigenvalues of (default mixing * dielectric matrix)
  average eigenvalue GAMMA=   0.4033
  0.4033

 Free energy of the ion-electron system (eV)
  ---------------------------------------------------
  alpha Z        PSCENC =      6118.73324990
  Ewald energy   TEWEN  =   -103115.13550136
  -Hartree energ DENC   =    -65583.78805578
  -exchange      EXHF   =         0.00000000
  -V(xc)+E(xc)   XCENC  =      8961.12976406
  PAW double counting   =    200703.98594694  -201673.98359652
  entropy T*S    EENTRO =        -0.00311010
  eigenvalues    EBANDS =    -25886.41024112
  atomic energy  EATOM  =    178577.25249613
  Solvation  Ediel_sol  =         0.00000000
  ---------------------------------------------------
  free energy    TOTEN  =     -1898.21904786 eV

  energy without entropy =    -1898.21593776  energy(sigma->0) =    -1898.21749281


--------------------------------------------------------------------------------------------------------




--------------------------------------- Iteration      1(   3)  ---------------------------------------


    POTLOK:  cpu time    0.2675: real time    0.2696
    SETDIJ:  cpu time    1.4167: real time    1.4179
     EDDAV:  cpu time  151.3631: real time  152.3600
       DOS:  cpu time    0.0024: real time    0.0024
    CHARGE:  cpu time    5.2791: real time    5.2836
    MIXING:  cpu time    0.0194: real time    0.0194
    --------------------------------------------
      LOOP:  cpu time  158.3482: real time  159.3529

 eigenvalue-minimisations  : 27864
 total energy-change (2. order) : 0.4500685E+02  (-0.1229722E+03)
 number of electron    1923.0000030 magnetization       1.0000000
 augmentation part      492.6293502 magnetization       0.6356869

 Broyden mixing:
  rms(total) = 0.57401E+01    rms(broyden)= 0.57378E+01
  rms(prec ) = 0.65941E+01
  weight for this iteration     100.00

 eigenvalues of (default mixing * dielectric matrix)
  average eigenvalue GAMMA=   0.4472
  0.4472  0.4472

 Free energy of the ion-electron system (eV)
  ---------------------------------------------------
  alpha Z        PSCENC =      6118.73324990
  Ewald energy   TEWEN  =   -103115.13550136
  -Hartree energ DENC   =    -65671.17095064
  -exchange      EXHF   =         0.00000000
  -V(xc)+E(xc)   XCENC  =      8963.59722697
  PAW double counting   =    200782.29794616  -201746.21818254
  entropy T*S    EENTRO =        -0.00259607
  eigenvalues    EBANDS =    -25762.56588379
  atomic energy  EATOM  =    178577.25249613
  Solvation  Ediel_sol  =         0.00000000
  ---------------------------------------------------
  free energy    TOTEN  =     -1853.21219524 eV

  energy without entropy =    -1853.20959917  energy(sigma->0) =    -1853.21089720


--------------------------------------------------------------------------------------------------------




--------------------------------------- Iteration      1(   4)  ---------------------------------------


    POTLOK:  cpu time    0.2806: real time    0.2834
    SETDIJ:  cpu time    1.4281: real time    1.4291
     EDDAV:  cpu time  141.3336: real time  142.1015
       DOS:  cpu time    0.0018: real time    0.0018
    CHARGE:  cpu time    5.3006: real time    5.3040
    MIXING:  cpu time    0.0079: real time    0.0079
    --------------------------------------------
      LOOP:  cpu time  148.3526: real time  149.1278

 eigenvalue-minimisations  : 25464
 total energy-change (2. order) : 0.4446152E+02  (-0.3224614E+02)
 number of electron    1923.0000030 magnetization       1.0000000
 augmentation part      493.8175481 magnetization       0.5978745

 Broyden mixing:
  rms(total) = 0.42039E+01    rms(broyden)= 0.42030E+01
  rms(prec ) = 0.48790E+01
  weight for this iteration     100.00

 eigenvalues of (default mixing * dielectric matrix)
  average eigenvalue GAMMA=   0.5236
  0.5640  0.5640  0.4428

 Free energy of the ion-electron system (eV)
  ---------------------------------------------------
  alpha Z        PSCENC =      6118.73324990
  Ewald energy   TEWEN  =   -103115.13550136
  -Hartree energ DENC   =    -65626.51815715
  -exchange      EXHF   =         0.00000000
  -V(xc)+E(xc)   XCENC  =      8968.98671474
  PAW double counting   =    200912.17021301  -201892.55955329
  entropy T*S    EENTRO =        -0.00000000
  eigenvalues    EBANDS =    -25751.68013558
  atomic energy  EATOM  =    178577.25249613
  Solvation  Ediel_sol  =         0.00000000
  ---------------------------------------------------
  free energy    TOTEN  =     -1808.75067359 eV

  energy without entropy =    -1808.75067359  energy(sigma->0) =    -1808.75067359


--------------------------------------------------------------------------------------------------------




--------------------------------------- Iteration      1(   5)  ---------------------------------------


    POTLOK:  cpu time    0.2641: real time    0.2644
    SETDIJ:  cpu time    1.3817: real time    1.3834
     EDDAV:  cpu time  148.7227: real time  149.8903
       DOS:  cpu time    0.0019: real time    0.0019
    CHARGE:  cpu time    5.2902: real time    5.3139
    MIXING:  cpu time    0.0088: real time    0.0088
    --------------------------------------------
      LOOP:  cpu time  155.6693: real time  156.8626

 eigenvalue-minimisations  : 27024
 total energy-change (2. order) : 0.3148125E+02  (-0.8540815E+01)
 number of electron    1923.0000030 magnetization       1.0000000
 augmentation part      494.3910495 magnetization       0.5603059

 Broyden mixing:
  rms(total) = 0.25533E+01    rms(broyden)= 0.25529E+01
  rms(prec ) = 0.29870E+01
  weight for this iteration     100.00

 eigenvalues of (default mixing * dielectric matrix)
  average eigenvalue GAMMA=   0.6543
  0.8328  0.8328  0.4759  0.4759

 Free energy of the ion-electron system (eV)
  ---------------------------------------------------
  alpha Z        PSCENC =      6118.73324990
  Ewald energy   TEWEN  =   -103115.13550136
  -Hartree energ DENC   =    -65630.84836327
  -exchange      EXHF   =         0.00000000
  -V(xc)+E(xc)   XCENC  =      8973.91144826
  PAW double counting   =    200512.90996234  -201504.70906644
  entropy T*S    EENTRO =        -0.00000000
  eigenvalues    EBANDS =    -25709.38365413
  atomic energy  EATOM  =    178577.25249613
  Solvation  Ediel_sol  =         0.00000000
  ---------------------------------------------------
  free energy    TOTEN  =     -1777.26942857 eV

  energy without entropy =    -1777.26942857  energy(sigma->0) =    -1777.26942857


--------------------------------------------------------------------------------------------------------




--------------------------------------- Iteration      1(   6)  ---------------------------------------


    POTLOK:  cpu time    0.2640: real time    0.2643
    SETDIJ:  cpu time    1.3985: real time    1.3995
     EDDAV:  cpu time  146.9016: real time  147.7572
       DOS:  cpu time    0.0022: real time    0.0022
    CHARGE:  cpu time    5.2257: real time    5.2819
    MIXING:  cpu time    0.0175: real time    0.0175
    --------------------------------------------
      LOOP:  cpu time  153.8095: real time  154.7226

 eigenvalue-minimisations  : 26820
 total energy-change (2. order) : 0.1626040E+02  (-0.5593606E+01)
 number of electron    1923.0000030 magnetization       1.0000000
 augmentation part      495.3265705 magnetization       0.5380844

 Broyden mixing:
  rms(total) = 0.14520E+01    rms(broyden)= 0.14516E+01
  rms(prec ) = 0.16008E+01
  weight for this iteration     100.00

 eigenvalues of (default mixing * dielectric matrix)
  average eigenvalue GAMMA=   0.6979
  0.9592  0.9592  0.4469  0.5622  0.5622

 Free energy of the ion-electron system (eV)
  ---------------------------------------------------
  alpha Z        PSCENC =      6118.73324990
  Ewald energy   TEWEN  =   -103115.13550136
  -Hartree energ DENC   =    -65582.38863289
  -exchange      EXHF   =         0.00000000
  -V(xc)+E(xc)   XCENC  =      8974.92629487
  PAW double counting   =    200044.52396210  -201045.78587008
  entropy T*S    EENTRO =        -0.00000000
  eigenvalues    EBANDS =    -25733.13502380
  atomic energy  EATOM  =    178577.25249613
  Solvation  Ediel_sol  =         0.00000000
  ---------------------------------------------------
  free energy    TOTEN  =     -1761.00902512 eV

  energy without entropy =    -1761.00902512  energy(sigma->0) =    -1761.00902512


--------------------------------------------------------------------------------------------------------




--------------------------------------- Iteration      1(   7)  ---------------------------------------


    POTLOK:  cpu time    0.2890: real time    0.2898
    SETDIJ:  cpu time    1.4045: real time    1.4051
     EDDAV:  cpu time  150.8797: real time  151.8418
       DOS:  cpu time    0.0020: real time    0.0020
    CHARGE:  cpu time    5.3103: real time    5.3143
    MIXING:  cpu time    0.0157: real time    0.0157
    --------------------------------------------
      LOOP:  cpu time  157.9012: real time  158.8687

 eigenvalue-minimisations  : 27588
 total energy-change (2. order) : 0.2135941E+01  (-0.1017103E+01)
 number of electron    1923.0000030 magnetization       1.0000000
 augmentation part      496.3680754 magnetization       0.5639960

 Broyden mixing:
  rms(total) = 0.10269E+01    rms(broyden)= 0.10264E+01
  rms(prec ) = 0.10935E+01
  weight for this iteration     100.00

 eigenvalues of (default mixing * dielectric matrix)
  average eigenvalue GAMMA=   0.8459
  1.3251  1.3251  0.6949  0.6949  0.5176  0.5176

 Free energy of the ion-electron system (eV)
  ---------------------------------------------------
  alpha Z        PSCENC =      6118.73324990
  Ewald energy   TEWEN  =   -103115.13550136
  -Hartree energ DENC   =    -65538.05696509
  -exchange      EXHF   =         0.00000000
  -V(xc)+E(xc)   XCENC  =      8973.49307770
  PAW double counting   =    199718.81525569  -200722.66784747
  entropy T*S    EENTRO =        -0.00000000
  eigenvalues    EBANDS =    -25771.30684976
  atomic energy  EATOM  =    178577.25249613
  Solvation  Ediel_sol  =         0.00000000
  ---------------------------------------------------
  free energy    TOTEN  =     -1758.87308427 eV

  energy without entropy =    -1758.87308427  energy(sigma->0) =    -1758.87308427


--------------------------------------------------------------------------------------------------------




--------------------------------------- Iteration      1(   8)  ---------------------------------------


    POTLOK:  cpu time    0.2875: real time    0.2884
    SETDIJ:  cpu time    1.4396: real time    1.4402
     EDDAV:  cpu time  141.4451: real time  142.2117
       DOS:  cpu time    0.0020: real time    0.0020
    CHARGE:  cpu time    5.1989: real time    5.2646
    MIXING:  cpu time    0.0157: real time    0.0157
    --------------------------------------------
      LOOP:  cpu time  148.3888: real time  149.2225

 eigenvalue-minimisations  : 25536
 total energy-change (2. order) :-0.3550158E+00  (-0.1036631E+01)
 number of electron    1923.0000030 magnetization       1.0000000
[...]
   81        1.574   3.461   0.000   5.035
   82        1.574   3.462   0.000   5.036
   83        1.574   3.461   0.000   5.035
   84        1.576   3.472   0.000   5.048
   85        1.575   3.463   0.000   5.038
   86        1.575   3.466   0.000   5.041
   87        1.574   3.463   0.000   5.037
   88        1.575   3.467   0.000   5.041
   89        1.575   3.464   0.000   5.039
   90        1.576   3.458   0.000   5.033
   91        1.574   3.461   0.000   5.035
   92        1.574   3.462   0.000   5.036
   93        1.577   3.471   0.000   5.049
   94        1.577   3.473   0.000   5.050
   95        1.576   3.475   0.000   5.051
   96        1.575   3.464   0.000   5.039
   97        1.575   3.467   0.000   5.042
   98        1.576   3.476   0.000   5.052
   99        1.575   3.464   0.000   5.039
  100        1.576   3.460   0.000   5.036
  101        1.574   3.459   0.000   5.034
  102        1.576   3.464   0.000   5.040
  103        1.576   3.460   0.000   5.036
  104        1.567   3.485   0.000   5.052
  105        1.577   3.472   0.000   5.049
  106        1.575   3.467   0.000   5.042
  107        1.566   3.487   0.000   5.054
  108        1.576   3.476   0.000   5.053
  109        1.575   3.464   0.000   5.038
  110        1.575   3.461   0.000   5.036
  111        1.576   3.473   0.000   5.049
  112        1.577   3.464   0.000   5.041
  113        1.576   3.473   0.000   5.050
  114        1.577   3.476   0.000   5.053
  115        1.574   3.466   0.000   5.040
  116        1.575   3.463   0.000   5.038
  117        1.575   3.462   0.000   5.037
  118        1.576   3.463   0.000   5.038
  119        1.577   3.477   0.000   5.054
  120        1.575   3.461   0.000   5.036
  121        1.575   3.464   0.000   5.039
  122        1.576   3.471   0.000   5.048
  123        1.577   3.475   0.000   5.051
  124        1.576   3.471   0.000   5.048
  125        1.576   3.475   0.000   5.051
  126        1.576   3.470   0.000   5.046
  127        1.575   3.459   0.000   5.034
  128        1.574   3.462   0.000   5.036
  129        1.576   3.472   0.000   5.048
  130        1.737   4.369   0.000   6.106
  131        1.737   4.370   0.000   6.107
  132        1.738   4.381   0.000   6.120
  133        1.738   4.388   0.000   6.126
  134        1.739   4.385   0.000   6.123
  135        1.737   4.370   0.000   6.107
  136        1.736   4.368   0.000   6.104
  137        1.739   4.380   0.000   6.119
  138        1.739   4.384   0.000   6.123
  139        1.739   4.389   0.000   6.128
  140        1.739   4.387   0.000   6.126
  141        1.738   4.380   0.000   6.119
  142        1.738   4.380   0.000   6.118
  143        1.738   4.387   0.000   6.126
  144        1.739   4.387   0.000   6.126
  145        1.738   4.382   0.000   6.121
  146        1.737   4.381   0.000   6.119
  147        1.736   4.369   0.000   6.106
  148        1.736   4.369   0.000   6.105
  149        1.739   4.387   0.000   6.126
  150        1.738   4.389   0.000   6.127
  151        1.738   4.376   0.000   6.114
  152        1.738   4.381   0.000   6.118
  153        1.738   4.383   0.000   6.121
  154        1.737   4.372   0.000   6.109
  155        1.737   4.372   0.000   6.109
  156        1.737   4.369   0.000   6.106
  157        1.737   4.368   0.000   6.104
  158        1.738   4.375   0.000   6.113
  159        1.738   4.377   0.000   6.115
  160        1.736   4.384   0.000   6.120
  161        1.738   4.376   0.000   6.114
  162        1.736   4.369   0.000   6.106
  163        1.736   4.367   0.000   6.104
  164        1.738   4.377   0.000   6.115
  165        1.737   4.370   0.000   6.107
  166        1.736   4.370   0.000   6.106
  167        1.737   4.370   0.000   6.107
  168        1.737   4.370   0.000   6.107
  169        1.738   4.377   0.000   6.115
  170        1.738   4.379   0.000   6.117
  171        1.737   4.370   0.000   6.107
  172        1.738   4.388   0.000   6.127
  173        1.737   4.375   0.000   6.112
  174        1.737   4.369   0.000   6.106
  175        1.739   4.382   0.000   6.121
  176        1.736   4.376   0.000   6.112
  177        1.738   4.380   0.000   6.117
  178        1.737   4.370   0.000   6.107
  179        1.738   4.377   0.000   6.115
  180        1.738   4.379   0.000   6.117
  181        1.736   4.369   0.000   6.106
  182        1.738   4.379   0.000   6.117
  183        1.737   4.369   0.000   6.106
  184        1.738   4.380   0.000   6.118
  185        1.737   4.382   0.000   6.120
  186        1.738   4.383   0.000   6.120
  187        1.737   4.371   0.000   6.108
  188        1.738   4.380   0.000   6.118
  189        1.738   4.381   0.000   6.120
  190        1.738   4.381   0.000   6.119
  191        1.739   4.387   0.000   6.126
  192        1.737   4.371   0.000   6.108
  193        1.739   4.388   0.000   6.127
  194        1.737   4.368   0.000   6.105
  195        1.737   4.370   0.000   6.107
  196        1.737   4.382   0.000   6.120
  197        1.737   4.370   0.000   6.107
  198        1.737   4.380   0.000   6.117
  199        1.738   4.382   0.000   6.120
  200        1.738   4.381   0.000   6.119
  201        1.738   4.381   0.000   6.119
  202        1.739   4.379   0.000   6.117
  203        1.738   4.381   0.000   6.119
  204        1.738   4.377   0.000   6.115
  205        1.737   4.379   0.000   6.116
  206        1.737   4.369   0.000   6.105
  207        1.737   4.369   0.000   6.106
  208        1.737   4.381   0.000   6.119
  209        1.738   4.379   0.000   6.117
  210        1.737   4.370   0.000   6.106
  211        1.737   4.370   0.000   6.107
  212        1.737   4.369   0.000   6.106
  213        1.739   4.376   0.000   6.115
  214        1.736   4.367   0.000   6.104
  215        1.738   4.382   0.000   6.120
  216        1.736   4.369   0.000   6.105
  217        1.737   4.368   0.000   6.105
  218        1.737   4.380   0.000   6.117
  219        1.738   4.381   0.000   6.119
  220        1.738   4.381   0.000   6.119
  221        1.738   4.381   0.000   6.118
  222        1.737   4.381   0.000   6.118
  223        1.737   4.381   0.000   6.119
  224        1.738   4.382   0.000   6.120
  225        1.738   4.380   0.000   6.119
  226        1.738   4.380   0.000   6.118
  227        1.737   4.380   0.000   6.118
  228        1.738   4.378   0.000   6.115
  229        1.738   4.380   0.000   6.118
  230        1.736   4.369   0.000   6.106
  231        1.738   4.377   0.000   6.115
  232        1.737   4.370   0.000   6.106
  233        1.738   4.381   0.000   6.119
  234        1.737   4.370   0.000   6.107
  235        1.737   4.370   0.000   6.107
  236        1.739   4.388   0.000   6.126
  237        1.739   4.386   0.000   6.125
  238        1.738   4.380   0.000   6.118
  239        1.738   4.378   0.000   6.116
  240        1.737   4.381   0.000   6.118
  241        1.738   4.378   0.000   6.116
  242        1.738   4.388   0.000   6.126
  243        1.738   4.387   0.000   6.125
  244        1.737   4.380   0.000   6.117
  245        1.738   4.379   0.000   6.117
  246        1.738   4.378   0.000   6.117
  247        1.738   4.386   0.000   6.124
  248        1.738   4.380   0.000   6.118
  249        1.738   4.386   0.000   6.125
  250        1.738   4.379   0.000   6.117
  251        1.738   4.380   0.000   6.118
  252        1.737   4.381   0.000   6.118
  253        1.738   4.379   0.000   6.117
  254        1.739   4.385   0.000   6.123
  255        1.738   4.378   0.000   6.116
  256        1.739   4.386   0.000   6.125
  257        1.738   4.379   0.000   6.117
--------------------------------------------------
tot        345.6191195.802 112.7901654.211
 


 magnetization (x)
 
# of ion       s       p       d       tot
------------------------------------------
    1       -0.000  -0.000   0.000  -0.000
    2       -0.000  -0.000  -0.000  -0.000
    3        0.000   0.000   0.000   0.000
    4       -0.000  -0.000   0.000   0.000
    5        0.000   0.001   0.053   0.054
    6       -0.000  -0.000  -0.000  -0.000
    7        0.000   0.000   0.002   0.002
    8       -0.000  -0.000  -0.000  -0.000
    9        0.000  -0.000   0.009   0.009
   10       -0.000  -0.000  -0.000  -0.000
   11       -0.000  -0.000  -0.000  -0.000
   12       -0.000  -0.000   0.000   0.000
   13       -0.000  -0.000  -0.000  -0.000
   14       -0.000  -0.000   0.000  -0.000
   15       -0.000  -0.000  -0.000  -0.000
   16       -0.000  -0.000   0.000   0.000
   17       -0.000  -0.000   0.000   0.000
   18       -0.000   0.000   0.000   0.000
   19        0.000   0.000   0.005   0.005
   20       -0.000  -0.000   0.000   0.000
   21        0.000   0.000   0.002   0.002
   22       -0.000   0.000  -0.000  -0.000
   23        0.000   0.000   0.007   0.007
   24       -0.000  -0.000  -0.000  -0.000
   25        0.000   0.000   0.003   0.003
   26       -0.000  -0.000   0.000   0.000
   27       -0.000  -0.000   0.000   0.000
   28       -0.000  -0.000   0.000   0.000
   29       -0.000  -0.000   0.000   0.000
   30       -0.000  -0.000   0.000   0.000
   31       -0.000  -0.000  -0.000  -0.000
   32       -0.000  -0.000   0.000   0.000
   33       -0.000  -0.000  -0.000  -0.000
   34       -0.000  -0.000  -0.000  -0.000
   35        0.000   0.000   0.000   0.000
   36       -0.000   0.000   0.000   0.000
   37       -0.000  -0.000   0.001   0.001
   38       -0.000  -0.000   0.000   0.000
   39        0.000   0.000   0.002   0.002
   40       -0.000  -0.000  -0.000  -0.000
   41        0.005   0.006   0.880   0.891
   42       -0.000  -0.000  -0.000  -0.000
   43       -0.000  -0.000  -0.000  -0.000
   44       -0.000  -0.000  -0.000  -0.000
   45       -0.000  -0.000   0.000  -0.000
   46       -0.000  -0.000  -0.000  -0.000
   47        0.000  -0.000   0.000   0.000
   48       -0.000  -0.000   0.000   0.000
   49       -0.000  -0.000  -0.003  -0.004
   50       -0.000  -0.000  -0.000  -0.000
   51        0.000   0.000   0.001   0.001
   52       -0.000  -0.000  -0.000  -0.000
   53        0.000   0.000   0.000   0.000
   54       -0.000  -0.000   0.000   0.000
   55        0.000   0.000   0.014   0.014
   56       -0.000  -0.000   0.000   0.000
   57       -0.000   0.000   0.011   0.011
   58        0.000  -0.000   0.000   0.000
   59       -0.000  -0.000  -0.000  -0.000
   60       -0.000  -0.000   0.000   0.000
   61       -0.000  -0.000   0.000   0.000
   62       -0.000  -0.000   0.000   0.000
   63       -0.000  -0.000   0.000   0.000
   64       -0.000  -0.000   0.000  -0.000
   65        0.000   0.000   0.000   0.000
   66       -0.000  -0.002   0.000  -0.002
   67       -0.000  -0.000   0.000  -0.000
   68       -0.000   0.000   0.000   0.000
   69       -0.000  -0.000   0.000  -0.000
   70       -0.000  -0.000   0.000  -0.000
   71       -0.000  -0.000   0.000  -0.000
   72       -0.000  -0.000   0.000  -0.000
   73       -0.000  -0.000   0.000  -0.000
   74       -0.000  -0.000   0.000  -0.000
   75        0.000   0.000   0.000   0.000
   76       -0.000  -0.000   0.000  -0.000
   77       -0.000  -0.000   0.000  -0.000
   78       -0.000  -0.000   0.000  -0.000
   79       -0.001  -0.017   0.000  -0.017
   80       -0.000  -0.000   0.000  -0.000
   81       -0.000  -0.000   0.000  -0.000
   82       -0.000  -0.000   0.000  -0.000
   83       -0.000  -0.000   0.000  -0.000
   84       -0.000  -0.000   0.000  -0.000
   85       -0.000  -0.000   0.000  -0.000
   86       -0.000  -0.000   0.000  -0.000
   87       -0.000  -0.000   0.000  -0.000
   88       -0.000  -0.000   0.000  -0.000
   89       -0.000  -0.000   0.000  -0.000
   90        0.000   0.000   0.000   0.000
   91       -0.000  -0.000   0.000  -0.000
   92       -0.000  -0.000   0.000  -0.000
   93       -0.000  -0.002   0.000  -0.002
   94       -0.000  -0.000   0.000  -0.000
   95       -0.000  -0.001   0.000  -0.001
   96       -0.000  -0.000   0.000  -0.000
   97       -0.000  -0.000   0.000  -0.000
   98       -0.000  -0.000   0.000  -0.000
   99       -0.000  -0.000   0.000  -0.000
  100       -0.000  -0.000   0.000  -0.000
  101        0.000   0.000   0.000   0.000
  102       -0.000  -0.001   0.000  -0.001
  103       -0.000   0.000   0.000   0.000
  104       -0.001  -0.024   0.000  -0.025
  105        0.000   0.000   0.000   0.000
  106       -0.000  -0.000   0.000  -0.000
  107       -0.000  -0.000   0.000  -0.000
  108       -0.000  -0.000   0.000  -0.000
  109        0.000   0.000   0.000   0.000
  110       -0.000  -0.000   0.000  -0.000
  111       -0.000  -0.000   0.000  -0.000
  112       -0.000  -0.001   0.000  -0.001
  113       -0.000  -0.000   0.000  -0.000
  114       -0.000  -0.000   0.000  -0.000
  115       -0.000  -0.000   0.000  -0.000
  116       -0.000  -0.000   0.000  -0.000
  117       -0.000  -0.000   0.000  -0.000
  118       -0.000  -0.000   0.000  -0.000
  119       -0.000  -0.000   0.000  -0.000
  120       -0.000   0.000   0.000   0.000
  121        0.000   0.000   0.000   0.000
  122       -0.000  -0.000   0.000  -0.000
  123       -0.000  -0.000   0.000  -0.000
  124       -0.000  -0.001   0.000  -0.001
  125       -0.000  -0.000   0.000  -0.000
  126       -0.000  -0.000   0.000  -0.000
  127       -0.000  -0.000   0.000  -0.000
  128       -0.000  -0.000   0.000  -0.000
  129        0.000  -0.000   0.000  -0.000
  130       -0.000  -0.000   0.000  -0.000
  131       -0.000  -0.000   0.000  -0.000
  132       -0.000  -0.000   0.000  -0.000
  133       -0.000  -0.000   0.000  -0.000
  134       -0.000  -0.000   0.000  -0.000
  135       -0.000  -0.000   0.000  -0.000
  136       -0.000  -0.000   0.000  -0.000
  137       -0.000  -0.000   0.000  -0.000
  138       -0.000  -0.000   0.000  -0.000
  139       -0.000  -0.000   0.000  -0.000
  140       -0.000   0.000   0.000   0.000
  141       -0.000  -0.000   0.000  -0.000
  142       -0.000  -0.000   0.000  -0.000
  143       -0.000  -0.000   0.000  -0.000
  144       -0.000  -0.000   0.000  -0.000
  145       -0.000  -0.000   0.000  -0.000
  146       -0.000  -0.000   0.000  -0.000
  147       -0.000  -0.000   0.000  -0.000
  148       -0.000  -0.000   0.000  -0.000
  149       -0.000  -0.000   0.000  -0.000
  150       -0.000  -0.000   0.000  -0.000
  151       -0.000  -0.000   0.000  -0.000
  152       -0.000  -0.000   0.000  -0.000
  153       -0.000  -0.000   0.000  -0.000
  154       -0.000  -0.000   0.000  -0.000
  155       -0.000  -0.000   0.000  -0.000
  156       -0.000  -0.000   0.000  -0.000
  157       -0.000   0.000   0.000   0.000
  158       -0.000  -0.000   0.000  -0.000
  159       -0.000  -0.000   0.000  -0.000
  160       -0.000  -0.004   0.000  -0.004
  161       -0.000  -0.000   0.000  -0.000
  162       -0.000  -0.000   0.000  -0.000
  163       -0.000  -0.000   0.000  -0.000
  164       -0.000  -0.000   0.000  -0.000
  165       -0.000  -0.000   0.000  -0.000
  166       -0.000  -0.000   0.000  -0.000
  167       -0.000  -0.000   0.000  -0.000
  168        0.000  -0.000   0.000  -0.000
  169       -0.000  -0.000   0.000  -0.000
  170       -0.000  -0.000   0.000  -0.000
  171        0.000   0.000   0.000   0.000
  172       -0.000  -0.000   0.000  -0.000
  173       -0.000  -0.000   0.000  -0.000
  174        0.000   0.000   0.000   0.000
  175       -0.000  -0.000   0.000  -0.000
  176       -0.000   0.001   0.000   0.000
  177        0.000   0.000   0.000   0.000
  178       -0.000  -0.000   0.000  -0.000
  179        0.000  -0.000   0.000  -0.000
  180       -0.000  -0.000   0.000  -0.000
  181        0.000  -0.000   0.000  -0.000
  182       -0.000  -0.000   0.000  -0.000
  183       -0.000  -0.000   0.000  -0.000
  184        0.000  -0.000   0.000  -0.000
  185       -0.000   0.000   0.000   0.000
  186        0.000   0.000   0.000   0.000
  187       -0.000  -0.000   0.000  -0.000
  188       -0.000  -0.000   0.000  -0.000
  189       -0.000  -0.000   0.000  -0.000
  190       -0.000  -0.000   0.000  -0.000
  191       -0.000  -0.000   0.000  -0.000
  192       -0.000  -0.000   0.000  -0.000
  193       -0.000  -0.000   0.000  -0.000
  194        0.000  -0.000   0.000  -0.000
  195        0.000  -0.000   0.000  -0.000
  196       -0.000  -0.000   0.000  -0.000
  197       -0.000  -0.000   0.000  -0.000
  198       -0.000  -0.000   0.000  -0.000
  199        0.000  -0.000   0.000  -0.000
  200        0.000   0.000   0.000   0.000
  201       -0.000  -0.000   0.000  -0.000
  202        0.000  -0.000   0.000  -0.000
  203       -0.000  -0.000   0.000  -0.000
  204        0.000  -0.000   0.000  -0.000
  205       -0.000  -0.000   0.000  -0.000
  206       -0.000  -0.000   0.000  -0.000
  207       -0.000  -0.000   0.000  -0.000
  208       -0.000  -0.000   0.000  -0.000
  209       -0.000  -0.000   0.000  -0.000
  210       -0.000  -0.000   0.000  -0.000
  211       -0.000  -0.000   0.000  -0.000
  212       -0.000  -0.000   0.000  -0.000
  213       -0.000  -0.000   0.000  -0.000
  214        0.000  -0.000   0.000  -0.000
  215       -0.000   0.000   0.000   0.000
  216        0.000   0.000   0.000   0.000
  217       -0.000  -0.000   0.000  -0.000
  218        0.000  -0.000   0.000  -0.000
  219       -0.000  -0.000   0.000  -0.000
  220       -0.000  -0.000   0.000  -0.000
  221       -0.000  -0.000   0.000  -0.000
  222       -0.000  -0.000   0.000  -0.000
  223       -0.000  -0.001   0.000  -0.001
  224        0.000  -0.000   0.000  -0.000
  225       -0.000  -0.000   0.000  -0.000
  226       -0.000  -0.000   0.000  -0.000
  227       -0.000  -0.000   0.000  -0.000
  228       -0.000  -0.000   0.000  -0.000
  229       -0.000  -0.000   0.000  -0.000
  230        0.000  -0.000   0.000  -0.000
  231       -0.000  -0.000   0.000  -0.000
  232       -0.000  -0.000   0.000  -0.000
  233        0.000   0.000   0.000   0.000
  234        0.000  -0.000   0.000  -0.000
  235       -0.000  -0.000   0.000  -0.000
  236        0.000  -0.000   0.000   0.000
  237        0.000  -0.000   0.000  -0.000
  238       -0.000  -0.000   0.000  -0.001
  239       -0.000  -0.000   0.000  -0.000
  240        0.000   0.000   0.000   0.000
  241       -0.000  -0.000   0.000  -0.000
  242        0.000  -0.000   0.000  -0.000
  243       -0.000  -0.000   0.000  -0.000
  244       -0.000  -0.000   0.000  -0.000
  245       -0.000   0.000   0.000  -0.000
  246        0.000   0.000   0.000   0.000
  247        0.000  -0.000   0.000  -0.000
  248       -0.000  -0.001   0.000  -0.001
  249       -0.000  -0.000   0.000  -0.000
  250       -0.000  -0.000   0.000  -0.000
  251        0.000   0.000   0.000   0.000
  252        0.000   0.000   0.000   0.000
  253        0.000   0.000   0.000   0.000
  254       -0.000  -0.000   0.000  -0.000
  255       -0.000  -0.000   0.000  -0.000
  256        0.000  -0.000   0.000  -0.000
  257       -0.000  -0.000   0.000  -0.000
--------------------------------------------------
tot          0.001  -0.053   0.986   0.935
 

 total amount of memory used by VASP MPI-rank0   291513. kBytes
=======================================================================

   base      :      30000. kBytes
   nonlr-proj:      49478. kBytes
   fftplans  :      27976. kBytes
   grid      :      34041. kBytes
   one-center:       1026. kBytes
   wavefun   :     148992. kBytes
 
  
  
 General timing and accounting informations for this job:
 ========================================================
  
                  Total CPU time used (sec):     4202.878
                            User time (sec):     3812.908
                          System time (sec):      389.971
                         Elapsed time (sec):     4238.037
  
                   Maximum memory used (kb):      626404.
                   Average memory used (kb):           0.
  
                          Minor page faults:       287546
                          Major page faults:            5
                 Voluntary context switches:        28777
