 vasp.5.4.4.18Apr17-6-g9f103f2a35 (build Apr 30 2017 20:10:35) complex          
  
 executed on             LinuxIFC date 2017.08.20  11:47:43
 running on  128 total cores
 distrk:  each k-point on  128 cores,    1 groups
 distr:  one band on NCORES_PER_BAND=   8 cores,   16 groups


--------------------------------------------------------------------------------------------------------


 INCAR:
 POTCAR:   PAW_PBE Ti_pv 07Sep2000                
 POTCAR:   PAW_PBE O 08Apr2002                    
 POTCAR:    PAW_PBE F 08Apr2002                   
 POTCAR:   PAW_PBE Ti_pv 07Sep2000                
   VRHFIN =Ti: d3 s1                                                            
   LEXCH  = PE                                                                  
   EATOM  =  1042.3781 eV,   76.6126 Ry                                         
                                                                                
   TITEL  = PAW_PBE Ti_pv 07Sep2000                                             
   LULTRA =        F    use ultrasoft PP ?                                      
   IUNSCR =        1    unscreen: 0-lin 1-nonlin 2-no                           
   RPACOR =    2.200    partial core radius                                     
   POMASS =   47.880; ZVAL   =   10.000    mass and valenz                      
   RCORE  =    2.500    outmost cutoff radius                                   
   RWIGS  =    2.500; RWIGS  =    1.323    wigner-seitz radius (au A)           
   ENMAX  =  222.338; ENMIN  =  166.753 eV                                      
   RCLOC  =    1.701    cutoff for local pot                                    
   LCOR   =        T    correct aug charges                                     
   LPAW   =        T    paw PP                                                  
   EAUG   =  482.848                                                            
   DEXC   =    -.008                                                            
   RMAX   =    3.092    core radius for proj-oper                               
   RAUG   =    1.300    factor for augmentation sphere                          
   RDEP   =    2.538    radius for radial grids                                 
   QCUT   =   -4.042; QGAM   =    8.085    optimization parameters              
                                                                                
   Description                                                                  
     l     E      TYP  RCUT    TYP  RCUT                                        
     1   .000     23  2.300                                                     
     1  -.100     23  2.300                                                     
     2   .000     23  2.500                                                     
     2   .000     23  2.500                                                     
     0   .000     23  2.500                                                     
     0  1.500     23  2.500                                                     
     3   .000      7   .000                                                     
  local pseudopotential read in
  partial core-charges read in
  atomic valenz-charges read in
  non local Contribution for L=           1  read in
    real space projection operators read in
  non local Contribution for L=           1  read in
    real space projection operators read in
  non local Contribution for L=           2  read in
    real space projection operators read in
  non local Contribution for L=           2  read in
    real space projection operators read in
  non local Contribution for L=           0  read in
    real space projection operators read in
  non local Contribution for L=           0  read in
    real space projection operators read in
    PAW grid and wavefunctions read in
 
   number of l-projection  operators is LMAX  =           6
   number of lm-projection operators is LMMAX =          18
 
 POTCAR:   PAW_PBE O 08Apr2002                    
   VRHFIN =O: s2p4                                                              
   LEXCH  = PE                                                                  
   EATOM  =   432.3788 eV,   31.7789 Ry                                         
                                                                                
   TITEL  = PAW_PBE O 08Apr2002                                                 
   LULTRA =        F    use ultrasoft PP ?                                      
   IUNSCR =        0    unscreen: 0-lin 1-nonlin 2-no                           
   RPACOR =     .000    partial core radius                                     
   POMASS =   16.000; ZVAL   =    6.000    mass and valenz                      
   RCORE  =    1.520    outmost cutoff radius                                   
   RWIGS  =    1.550; RWIGS  =     .820    wigner-seitz radius (au A)           
   ENMAX  =  400.000; ENMIN  =  300.000 eV                                      
   ICORE  =        2    local potential                                         
   LCOR   =        T    correct aug charges                                     
   LPAW   =        T    paw PP                                                  
   EAUG   =  605.392                                                            
   DEXC   =     .000                                                            
   RMAX   =    2.264    core radius for proj-oper                               
   RAUG   =    1.300    factor for augmentation sphere                          
   RDEP   =    1.550    radius for radial grids                                 
   QCUT   =   -5.520; QGAM   =   11.041    optimization parameters              
                                                                                
   Description                                                                  
     l     E      TYP  RCUT    TYP  RCUT                                        
     0   .000     23  1.200                                                     
     0  -.700     23  1.200                                                     
     1   .000     23  1.520                                                     
     1   .600     23  1.520                                                     
     2   .000      7  1.500                                                     
  local pseudopotential read in
  atomic valenz-charges read in
  non local Contribution for L=           0  read in
    real space projection operators read in
  non local Contribution for L=           0  read in
    real space projection operators read in
  non local Contribution for L=           1  read in
    real space projection operators read in
  non local Contribution for L=           1  read in
    real space projection operators read in
    PAW grid and wavefunctions read in
 
   number of l-projection  operators is LMAX  =           4
   number of lm-projection operators is LMMAX =           8
 
 POTCAR:    PAW_PBE F 08Apr2002                   
   VRHFIN =F: s2p5                                                              
   LEXCH  = PE                                                                  
   EATOM  =   659.6475 eV,   48.4827 Ry                                         
                                                                                
   TITEL  = PAW_PBE F 08Apr2002                                                 
   LULTRA =        F    use ultrasoft PP ?                                      
   IUNSCR =        1    unscreen: 0-lin 1-nonlin 2-no                           
   RPACOR =    1.200    partial core radius                                     
   POMASS =   18.998; ZVAL   =    7.000    mass and valenz                      
   RCORE  =    1.520    outmost cutoff radius                                   
   RWIGS  =    1.500; RWIGS  =    0.794    wigner-seitz radius (au A)           
   ENMAX  =  400.000; ENMIN  =  300.000 eV                                      
   ICORE  =        2    local potential                                         
   LCOR   =        T    correct aug charges                                     
   LPAW   =        T    paw PP                                                  
   EAUG   =  613.614                                                            
   RMAX   =    1.555    core radius for proj-oper                               
   RAUG   =    1.300    factor for augmentation sphere                          
   RDEP   =    1.539    radius for radial grids                                 
   RDEPT  =    1.299    core radius for aug-charge                              
                                                                                
   Atomic configuration                                                         
    4 entries                                                                   
     n  l   j            E        occ.                                          
     1  0  0.50      -663.3661   2.0000                                         
     2  0  0.50       -29.8995   2.0000                                         
     2  1  0.50       -11.1114   5.0000                                         
     3  2  1.50       -10.8847   0.0000                                         
   Description                                                                  
     l       E           TYP  RCUT    TYP  RCUT                                 
     0    -29.8995018     23  1.200                                             
     0     -9.5240782     23  1.200                                             
     1    -11.1113914     23  1.520                                             
     1      1.3605826     23  1.520                                             
     2    -10.8846608      7  1.500                                             
  local pseudopotential read in
  partial core-charges read in
  partial kinetic energy density read in
  atomic valenz-charges read in
  non local Contribution for L=           0  read in
    real space projection operators read in
  non local Contribution for L=           0  read in
    real space projection operators read in
  non local Contribution for L=           1  read in
    real space projection operators read in
  non local Contribution for L=           1  read in
    real space projection operators read in
    PAW grid and wavefunctions read in
 
   number of l-projection  operators is LMAX  =           4
   number of lm-projection operators is LMMAX =           8
 
 Optimization of the real space projectors (new method)

 maximal supplied QI-value         = 15.12
 optimisation between [QCUT,QGAM] = [ 13.45, 27.06] = [ 50.69,205.06] Ry 
 Optimized for a Real-space Cutoff    1.49 Angstroem

   l    n(q)    QCUT    max X(q) W(low)/X(q) W(high)/X(q)  e(spline) 
   1     12    13.455     4.841    0.13E-05    0.83E-06    0.56E-07
   1     12    13.455     5.701    0.32E-04    0.25E-04    0.17E-06
   2     11    13.455     4.569    0.64E-05    0.34E-05    0.50E-07
   2     11    13.455    32.276    0.49E-04    0.38E-04    0.46E-06
   0     12    13.455    30.046    0.17E-04    0.41E-05    0.51E-07
   0     12    13.455    45.433    0.12E-04    0.27E-04    0.38E-06
 Optimization of the real space projectors (new method)

 maximal supplied QI-value         = 24.76
 optimisation between [QCUT,QGAM] = [ 13.37, 26.98] = [ 50.04,203.89] Ry 
 Optimized for a Real-space Cutoff    1.17 Angstroem

   l    n(q)    QCUT    max X(q) W(low)/X(q) W(high)/X(q)  e(spline) 
   0      9    13.368     4.192    0.20E-04    0.58E-05    0.56E-07
   0      9    13.368     8.473    0.60E-04    0.52E-04    0.21E-06
   1      9    13.368     2.474    0.22E-04    0.17E-04    0.28E-07
   1      9    13.368     3.912    0.94E-04    0.97E-04    0.20E-06
 Optimization of the real space projectors (new method)

 maximal supplied QI-value         = 24.76
 optimisation between [QCUT,QGAM] = [ 13.37, 26.98] = [ 50.04,203.89] Ry 
 Optimized for a Real-space Cutoff    1.17 Angstroem

   l    n(q)    QCUT    max X(q) W(low)/X(q) W(high)/X(q)  e(spline) 
   0      9    13.368    14.049    0.39E-04    0.34E-04    0.16E-06
   0      9    13.368     8.945    0.54E-04    0.47E-04    0.20E-06
   1      9    13.368     7.086    0.99E-04    0.10E-03    0.23E-06
   1      9    13.368     6.747    0.86E-04    0.89E-04    0.21E-06

 ----------------------------------------------------------------------------- 
|                                                                             |
|  ADVICE TO THIS USER RUNNING 'VASP/VAMP'   (HEAR YOUR MASTER'S VOICE ...):  |
|                                                                             |
|      You enforced a specific xc-type in the INCAR file,                     |
|      a different type was found on the POTCAR file                          |
|          I HOPE YOU KNOW, WHAT YOU ARE  DOING                               |
|                                                                             |
 ----------------------------------------------------------------------------- 

 PAW_PBE Ti_pv 07Sep2000                :
 energy of atom  1       EATOM=-1042.3781
 kinetic energy error for atom=    0.0006 (will be added to EATOM!!)
 PAW_PBE O 08Apr2002                    :
 energy of atom  2       EATOM= -432.3788
 kinetic energy error for atom=    0.0091 (will be added to EATOM!!)
  PAW_PBE F 08Apr2002                   :
 energy of atom  3       EATOM= -659.6475
 kinetic energy error for atom=    0.0140 (will be added to EATOM!!)
 
 
 POSCAR: Ti64 O64 F128                           
  positions in direct lattice
  velocities in cartesian coordinates
 exchange correlation table for  LEXCH =       14
   RHO(1)=    0.500       N(1)  =     2000
   RHO(2)=  100.500       N(2)  =     4000

 VTST: version 3.1, (03/28/14)

 CHAIN: initializing optimizer
 
 OPT: Using VASP QUASI-newton optimizer
 CHAIN: Read ICHAIN            0
 
 POSCAR: Ti64 O64 F128                           
  positions in direct lattice
  velocities in cartesian coordinates
 


--------------------------------------------------------------------------------------------------------


 ion  position               nearest neighbor table
   1  0.995  0.995  0.995- 117 1.86  67 1.88 102 1.89 170 2.02 211 2.03 129 2.05
   2  0.000  0.992  0.493- 118 1.81  66 1.82 171 1.94 192 1.95 130 2.01 212 2.08
   3  0.006  0.495  0.998-  88 1.83 116 1.86 137 1.93 131 1.98 213 2.02 193 2.02
   4  0.994  0.502  0.507-  65 1.82 103 1.83 214 1.93 222 2.00 172 2.01 136 2.03
   5  0.494  0.995  0.999- 100 1.83 120 1.84 139 1.95 132 1.96 215 2.01 173 2.03
   6  0.500  0.008  0.500- 111 1.77 190 1.90 133 1.91 138 1.92 174 1.93 224 2.01
   7  0.504  0.496  0.996-  69 1.88 119 1.88  89 1.88 191 2.02 134 2.03 216 2.04
   8  0.492  0.499  0.495- 101 1.80  68 1.85 223 1.97 217 1.98 135 2.01 175 2.06
   9  0.007  0.003  0.256-  90 1.83  66 1.86 218 1.94 226 1.97 129 2.00 196 2.06
  10  0.001  0.008  0.757-  67 1.79 112 1.84 176 1.94 197 1.98 227 2.04 130 2.06
  11  0.993  0.494  0.252- 106 1.82 121 1.86 136 1.93 131 1.96 219 2.00 177 2.02
  12  0.992  0.499  0.742- 107 1.82  65 1.82 225 1.93 220 1.96 137 2.02 178 2.04
  13  0.506  0.008  0.250- 113 1.81  91 1.84 132 1.92 138 1.97 194 2.00 230 2.04
  14  0.492  0.005  0.751- 104 1.81 114 1.84 139 1.93 133 1.99 231 2.01 179 2.03
  15  0.493  0.497  0.257-  68 1.82 105 1.84 228 1.95 221 1.99 134 2.01 180 2.04
  16  0.501  0.505  0.758-  69 1.80 115 1.87 181 1.94 195 1.97 229 2.04 135 2.06
  17  0.995  0.257  0.001- 116 1.82 109 1.87 140 1.96 145 1.96 182 2.00 211 2.02
  18  0.999  0.248  0.491-  73 1.77 212 1.91 183 1.93 201 1.93 222 1.94 141 2.01
  19  0.998  0.758  0.006- 117 1.81  70 1.85 202 1.94 184 1.97 147 2.04 213 2.05
  20  0.998  0.757  0.506- 118 1.83  71 1.83 203 1.94 185 1.96 214 2.02 146 2.02
  21  0.495  0.258  0.000- 119 1.80 108 1.84 149 1.95 142 1.97 186 2.03 215 2.07
  22  0.508  0.245  0.500-  92 1.80 111 1.89 143 1.92 148 1.93 223 1.96 198 2.00
  23  0.507  0.757  0.999-  93 1.82 120 1.83 151 1.94 144 1.99 216 2.01 199 2.01
  24  0.507  0.753  0.509-  72 1.79  94 1.83 217 1.95 224 1.95 200 2.01 150 2.07
  25  1.000  0.258  0.255- 121 1.79  73 1.88 208 1.94 187 1.95 140 1.98 218 2.02
  26  0.006  0.242  0.747- 112 1.80  95 1.83 141 1.96 145 1.97 225 2.04 209 2.05
  27  0.007  0.749  0.243-  70 1.81  96 1.84 219 1.94 226 1.98 146 2.05 210 2.06
  28  0.993  0.751  0.743- 110 1.82  71 1.84 227 1.93 220 1.97 188 2.02 147 2.02
  29  0.508  0.242  0.251-  97 1.81 113 1.82 142 1.92 148 1.96 228 2.01 204 2.02
  30  0.507  0.243  0.750-  98 1.84 114 1.84 149 1.93 143 1.97 229 2.02 205 2.02
  31  0.507  0.752  0.252-  99 1.79 150 1.92 230 1.93 221 1.94 144 1.94 206 2.00
  32  0.502  0.743  0.743- 115 1.80  72 1.84 189 1.93 207 1.96 151 2.02 231 2.06
  33  0.256  0.999  0.006-  74 1.84 100 1.86 245 1.93 232 1.96 170 2.01 156 2.04
  34  0.249  0.994  0.507- 127 1.82  75 1.84 171 1.94 190 1.98 233 2.02 155 2.02
  35  0.243  0.508  0.998- 122 1.82  88 1.84 158 1.93 152 1.97 191 2.02 244 2.03
  36  0.254  0.494  0.506-  76 1.85 101 1.87 126 1.88 172 2.03 234 2.04 157 2.04
  37  0.757  0.000  0.994- 102 1.79  80 1.87 235 1.95 248 1.96 173 2.05 153 2.05
  38  0.751  0.007  0.494-  79 1.83 123 1.83 192 1.93 174 1.98 154 1.99 249 2.02
  39  0.742  0.501  0.005-  89 1.80  77 1.87 236 1.95 246 1.96 160 2.03 193 2.05
  40  0.756  0.498  0.505-  78 1.84 103 1.85 247 1.95 237 1.98 175 2.01 159 2.02
  41  0.245  0.002  0.244-  74 1.83  90 1.85 238 1.93 251 1.96 155 2.04 194 2.05
  42  0.257  0.998  0.744-  75 1.84 104 1.84 252 1.93 239 1.97 176 2.02 156 2.02
  43  0.255  0.492  0.252- 128 1.83 105 1.83 157 1.93 152 1.96 240 2.03 177 2.04
  44  0.247  0.506  0.741-  76 1.79 124 1.83 178 1.95 195 1.97 250 2.03 158 2.05
  45  0.745  1.000  0.256-  91 1.85  79 1.86 255 1.94 241 1.95 153 2.00 196 2.00
  46  0.748  0.006  0.756-  80 1.82 125 1.83 179 1.94 197 1.97 256 2.03 154 2.06
  47  0.756  0.499  0.243-  77 1.81 106 1.85 242 1.95 253 1.95 180 2.02 159 2.04
  48  0.757  0.498  0.743- 107 1.82  78 1.84 254 1.93 243 1.97 181 2.03 160 2.03
  49  0.257  0.251  0.006- 108 1.83  81 1.86 244 1.93 232 1.97 167 2.02 182 2.05
  50  0.253  0.257  0.506- 126 1.80  82 1.85 198 1.95 183 2.01 166 2.03 233 2.05
  51  0.252  0.743  0.993- 122 1.82  85 1.83 199 1.94 184 1.96 245 2.03 161 2.04
  52  0.251  0.755  0.493-  84 1.83 127 1.86 200 1.95 185 1.97 234 2.00 162 2.04
  53  0.757  0.250  0.007- 109 1.80  83 1.85 235 1.94 246 1.94 169 2.02 186 2.03
  54  0.743  0.242  0.498- 123 1.81  92 1.84 168 1.93 163 1.95 247 2.01 201 2.03
  55  0.742  0.750  0.994-  93 1.82  87 1.83 236 1.94 248 1.95 202 2.01 164 2.04
  56  0.742  0.752  0.494-  94 1.81  86 1.86 249 1.94 237 1.95 165 2.01 203 2.02
  57  0.251  0.258  0.244- 128 1.82  81 1.82 204 1.95 187 1.99 166 2.03 238 2.03
  58  0.244  0.251  0.744-  82 1.83  95 1.84 250 1.93 239 1.97 167 2.03 205 2.04
  59  0.244  0.748  0.256-  96 1.83  84 1.84 240 1.93 251 1.97 161 2.02 206 2.06
  60  0.248  0.742  0.757- 124 1.81  85 1.84 188 1.93 207 1.97 162 2.04 252 2.04
  61  0.743  0.251  0.242-  83 1.79  97 1.83 253 1.93 241 1.94 208 2.03 168 2.06
  62  0.744  0.242  0.751- 125 1.82  98 1.84 169 1.93 163 1.99 209 2.02 254 2.04
  63  0.746  0.750  0.257-  86 1.81  99 1.90 242 1.93 255 1.95 210 1.98 164 2.02
  64  0.757  0.751  0.757- 110 1.82  87 1.84 256 1.93 243 1.97 189 2.03 165 2.05
  65  0.005  0.501  0.625-   4 1.82  12 1.82
  66  0.994  0.006  0.376-   2 1.82   9 1.86
  67  0.999  0.002  0.873-  10 1.79   1 1.88
  68  0.502  0.497  0.375-  15 1.82   8 1.85
  69  0.496  0.500  0.874-  16 1.80   7 1.88
  70  0.998  0.747  0.126-  27 1.81  19 1.85
  71  0.001  0.747  0.624-  20 1.83  28 1.84
  72  0.500  0.756  0.625-  24 1.79  32 1.84
  73  0.997  0.246  0.377-  18 1.77  25 1.88
  74  0.254  0.004  0.125-  41 1.83  33 1.84
  75  0.253  0.004  0.625-  42 1.84  34 1.84
  76  0.242  0.497  0.626-  44 1.79  36 1.85
  77  0.753  0.495  0.126-  47 1.81  39 1.87
  78  0.749  0.496  0.624-  48 1.84  40 1.84
  79  0.753  0.997  0.376-  38 1.83  45 1.86
  80  0.748  0.997  0.874-  46 1.82  37 1.87
  81  0.249  0.249  0.126-  57 1.82  49 1.86
  82  0.254  0.249  0.625-  58 1.83  50 1.85
  83  0.746  0.255  0.126-  61 1.79  53 1.85
  84  0.254  0.747  0.375-  52 1.83  59 1.84
  85  0.251  0.753  0.875-  51 1.83  60 1.84
  86  0.752  0.754  0.374-  63 1.81  56 1.86
  87  0.747  0.755  0.875-  55 1.83  64 1.84
  88  0.124  0.502  0.997-   3 1.83  35 1.84
  89  0.626  0.506  0.001-  39 1.80   7 1.88
  90  0.125  0.001  0.253-   9 1.83  41 1.85
  91  0.625  0.999  0.252-  13 1.84  45 1.85
  92  0.624  0.252  0.499-  22 1.80  54 1.84
  93  0.625  0.744  0.004-  55 1.82  23 1.82
  94  0.625  0.757  0.497-  56 1.81  24 1.83
  95  0.125  0.250  0.747-  26 1.83  58 1.84
  96  0.126  0.753  0.251-  59 1.83  27 1.84
  97  0.625  0.248  0.259-  29 1.81  61 1.83
  98  0.625  0.251  0.744-  30 1.84  62 1.84
  99  0.623  0.755  0.250-  31 1.79  63 1.90
 100  0.376  0.002  0.993-   5 1.83  33 1.86
 101  0.375  0.502  0.502-   8 1.80  36 1.87
 102  0.873  0.004  0.001-  37 1.79   1 1.89
 103  0.875  0.499  0.497-   4 1.83  40 1.85
 104  0.376  0.996  0.755-  14 1.81  42 1.84
 105  0.374  0.498  0.251-  43 1.83  15 1.84
 106  0.876  0.500  0.255-  11 1.82  47 1.85
 107  0.875  0.506  0.750-  12 1.82  48 1.82
 108  0.376  0.247  0.001-  49 1.83  21 1.84
 109  0.874  0.246  0.002-  53 1.80  17 1.87
 110  0.875  0.746  0.750-  64 1.82  28 1.82
 111  0.505  0.123  0.499-   6 1.77  22 1.89
 112  0.995  0.126  0.744-  26 1.80  10 1.84
 113  0.498  0.125  0.258-  13 1.81  29 1.82
 114  0.500  0.124  0.744-  14 1.84  30 1.84
 115  0.500  0.626  0.747-  32 1.80  16 1.87
 116  0.998  0.375  0.004-  17 1.82   3 1.86
 117  1.000  0.875  0.001-  19 1.81   1 1.86
 118  0.002  0.875  0.498-   2 1.81  20 1.83
 119  0.501  0.374  0.004-  21 1.80   7 1.88
 120  0.502  0.876  0.001-  23 1.83   5 1.84
 121  0.004  0.374  0.248-  25 1.79  11 1.86
 122  0.253  0.625  0.001-  51 1.82  35 1.82
 123  0.747  0.125  0.502-  54 1.81  38 1.83
 124  0.250  0.625  0.751-  60 1.81  44 1.83
 125  0.753  0.125  0.747-  62 1.82  46 1.83
 126  0.249  0.373  0.494-  50 1.80  36 1.88
 127  0.248  0.876  0.500-  34 1.82  52 1.86
 128  0.244  0.375  0.256-  57 1.82  43 1.83
 129  0.001  0.002  0.127-   9 2.00   1 2.05
 130  0.005  0.998  0.624-   2 2.01  10 2.06
 131  0.997  0.507  0.125-  11 1.96   3 1.98
 132  0.496  0.003  0.126-  13 1.92   5 1.96
 133  0.499  0.991  0.623-   6 1.91  14 1.99
 134  0.500  0.505  0.127-  15 2.01   7 2.03
 135  0.505  0.498  0.625-   8 2.01  16 2.06
 136  0.006  0.497  0.376-  11 1.93   4 2.03
 137  0.998  0.498  0.873-   3 1.93  12 2.02
 138  0.501  0.994  0.377-   6 1.92  13 1.97
 139  0.513  0.004  0.875-  14 1.93   5 1.95
 140  0.004  0.246  0.127-  17 1.96  25 1.98
 141  0.997  0.258  0.621-  26 1.96  18 2.01
 142  0.505  0.243  0.127-  29 1.92  21 1.97
 143  0.492  0.252  0.623-  22 1.92  30 1.97
 144  0.495  0.749  0.127-  31 1.94  23 1.99
 145  0.998  0.250  0.874-  17 1.96  26 1.97
 146  0.995  0.750  0.375-  20 2.02  27 2.05
 147  0.003  0.750  0.874-  28 2.02  19 2.04
 148  0.494  0.258  0.376-  22 1.93  29 1.96
 149  0.504  0.248  0.874-  30 1.93  21 1.95
 150  0.494  0.751  0.376-  31 1.92  24 2.07
 151  0.500  0.750  0.874-  23 1.94  32 2.02
 152  0.248  0.496  0.125-  43 1.96  35 1.97
 153  0.748  0.006  0.127-  45 2.00  37 2.05
 154  0.745  0.998  0.623-  38 1.99  46 2.06
 155  0.254  0.001  0.376-  34 2.02  41 2.04
 156  0.244  0.994  0.874-  42 2.02  33 2.04
 157  0.244  0.510  0.375-  43 1.93  36 2.04
 158  0.257  0.497  0.874-  35 1.93  44 2.05
 159  0.744  0.503  0.375-  40 2.02  47 2.04
 160  0.750  0.503  0.874-  39 2.03  48 2.03
 161  0.253  0.753  0.125-  59 2.02  51 2.04
 162  0.250  0.750  0.625-  60 2.04  52 2.04
 163  0.754  0.258  0.623-  54 1.95  62 1.99
 164  0.753  0.746  0.126-  63 2.02  55 2.04
 165  0.749  0.747  0.624-  56 2.01  64 2.05
 166  0.250  0.244  0.375-  50 2.03  57 2.03
 167  0.249  0.252  0.875-  49 2.02  58 2.03
 168  0.759  0.247  0.374-  54 1.93  61 2.06
 169  0.749  0.248  0.876-  62 1.93  53 2.02
 170  0.126  0.000  0.001-  33 2.01   1 2.02
 171  0.125  0.010  0.497-  34 1.94   2 1.94
 172  0.123  0.502  0.495-   4 2.01  36 2.03
 173  0.625  1.000  0.006-   5 2.03  37 2.05
 174  0.624  0.989  0.500-   6 1.93  38 1.98
 175  0.625  0.497  0.500-  40 2.01   8 2.06
 176  0.127  0.001  0.749-  10 1.94  42 2.02
 177  0.124  0.505  0.247-  11 2.02  43 2.04
 178  0.123  0.495  0.760-  44 1.95  12 2.04
 179  0.624  0.996  0.743-  46 1.94  14 2.03
 180  0.625  0.498  0.248-  47 2.02  15 2.04
 181  0.626  0.495  0.753-  16 1.94  48 2.03
 182  0.125  0.251  0.997-  17 2.00  49 2.05
 183  0.123  0.243  0.501-  18 1.93  50 2.01
 184  0.125  0.748  0.002-  51 1.96  19 1.97
 185  0.124  0.745  0.497-  20 1.96  52 1.97
 186  0.626  0.250  0.997-  21 2.03  53 2.03
 187  0.124  0.239  0.254-  25 1.95  57 1.99
 188  0.124  0.752  0.750-  60 1.93  28 2.02
 189  0.626  0.753  0.749-  32 1.93  64 2.03
 190  0.377  0.002  0.498-   6 1.90  34 1.98
 191  0.373  0.498  0.005-  35 2.02   7 2.02
 192  0.875  0.001  0.510-  38 1.93   2 1.95
 193  0.875  0.500  0.997-   3 2.02  39 2.05
 194  0.377  0.998  0.255-  13 2.00  41 2.05
 195  0.375  0.497  0.743-  16 1.97  44 1.97
 196  0.874  0.001  0.246-  45 2.00   9 2.06
 197  0.874  0.992  0.741-  46 1.97  10 1.98
 198  0.379  0.247  0.496-  50 1.95  22 2.00
 199  0.377  0.754  0.001-  51 1.94  23 2.01
 200  0.377  0.748  0.501-  52 1.95  24 2.01
 201  0.874  0.253  0.502-  18 1.93  54 2.03
 202  0.872  0.752  0.998-  19 1.94  55 2.01
 203  0.873  0.747  0.502-  20 1.94  56 2.02
 204  0.378  0.255  0.250-  57 1.95  29 2.02
 205  0.376  0.250  0.755-  30 2.02  58 2.04
 206  0.377  0.748  0.248-  31 2.00  59 2.06
 207  0.375  0.756  0.750-  32 1.96  60 1.97
 208  0.874  0.252  0.248-  25 1.94  61 2.03
 209  0.874  0.255  0.750-  62 2.02  26 2.05
 210  0.874  0.746  0.250-  63 1.98  27 2.06
 211  0.005  0.127  0.002-  17 2.02   1 2.03
 212  0.994  0.125  0.509-  18 1.91   2 2.08
 213  0.996  0.625  0.995-   3 2.02  19 2.05
 214  0.999  0.626  0.494-   4 1.93  20 2.02
 215  0.506  0.125  0.000-   5 2.01  21 2.07
 216  0.492  0.627  0.001-  23 2.01   7 2.04
 217  0.504  0.627  0.500-  24 1.95   8 1.98
 218  0.994  0.127  0.246-   9 1.94  25 2.02
 219  0.001  0.623  0.256-  27 1.94  11 2.00
 220  0.008  0.625  0.755-  12 1.96  28 1.97
 221  0.503  0.626  0.252-  31 1.94  15 1.99
 222  0.005  0.373  0.498-  18 1.94   4 2.00
 223  0.498  0.372  0.504-  22 1.96   8 1.97
 224  0.493  0.878  0.495-  24 1.95   6 2.01
 225  0.997  0.374  0.751-  12 1.93  26 2.04
 226  0.994  0.876  0.252-   9 1.97  27 1.98
 227  0.002  0.876  0.748-  28 1.93  10 2.04
 228  0.502  0.372  0.244-  15 1.95  29 2.01
 229  0.498  0.373  0.748-  30 2.02  16 2.04
 230  0.495  0.876  0.249-  31 1.93  13 2.04
 231  0.503  0.875  0.755-  14 2.01  32 2.06
 232  0.244  0.125  0.993-  33 1.96  49 1.97
 233  0.253  0.124  0.497-  34 2.02  50 2.05
 234  0.249  0.626  0.504-  52 2.00  36 2.04
 235  0.742  0.126  1.000-  53 1.94  37 1.95
 236  0.759  0.626  0.000-  55 1.94  39 1.95
 237  0.747  0.626  0.499-  56 1.95  40 1.98
 238  0.258  0.126  0.254-  41 1.93  57 2.03
 239  0.252  0.124  0.758-  42 1.97  58 1.97
 240  0.250  0.624  0.242-  59 1.93  43 2.03
 241  0.756  0.126  0.252-  61 1.94  45 1.95
 242  0.745  0.625  0.250-  63 1.93  47 1.95
 243  0.741  0.625  0.749-  64 1.97  48 1.97
 244  0.250  0.376  0.999-  49 1.93  35 2.03
 245  0.248  0.874  0.004-  33 1.93  51 2.03
 246  0.750  0.375  0.991-  53 1.94  39 1.96
 247  0.751  0.372  0.492-  40 1.95  54 2.01
 248  0.748  0.875  0.010-  55 1.95  37 1.96
 249  0.757  0.876  0.505-  56 1.94  38 2.02
 250  0.252  0.376  0.755-  58 1.93  44 2.03
 251  0.256  0.876  0.250-  41 1.96  59 1.97
 252  0.246  0.874  0.746-  42 1.93  60 2.04
 253  0.750  0.374  0.261-  61 1.93  47 1.95
 254  0.753  0.374  0.755-  48 1.93  62 2.04
 255  0.756  0.875  0.241-  45 1.94  63 1.95
 256  0.749  0.875  0.742-  64 1.93  46 2.03
 

IMPORTANT INFORMATION: All symmetrisations will be switched off!
NOSYMM: (Re-)initialisation of all symmetry stuff for point group C_1.

 
 
 KPOINTS: Title                                   

Automatic generation of k-mesh.
Space group operators:
 irot       det(A)        alpha          n_x          n_y          n_z        tau_x        tau_y        tau_z
    1     1.000000     0.000000     1.000000     0.000000     0.000000     0.000000     0.000000     0.000000
 
 Subroutine IBZKPT returns following result:
 ===========================================
 
 Found      4 irreducible k-points:
 
 Following reciprocal coordinates:
            Coordinates               Weight
  0.250000  0.250000  0.250000      2.000000
 -0.250000  0.250000  0.250000      2.000000
  0.250000 -0.250000  0.250000      2.000000
 -0.250000 -0.250000  0.250000      2.000000
 
 Following cartesian coordinates:
            Coordinates               Weight
  0.016206  0.016206  0.016206      2.000000
 -0.016206  0.016206  0.016206      2.000000
  0.016206 -0.016206  0.016206      2.000000
 -0.016206 -0.016206  0.016206      2.000000
 


--------------------------------------------------------------------------------------------------------




 Dimension of arrays:
   k-points           NKPTS =      4   k-points in BZ     NKDIM =      4   number of bands    NBANDS=   1280
   number of dos      NEDOS =   3001   number of ions     NIONS =    256
   non local maximal  LDIM  =      6   non local SUM 2l+1 LMDIM =     18
   total plane-waves  NPLWV = ******
   max r-space proj   IRMAX =  10363   max aug-charges    IRDMAX= 232333
   dimension x,y,z NGX =   140 NGY =  140 NGZ =  140
   dimension x,y,z NGXF=   280 NGYF=  280 NGZF=  280
   support grid    NGXF=   560 NGYF=  560 NGZF=  560
   ions per type =              64  64 128
   NGX,Y,Z   is equivalent  to a cutoff of  15.09, 15.09, 15.09 a.u.
   NGXF,Y,Z  is equivalent  to a cutoff of  30.17, 30.17, 30.17 a.u.

 SYSTEM =  LTO                                     
 POSCAR =  Ti64 O64 F128                           

 Startparameter for this run:
   NWRITE =      2    write-flag & timer
   PREC   = accura    normal or accurate (medium, high low for compatibility)
   ISTART =      1    job   : 0-new  1-cont  2-samecut
   ICHARG =      0    charge: 1-file 2-atom 10-const
   ISPIN  =      2    spin polarized calculation?
   LNONCOLLINEAR =      F non collinear calculations
   LSORBIT =      F    spin-orbit coupling
   INIWAV =      1    electr: 0-lowe 1-rand  2-diag
   LASPH  =      T    aspherical Exc in radial PAW
   METAGGA=      F    non-selfconsistent MetaGGA calc.

 Electronic Relaxation 1
   ENCUT  =  700.0 eV  51.45 Ry    7.17 a.u.  33.28 33.28 33.28*2*pi/ulx,y,z
   ENINI  =  700.0     initial cutoff
   ENAUG  =  613.6 eV  augmentation charge cutoff
   NELM   =     60;   NELMIN=  2; NELMDL=  0     # of ELM steps 
   EDIFF  = 0.1E-05   stopping-criterion for ELM
   LREAL  =      T    real-space projection
   NLSPLINE    = F    spline interpolate recip. space projectors
   LCOMPAT=      F    compatible to vasp.4.4
   GGA_COMPAT  = T    GGA compatible to vasp.4.4-vasp.4.6
   LMAXPAW     = -100 max onsite density
   LMAXMIX     =    4 max onsite mixed and CHGCAR
   VOSKOWN=      0    Vosko Wilk Nusair interpolation
   ROPT   =   -0.00010  -0.00010  -0.00010
 Ionic relaxation
   EDIFFG = -.1E-01   stopping-criterion for IOM
   NSW    =    100    number of steps for IOM
   NBLOCK =      1;   KBLOCK =    100    inner block; outer block 
   IBRION =      1    ionic relax: 0-MD 1-quasi-New 2-CG
   NFREE  =      0    steps in history (QN), initial steepest desc. (CG)
   ISIF   =      2    stress and relaxation
   IWAVPR =     11    prediction:  0-non 1-charg 2-wave 3-comb
   ISYM   =      0    0-nonsym 1-usesym 2-fastsym
   LCORR  =      T    Harris-Foulkes like correction to forces

   POTIM  = 0.5000    time-step for ionic-motion
   TEIN   =    0.0    initial temperature
   TEBEG  =    0.0;   TEEND  =   0.0 temperature during run
   SMASS  =  -3.00    Nose mass-parameter (am)
   estimated Nose-frequenzy (Omega)   =  0.10E-29 period in steps =****** mass=  -0.544E-26a.u.
   SCALEE = 1.0000    scale energy and forces
   NPACO  =    256;   APACO  = 16.0  distance and # of slots for P.C.
   PSTRESS=    0.0 pullay stress

  Mass of Ions in am
   POMASS =  47.88 16.00 19.00
  Ionic Valenz
   ZVAL   =  10.00  6.00  7.00
  Atomic Wigner-Seitz radii
   RWIGS  =  -1.00 -1.00 -1.00
  virtual crystal weights 
   VCA    =   1.00  1.00  1.00
   NELECT =    1920.0000    total number of electrons
   NUPDOWN=      -1.0000    fix difference up-down

 DOS related values:
   EMIN   =  10.00;   EMAX   =-10.00  energy-range for DOS
   EFERMI =   0.00
   ISMEAR =     0;   SIGMA  =   0.01  broadening in eV -4-tet -1-fermi 0-gaus

 Electronic relaxation 2 (details)
   IALGO  =     38    algorithm
   LDIAG  =      T    sub-space diagonalisation (order eigenvalues)
   LSUBROT=      F    optimize rotation matrix (better conditioning)
   TURBO    =      0    0=normal 1=particle mesh
   IRESTART =      0    0=no restart 2=restart with 2 vectors
   NREBOOT  =      0    no. of reboots
   NMIN     =      0    reboot dimension
   EREF     =   0.00    reference energy to select bands
   IMIX   =      4    mixing-type and parameters
     AMIX     =   0.40;   BMIX     =  1.00
     AMIX_MAG =   1.60;   BMIX_MAG =  1.00
     AMIN     =   0.10
     WC   =   100.;   INIMIX=   1;  MIXPRE=   1;  MAXMIX= -45

 Intra band minimization:
   WEIMIN = 0.0010     energy-eigenvalue tresh-hold
   EBREAK =  0.20E-09  absolut break condition
   DEPER  =   0.30     relativ break condition  

   TIME   =   0.40     timestep for ELM

  volume/ion in A,a.u.               =      14.34        96.77
  Fermi-wavevector in a.u.,A,eV,Ry     =   1.319003  2.492555 23.671009  1.739770
  Thomas-Fermi vector in A             =   2.448933
 
 Write flags
   LWAVE        =      T    write WAVECAR
   LDOWNSAMPLE  =      F    k-point downsampling of WAVECAR
   LCHARG       =      T    write CHGCAR
   LVTOT        =      F    write LOCPOT, total local potential
   LVHAR        =      F    write LOCPOT, Hartree potential only
   LELF         =      F    write electronic localiz. function (ELF)
   LORBIT       =     11    0 simple, 1 ext, 2 COOP (PROOUT), +10 PAW based schemes


 Dipole corrections
   LMONO  =      F    monopole corrections only (constant potential shift)
   LDIPOL =      F    correct potential (dipole corrections)
   IDIPOL =      0    1-x, 2-y, 3-z, 4-all directions 
   EPSILON=  1.0000000 bulk dielectric constant

 LDA+U is selected, type is set to LDAUTYPE =  2
   angular momentum for each species LDAUL =     2   -1   -1
   U (eV)           for each species LDAUU =   4.2  0.0  0.0
   J (eV)           for each species LDAUJ =   0.0  0.0  0.0
 Exchange correlation treatment:
   GGA     =    PS    GGA type
   LEXCH   =    14    internal setting for exchange type
   VOSKOWN=      0    Vosko Wilk Nusair interpolation
   LHFCALC =     F    Hartree Fock is set to
   LHFONE  =     F    Hartree Fock one center treatment
   AEXX    =    0.0000 exact exchange contribution

 Linear response parameters
   LEPSILON=     F    determine dielectric tensor
   LRPA    =     F    only Hartree local field effects (RPA)
   LNABLA  =     F    use nabla operator in PAW spheres
   LVEL    =     F    velocity operator in full k-point grid
   LINTERFAST=   F  fast interpolation
   KINTER  =     0    interpolate to denser k-point grid
   CSHIFT  =0.1000    complex shift for real part using Kramers Kronig
   OMEGAMAX=  -1.0    maximum frequency
   DEG_THRESHOLD= 0.2000000E-02 threshold for treating states as degnerate
   RTIME   =   -0.100 relaxation time in fs
  (WPLASMAI=    0.000 imaginary part of plasma frequency in eV, 0.658/RTIME)
   DFIELD  = 0.0000000 0.0000000 0.0000000 field for delta impulse in time
 
 Orbital magnetization related:
   ORBITALMAG=     F  switch on orbital magnetization
   LCHIMAG   =     F  perturbation theory with respect to B field
   DQ        =  0.001000  dq finite difference perturbation B field
   LLRAUG    =     F  two centre corrections for induced B field



--------------------------------------------------------------------------------------------------------


 quasi-Newton-method for relaxation of ions
 charge density and potential will be updated during run
 spin polarized calculation
 Variant of blocked Davidson
 Davidson routine will perform the subspace rotation
 perform sub-space diagonalisation
    after iterative eigenvector-optimisation
 modified Broyden-mixing scheme, WC =      100.0
 initial mixing is a Kerker type mixing with AMIX =  0.4000 and BMIX =      1.0000
 Hartree-type preconditioning will be used
 using additional bands          320
 real space projection scheme for non local part
 use partial core corrections
 calculate Harris-corrections to forces 
   (improved forces if not selfconsistent)
 use gradient corrections 
 use of overlap-Matrix (Vanderbilt PP)
 Gauss-broadening in eV      SIGMA  =   0.01


--------------------------------------------------------------------------------------------------------


  energy-cutoff  :      700.00
  volume of cell :     3671.03
      direct lattice vectors                 reciprocal lattice vectors
    15.426330959  0.000000000  0.000000000     0.064824228  0.000000000  0.000000000
     0.000000000 15.426330959  0.000000000     0.000000000  0.064824228  0.000000000
     0.000000000  0.000000000 15.426330959     0.000000000  0.000000000  0.064824228

  length of vectors
    15.426330959 15.426330959 15.426330959     0.064824228  0.064824228  0.064824228


 
 old parameters found on file WAVECAR:
  energy-cutoff  :      700.00
  volume of cell :     3671.03
      direct lattice vectors                 reciprocal lattice vectors
    15.426330959  0.000000000  0.000000000     0.064824228  0.000000000  0.000000000
     0.000000000 15.426330959  0.000000000     0.000000000  0.064824228  0.000000000
     0.000000000  0.000000000 15.426330959     0.000000000  0.000000000  0.064824228

  length of vectors

 
 k-points in units of 2pi/SCALE and weight: Title                                   
   0.01620606  0.01620606  0.01620606       0.250
  -0.01620606  0.01620606  0.01620606       0.250
   0.01620606 -0.01620606  0.01620606       0.250
  -0.01620606 -0.01620606  0.01620606       0.250
 
 k-points in reciprocal lattice and weights: Title                                   
   0.25000000  0.25000000  0.25000000       0.250
  -0.25000000  0.25000000  0.25000000       0.250
   0.25000000 -0.25000000  0.25000000       0.250
  -0.25000000 -0.25000000  0.25000000       0.250
 
 position of ions in fractional coordinates (direct lattice) 
   0.99497385  0.99544881  0.99463587
   0.00007067  0.99174431  0.49346011
   0.00564043  0.49505442  0.99797265
   0.99372178  0.50218709  0.50703955
   0.49397584  0.99465583  0.99927020
   0.50029978  0.00813535  0.50029151
   0.50421708  0.49562710  0.99576167
   0.49199838  0.49934520  0.49492856
   0.00672864  0.00251536  0.25628998
   0.00103096  0.00759526  0.75683750
   0.99347199  0.49395291  0.25185207
   0.99244963  0.49882350  0.74236236
   0.50642018  0.00794881  0.25013574
   0.49246763  0.00522449  0.75137754
   0.49308146  0.49743799  0.25738457
   0.50097780  0.50477763  0.75804838
   0.99521887  0.25708039  0.00105876
   0.99885823  0.24786770  0.49134901
   0.99795908  0.75797939  0.00622608
   0.99819338  0.75654878  0.50607851
   0.49463055  0.25795841  0.00018674
   0.50797971  0.24544713  0.49998869
   0.50718951  0.75683629  0.99880562
   0.50683604  0.75290190  0.50902960
   0.99951265  0.25806260  0.25524915
   0.00635037  0.24219301  0.74712997
   0.00698144  0.74866397  0.24312542
   0.99291171  0.75093819  0.74342811
   0.50816400  0.24233921  0.25093074
   0.50663361  0.24288928  0.74957242
   0.50703188  0.75163753  0.25179387
   0.50154167  0.74254278  0.74321174
   0.25621287  0.99886336  0.00611190
   0.24912521  0.99380670  0.50661450
   0.24342284  0.50759638  0.99781678
   0.25412720  0.49417330  0.50639886
   0.75725162  0.00038799  0.99430872
   0.75124904  0.00650454  0.49427971
   0.74206236  0.50056395  0.00516064
   0.75568057  0.49786352  0.50526791
   0.24468627  0.00211455  0.24384651
   0.25718915  0.99788691  0.74425619
   0.25537320  0.49240336  0.25195310
   0.24742362  0.50634650  0.74121208
   0.74487667  0.99971596  0.25593006
   0.74840495  0.00623587  0.75633635
   0.75601534  0.49949749  0.24291185
   0.75730595  0.49828165  0.74286000
   0.25732950  0.25111111  0.00563357
   0.25275005  0.25671571  0.50553832
   0.25178056  0.74258931  0.99340001
   0.25131222  0.75543141  0.49276953
   0.75735243  0.25021574  0.00659998
   0.74327527  0.24245865  0.49810660
   0.74191741  0.75000504  0.99402530
   0.74190466  0.75201594  0.49407490
   0.25146256  0.25751436  0.24357216
   0.24402837  0.25138869  0.74353106
   0.24397813  0.74828236  0.25565607
   0.24821971  0.74193483  0.75666989
   0.74256442  0.25062708  0.24200990
   0.74412052  0.24195945  0.75063082
   0.74584163  0.75045497  0.25671331
   0.75737254  0.75129460  0.75683104
   0.00459135  0.50121241  0.62473197
   0.99432578  0.00567232  0.37618616
   0.99857488  0.00248373  0.87292711
   0.50211081  0.49663211  0.37519054
   0.49646195  0.49989276  0.87446630
   0.99826590  0.74682596  0.12581698
   0.00053741  0.74659845  0.62430989
   0.50032936  0.75629880  0.62465068
   0.99732907  0.24623339  0.37653447
   0.25366462  0.00361003  0.12542553
   0.25253609  0.00370091  0.62534162
   0.24166931  0.49650029  0.62572710
   0.75309750  0.49480832  0.12568868
   0.74875647  0.49629061  0.62416976
   0.75266895  0.99698027  0.37608754
   0.74754446  0.99668434  0.87367685
   0.24855926  0.24909003  0.12562541
   0.25432214  0.24893121  0.62513509
   0.74568299  0.25491043  0.12599395
   0.25381010  0.74722610  0.37460354
   0.25050612  0.75316453  0.87510251
   0.75154445  0.75433935  0.37409605
   0.74738485  0.75456140  0.87539554
   0.12433736  0.50170088  0.99747057
   0.62582836  0.50558893  0.00053383
   0.12538172  0.00127765  0.25311978
   0.62515186  0.99859533  0.25165840
   0.62442231  0.25223651  0.49851249
   0.62470761  0.74449405  0.00403192
   0.62467425  0.75718146  0.49709634
   0.12457980  0.25002861  0.74717355
   0.12560372  0.75294029  0.25104013
   0.62543990  0.24781980  0.25852843
   0.62533982  0.25104719  0.74433189
   0.62310645  0.75507211  0.25016083
   0.37584316  0.00184204  0.99342370
   0.37522170  0.50156827  0.50154609
   0.87296523  0.00386409  0.00149041
   0.87530226  0.49855054  0.49666468
   0.37584311  0.99592382  0.75526969
   0.37404685  0.49793959  0.25147777
   0.87561919  0.49963792  0.25510509
   0.87510663  0.50583954  0.74972959
   0.37567718  0.24667657  0.00062938
   0.87417006  0.24633399  0.00222136
   0.87490276  0.74643223  0.75040189
   0.50484131  0.12275640  0.49939848
   0.99513187  0.12587798  0.74366140
   0.49756372  0.12492525  0.25811522
   0.50003484  0.12371164  0.74407847
   0.50017358  0.62568980  0.74735471
   0.99847607  0.37486647  0.00369736
   0.99957998  0.87494828  0.00080427
   0.00164559  0.87473424  0.49793431
   0.50102056  0.37416791  0.00381689
   0.50233497  0.87554283  0.00065285
   0.00429518  0.37382631  0.24826393
   0.25321118  0.62516088  0.00071599
   0.74749384  0.12496780  0.50179819
   0.24978061  0.62467676  0.75085146
   0.75260530  0.12460148  0.74652014
   0.24871715  0.37301731  0.49440861
   0.24760929  0.87572289  0.50026803
   0.24394019  0.37450591  0.25559420
   0.00102009  0.00162385  0.12694556
   0.00530894  0.99761879  0.62355815
   0.99742299  0.50732148  0.12537963
   0.49607767  0.00293122  0.12624240
   0.49885733  0.99141425  0.62304978
   0.50009849  0.50477090  0.12724746
   0.50497691  0.49801249  0.62456443
   0.00637886  0.49696032  0.37613926
   0.99818397  0.49819828  0.87310933
   0.50067669  0.99385826  0.37691242
   0.51339897  0.00367076  0.87469920
   0.00406510  0.24588219  0.12728116
   0.99674248  0.25788758  0.62135895
   0.50491217  0.24312787  0.12652018
   0.49205937  0.25193461  0.62312177
   0.49541905  0.74927428  0.12678608
   0.99836457  0.24993063  0.87417081
   0.99515885  0.74951424  0.37521544
   0.00250932  0.75030380  0.87400972
   0.49441473  0.25817324  0.37611835
   0.50357314  0.24776659  0.87427582
   0.49410028  0.75132362  0.37557196
   0.49960563  0.75010859  0.87377778
   0.24767720  0.49550627  0.12488134
   0.74804751  0.00574425  0.12670362
   0.74513672  0.99777606  0.62306612
   0.25390880  0.00054084  0.37566277
   0.24420109  0.99443969  0.87447501
   0.24445348  0.51032638  0.37524265
   0.25656628  0.49655013  0.87371989
   0.74403111  0.50349400  0.37481455
   0.74985908  0.50304675  0.87410283
   0.25300489  0.75348995  0.12494757
   0.24987287  0.75029938  0.62496267
   0.75449345  0.25827780  0.62313184
   0.75307519  0.74633162  0.12594783
   0.74862880  0.74699546  0.62429174
   0.25009076  0.24396944  0.37461393
   0.24935533  0.25175718  0.87518667
   0.75865565  0.24674485  0.37429960
   0.74871914  0.24763923  0.87574687
   0.12594643  0.00012438  0.00123302
   0.12466733  0.00975661  0.49670567
   0.12323265  0.50236509  0.49528128
   0.62520851  0.99983693  0.00626515
   0.62397037  0.98939370  0.50016480
   0.62531949  0.49735492  0.50024645
   0.12664891  0.00145042  0.74867356
   0.12399255  0.50536943  0.24677407
   0.12323829  0.49497923  0.75989668
   0.62365482  0.99630054  0.74264272
   0.62527732  0.49789251  0.24779772
   0.62641503  0.49485470  0.75255403
   0.12492027  0.25121711  0.99740134
   0.12344434  0.24265800  0.50136717
   0.12517179  0.74771767  0.00163578
   0.12427147  0.74540808  0.49692575
   0.62593447  0.25042529  0.99735477
   0.12447399  0.23927124  0.25366731
   0.12353332  0.75222375  0.74984276
   0.62627778  0.75280391  0.74894580
   0.37706121  0.00162554  0.49812061
   0.37349387  0.49761882  0.00521490
   0.87498001  0.00147419  0.51046193
   0.87465897  0.49957432  0.99680271
   0.37730625  0.99773776  0.25465752
   0.37470202  0.49676115  0.74330977
   0.87389698  0.00075497  0.24578331
   0.87421622  0.99231778  0.74145467
   0.37862845  0.24661148  0.49566041
   0.37666008  0.75437710  0.00066029
   0.37702793  0.74829497  0.50132583
   0.87426602  0.25314192  0.50212409
   0.87236231  0.75188675  0.99819793
   0.87273198  0.74715721  0.50225263
   0.37798242  0.25497339  0.24979810
   0.37610818  0.25027523  0.75460931
   0.37721943  0.74755782  0.24825896
   0.37512698  0.75625437  0.74968481
   0.87403308  0.25220534  0.24761568
   0.87412740  0.25479719  0.74957499
   0.87382076  0.74605598  0.24989697
   0.00513390  0.12671881  0.00160444
   0.99422169  0.12546398  0.50908461
   0.99572537  0.62527840  0.99530156
   0.99892126  0.62618988  0.49351220
   0.50572426  0.12454563  0.00029428
   0.49206598  0.62749357  0.00131000
   0.50394716  0.62676880  0.49986815
   0.99418487  0.12728807  0.24646187
   0.00071717  0.62344042  0.25630860
   0.00848963  0.62454800  0.75479048
   0.50259383  0.62622695  0.25223817
   0.00450681  0.37347510  0.49788606
   0.49759565  0.37225114  0.50364335
   0.49340608  0.87807055  0.49517732
   0.99695967  0.37422742  0.75117573
   0.99394453  0.87574957  0.25202826
   0.00170987  0.87574092  0.74787530
   0.50185383  0.37197834  0.24382454
   0.49782214  0.37326550  0.74773208
   0.49504084  0.87606884  0.24933600
   0.50346886  0.87549447  0.75527926
   0.24442815  0.12479999  0.99300178
   0.25347693  0.12428436  0.49656874
   0.24910580  0.62641001  0.50404472
   0.74167113  0.12583220  0.99969801
   0.75886393  0.62562376  0.00048152
   0.74734564  0.62551227  0.49912494
   0.25778049  0.12627900  0.25416195
   0.25201904  0.12444504  0.75783962
   0.25008144  0.62380738  0.24219681
   0.75580827  0.12566831  0.25169431
   0.74547575  0.62527825  0.24998986
   0.74139956  0.62511008  0.74947747
   0.25041032  0.37596381  0.99860375
   0.24773315  0.87403678  0.00356455
   0.74963390  0.37479417  0.99109652
   0.75091745  0.37237291  0.49238162
   0.74816344  0.87495778  0.01025566
   0.75699513  0.87631534  0.50549822
   0.25242559  0.37581949  0.75502124
   0.25598543  0.87553664  0.25046905
   0.24563895  0.87357111  0.74568024
   0.75014667  0.37419529  0.26079490
   0.75280102  0.37373380  0.75528418
   0.75628554  0.87513529  0.24105605
   0.74912528  0.87529751  0.74231176
 
 position of ions in cartesian coordinates  (Angst):
  15.34879588 15.35612281 15.34358218
   0.00109018 15.29897594  7.61227896
   0.08701116  7.63687339 15.39505644
  15.32948107  7.74690427  7.82175993
   7.62023474 15.34389002 15.41507287
   7.71779000  0.12549854  7.71766246
   7.77821952  7.64570768 15.36094905
   7.58972983  7.70306438  7.63493173
   0.10379823  0.03880270  3.95361404
   0.01590400  0.11716693 11.67522572
  15.32562775  7.61988110  3.88515333
  15.30985638  7.69501644 11.45192747
   7.81220533  0.12262104  3.85867668
   7.59696863  0.08059466 11.59099865
   7.60643773  7.67364311  3.97049962
   7.72824930  7.78686672 11.69390513
  15.35257571  3.96580712  0.01633279
  15.40871758  3.82368924  7.57971251
  15.39484707 11.69284099  0.09604550
  15.39846144 11.67077189  7.80693455
   7.63033459  3.97935186  0.00288073
   7.83626311  3.78634860  7.71299102
   7.82407331 11.67520713 15.40790610
   7.81862043 11.61451389  7.85245909
  15.41881298  3.98095902  3.93755792
   0.09796297  3.73614952 11.52547420
   0.10769803 11.54913820  3.75053321
  15.31698472 11.58422101 11.46836810
   7.83910604  3.73840488  3.87094068
   7.81549778  3.74689049 11.56315220
   7.82164153 11.59500932  3.88425555
   7.73694780 11.45471064 11.46503033
   3.95242447 15.40879684  0.09428425
   3.84308795 15.33079110  7.81520300
   3.75512127  7.83034976 15.39265181
   3.92025027  7.62328095  7.81187637
  11.68161406  0.00598532 15.33853545
  11.58901625  0.10034125  7.62492239
  11.44729962  7.72186523  0.07960976
  11.65737858  7.68020742  7.79442998
   3.77461144  0.03261981  3.76165699
   3.96748493 15.39373372 11.48114229
   3.93947157  7.59597717  3.88671196
   3.81683865  7.81106869 11.43418291
  11.49071409 15.42194919  3.94806183
  11.54514243  0.09619661 11.66749485
  11.66254284  7.70541361  3.74723860
  11.68245221  7.68665758 11.45960420
   3.96965009  3.87372306  0.08690536
   3.89900588  3.96018147  7.79860136
   3.88405031 11.45542854 15.32451730
   3.87682547 11.65353500  7.60162590
  11.68316921  3.85991077  0.10181352
  11.46601037  3.74024732  7.68395726
  11.44506352 11.56982596 15.33416322
  11.44486679 11.60084675  7.62176295
   3.87914464  3.97250178  3.75742477
   3.76446244  3.87800519 11.46995618
   3.76368733 11.54325141  3.94383522
   3.82911942 11.44533218 11.67264022
  11.45504455  3.86625624  3.73332474
  11.47904937  3.73254650 11.57947944
  11.50559975 11.57676679  3.96014456
  11.68347944 11.58971910 11.67512613
   0.07082773  7.73186849  9.63732213
  15.33879862  0.08750314  5.80317217
  15.40434656  0.03831487 13.46606253
   7.74572750  7.66121133  5.78781349
   7.65858640  7.71151111 13.48980662
  15.39958015 11.52078444  1.94089442
   0.00829028 11.51727484  9.63081100
   7.71824630 11.66691565  9.63606811
  15.38512836  3.79847779  5.80854534
   3.91311434  0.05568947  1.93485566
   3.89570533  0.05709147  9.64672681
   3.72807071  7.65917781  9.65267330
  11.61753133  7.63307684  1.93891523
  11.55056512  7.65594314  9.62864922
  11.61092029 15.37974764  5.80165080
  11.53186819 15.37518250 13.47762827
   3.83435743  3.84254528  1.93793911
   3.92325750  3.84009519  9.64354073
  11.50315256  3.93233270  1.94362441
   3.91535857 11.52695717  5.77875814
   3.86439026 11.61856533 13.49962094
  11.59357338 11.63668846  5.77092953
  11.52940604 11.64011384 13.50414135
   1.91806926  7.73940374 15.38731106
   9.65423547  7.79938212  0.00823507
   1.93417988  0.01970945  3.90470947
   9.64379956 15.40466200  3.88216579
   9.63254525  3.89108393  7.69021871
   9.63694636 11.48481156  0.06219778
   9.63643174 11.68053177  7.66837258
   1.92180923  3.85702404 11.52614643
   1.93760462 11.61510607  3.87262820
   9.64824283  3.82295018  3.98814509
   9.64669897  3.87273708 11.48231012
   9.61224636 11.64799229  3.85906370
   5.79788105  0.02841588 15.32488282
   5.78829411  7.73735818  7.73701591
  13.46665057  0.05960872  0.02299154
  13.50270228  7.69080564  7.66171372
   5.79788013 15.36345043 11.65104022
   5.77017053  7.68138084  3.87937923
  13.50759147  7.70757990  3.93533558
  13.49968445  7.80324809 11.56557680
   5.79532051  3.80531434  0.00970904
  13.48523669  3.80002961  0.03426742
  13.49653947 11.51471055 11.57594793
   7.78784915  1.89368086  7.70388626
  15.35123364  1.94183542 11.47196682
   7.67558261  1.92713829  3.98177083
   7.71370287  1.90841667 11.47840077
   7.71584312  9.65209797 11.52894107
  15.40282229  5.78281417  0.05703675
  15.41985165 13.49724179  0.01240700
   0.02538545 13.49393982  7.68129953
   7.72890896  5.77203803  0.05888062
   7.74918543 13.50641341  0.01007104
   0.06625884  5.76676841  3.82980156
   3.90611939  9.64393865  0.01104517
  11.53108739  1.92779459  7.74090493
   3.85319837  9.63647049 11.58288318
  11.60993840  1.92214365 11.51606667
   3.83679313  5.75428853  7.62691083
   3.81970289 13.50919113  7.71730021
   3.76310215  5.77725204  3.94288074
   0.01573621  0.02505006  1.95830417
   0.08189741 15.38959756  9.61921440
  15.38657710  7.82610904  1.93414764
   7.65265826  0.04521791  1.94745707
   7.69553821 15.29388428  9.61137205
   7.71468488  7.78676300  1.96296139
   7.78994096  7.68250545  9.63473763
   0.09840240  7.66627440  5.80244864
  15.39831624  7.68537157 13.46887342
   7.72360430 15.33158637  5.81437574
   7.91986240  0.05662638 13.49339933
   0.06270956  3.79306008  1.96348124
  15.37607934  3.97825909  9.58528882
   7.78894216  3.75057094  1.95174222
   7.59067073  3.88642669  9.61248259
   7.64249828 11.55855304  1.95584400
  15.40110230  3.85551254 13.48524819
  15.35164983 11.56225474  5.78819750
   0.03870961 11.57443478 13.48276316
   7.62700526  3.98266591  5.80212611
   7.76828594  3.82212943 13.48686813
   7.62215440 11.59016689  5.79369731
   7.70708186 11.57142343 13.47918521
   3.82075046  7.64384366  1.92646082
  11.53962852  0.08861273  1.95457193
  11.49472559 15.39202367  9.61162414
   3.91688124  0.00834311  5.79509818
   3.76712681 15.34055573 13.48994095
   3.77102029  7.87246370  5.78861732
   3.95787635  7.65994657 13.47829226
  11.47767010  7.76706501  5.78201332
  11.56757441  7.76016565 13.48419954
   3.90293710 11.62358540  1.92748251
   3.85462153 11.57436662  9.64088099
  11.63906564  3.98427881  9.61263797
  11.61718719 11.51315855  1.94291286
  11.54859561 11.52339926  9.63053102
   3.85798287  3.76355337  5.77891846
   3.84663791  3.88368953 13.50091917
  11.70327320  3.80636767  5.77406952
  11.54998931  3.82016477 13.50956106
   1.94289128  0.00191876  0.01902099
   1.92315956  0.15050871  7.66234604
   1.90102770  7.74965021  7.64037297
   9.64467334 15.42381534  0.09664833
   9.62557349 15.26271459  7.71570774
   9.64638541  7.67236159  7.71696731
   1.95372797  0.02237469 11.54928616
   1.91275010  7.79599613  3.80681843
   1.90111458  7.63571341 11.72241774
   9.62070559 15.36926186 11.45625233
   9.64573485  7.68065457  3.82260961
   9.66328556  7.63379234 11.60914760
   1.92706147  3.87535822 15.38624321
   1.90429323  3.74332260  7.73425594
   1.93094152 11.53454019  0.02523410
   1.91705282 11.49891180  7.66574103
   9.65587224  3.86314345 15.38552474
   1.92017701  3.69107736  3.91315593
   1.90566581 11.60405251 11.56732265
   9.66116835 11.61300223 11.55348577
   5.81667096  0.02507611  7.68417344
   5.76164010  7.67643257  0.08044680
  13.49773127  0.02274130  7.87455460
  13.49277872  7.70659878 15.37700844
   5.82045107 15.39143284  3.92843120
   5.78027731  7.66320184 11.46654255
  13.48102406  0.01164647  3.79153473
  13.48594871 15.30782256 11.43792515
   5.84084778  3.80431033  7.64622151
   5.81048301 11.63727086  0.01018580
   5.81615756 11.54344579  7.73361816
  13.48671691  3.90505102  7.74593236
  13.45734978 11.59885392 15.39853165
  13.46305230 11.52589433  7.74791528
   5.83088196  3.93330384  3.85346822
   5.80196924  3.86082846 11.64085294
   5.81911176 11.53207437  3.82972485
   5.78683301 11.66623013 11.56488595
  13.48312352  3.89060299  3.81980140
  13.48457864  3.93058582 11.56319190
  13.47984817 11.50890651  3.85499331
   0.07919723  1.95480631  0.02475065
  15.33719280  1.93544889  7.85330770
  15.36038916  9.64575155 15.35385122
  15.40968991  9.65981240  7.61308248
   7.80146982  1.92128203  0.00453967
   7.59077270  9.67992356  0.02020844
   7.77405568  9.66874295  7.71113147
  15.33662479  1.96358782  3.80200233
   0.01106328  9.61739825  3.95390137
   0.13096383  9.63448420 11.64364780
   7.75317881  9.66038425  3.89110955
   0.06952348  5.76135046  7.68055516
   7.67607514  5.74246927  7.76936897
   7.61144548 13.54540691  7.63876920
  15.37942985  5.77295598 11.58788536
  15.33291728 13.50960266  3.88787130
   0.02637704 13.50946921 11.53697184
   7.74176321  5.73826100  3.76131800
   7.67956909  5.75811713 11.53476260
   7.63666390 13.51452782  3.84633971
   7.76667720 13.50566747 11.65118781
   3.77062957  1.92520594 15.31837405
   3.91021903  1.91725167  7.66023370
   3.84278856  9.66320817  7.77556066
  11.44126428  1.94112917 15.42167234
  11.70648615  9.65107916  0.00742812
  11.52880119  9.64935935  7.69966645
   3.97660719  1.94802162  3.92078630
   3.88772918  1.91973044 11.69068479
   3.85783901  9.62305916  3.73620818
  11.65934846  1.93860095  3.88271975
  11.49995570  9.64574928  3.85642635
  11.43707502  9.64315491 11.56168743
   3.86291252  5.79974214 15.40479195
   3.82161354 13.48318063  0.05498789
  11.56410071  5.78169896 15.28898292
  11.58390116  5.74434772  7.59564177
  11.54141687 13.49738822  0.15820716
  11.67765736 13.51833048  7.79798285
   3.89400067  5.79751589 11.64720746
   3.94891596 13.50631795  3.86381853
   3.78930773 13.47599709 11.50311014
  11.57201085  5.77246031  4.02310848
  11.61295762  5.76534126 11.65126376
  11.66671100 13.50012662  3.71861048
  11.55625455 13.50262906 11.45114681
 


--------------------------------------------------------------------------------------------------------


 k-point  1 :   0.2500 0.2500 0.2500  plane waves:  154316
 k-point  2 :  -0.2500 0.2500 0.2500  plane waves:  154316
 k-point  3 :   0.2500-0.2500 0.2500  plane waves:  154316
 k-point  4 :  -0.2500-0.2500 0.2500  plane waves:  154316

 maximum and minimum number of plane-waves per node :     19350    19216

 maximum number of plane-waves:    154316
 maximum index in each direction: 
   IXMAX=   33   IYMAX=   33   IZMAX=   33
   IXMIN=  -33   IYMIN=  -33   IZMIN=  -33


 real space projection operators:
  total allocation   :     149130.67 KBytes
  max/ min on nodes  :      19732.14      17530.27


 parallel 3D FFT for wavefunctions:
    minimum data exchange during FFTs selected (reduces bandwidth)
 parallel 3D FFT for charge:
    minimum data exchange during FFTs selected (reduces bandwidth)


 total amount of memory used by VASP MPI-rank0   389209. kBytes
=======================================================================

   base      :      30000. kBytes
   nonlr-proj:      69324. kBytes
   fftplans  :      38736. kBytes
   grid      :      49123. kBytes
   one-center:        995. kBytes
   wavefun   :     201031. kBytes
 
     INWAV:  cpu time  121.7655: real time  160.8924
 Broyden mixing: mesh for mixing (old mesh)
   NGX = 67   NGY = 67   NGZ = 67
  (NGX  =280   NGY  =280   NGZ  =280)
  gives a total of 300763 points

 charge density for first step will be calculated from the start-wavefunctions


--------------------------------------------------------------------------------------------------------


 Maximum index for non-local projection operator         1578
 Maximum index for augmentation-charges         4480 (set IRDMAX)


--------------------------------------------------------------------------------------------------------


 initial charge from wavefunction
 First call to EWALD:  gamma=   0.115
 Maximum number of real-space cells 3x 3x 3
 Maximum number of reciprocal cells 3x 3x 3

    FEWALD:  cpu time    0.0230: real time    0.0227


--------------------------------------- Iteration      1(   1)  ---------------------------------------


    POTLOK:  cpu time    0.6829: real time    0.6986
    SETDIJ:  cpu time    2.3696: real time    2.3665
     EDDAV:  cpu time  125.8849: real time  125.3500
       DOS:  cpu time    0.0060: real time    0.0061
    CHARGE:  cpu time    8.2947: real time    8.2905
    MIXING:  cpu time    0.0080: real time    0.0084
    --------------------------------------------
      LOOP:  cpu time  137.2461: real time  136.7200

 eigenvalue-minimisations  : 11968
 total energy-change (2. order) :-0.1708794E+04  (-0.7522833E-07)
 number of electron    1920.0000027 magnetization      -0.0000000
 augmentation part      495.6230380 magnetization       0.0000000

 Broyden mixing:
  rms(total) = 0.25127E-03    rms(broyden)= 0.23908E-03
  rms(prec ) = 0.33653E-03
  weight for this iteration     100.00

 Free energy of the ion-electron system (eV)
  ---------------------------------------------------
  alpha Z        PSCENC =      6104.72554992
  Ewald energy   TEWEN  =   -102831.67521295
  -Hartree energ DENC   =    -65579.14259120
  -exchange      EXHF   =         0.00000000
  -V(xc)+E(xc)   XCENC  =      8958.90951972
  PAW double counting   =    144208.02588966  -145197.07016257
  entropy T*S    EENTRO =        -0.00000000
  eigenvalues    EBANDS =    -25791.39246545
  atomic energy  EATOM  =    178418.82573015
  Solvation  Ediel_sol  =         0.00000000
  ---------------------------------------------------
  free energy    TOTEN  =     -1708.79374272 eV

  energy without entropy =    -1708.79374272  energy(sigma->0) =    -1708.79374272


--------------------------------------------------------------------------------------------------------




--------------------------------------- Iteration      1(   2)  ---------------------------------------


    POTLOK:  cpu time    0.6809: real time    0.6985
    SETDIJ:  cpu time    2.3376: real time    2.3347
     EDDAV:  cpu time  142.6653: real time  142.0688
       DOS:  cpu time    0.0030: real time    0.0034
    --------------------------------------------
      LOOP:  cpu time  145.6869: real time  145.1054

 eigenvalue-minimisations  : 14528
 total energy-change (2. order) : 0.1706067E-06  (-0.1439176E-06)
 number of electron    1920.0000027 magnetization      -0.0000000
 augmentation part      495.6230380 magnetization       0.0000000

 Free energy of the ion-electron system (eV)
  ---------------------------------------------------
  alpha Z        PSCENC =      6104.72554992
  Ewald energy   TEWEN  =   -102831.67521295
  -Hartree energ DENC   =    -65579.14343800
  -exchange      EXHF   =         0.00000000
  -V(xc)+E(xc)   XCENC  =      8958.90940165
  PAW double counting   =    144208.02756576  -145197.07140600
  entropy T*S    EENTRO =        -0.00000000
  eigenvalues    EBANDS =    -25791.39193308
  atomic energy  EATOM  =    178418.82573015
  Solvation  Ediel_sol  =         0.00000000
  ---------------------------------------------------
  free energy    TOTEN  =     -1708.79374255 eV

  energy without entropy =    -1708.79374255  energy(sigma->0) =    -1708.79374255


--------------------------------------------------------------------------------------------------------




 average (electrostatic) potential at core
  the test charge radii are     1.0397  0.7215  0.7167
  (the norm of the test charge is              1.0000)
       1 -58.4418       2 -58.8242       3 -58.7762       4 -58.8590       5 -58.8143
       6 -59.7988       7 -58.4629       8 -58.6936       9 -58.8765      10 -58.6060
      11 -58.9349      12 -58.8371      13 -59.1048      14 -58.9065      15 -58.7584
      16 -58.6867      17 -58.8417      18 -59.5322      19 -58.5919      20 -58.8764
      21 -58.6259      22 -59.4535      23 -58.8352      24 -58.8839      25 -59.1147
      26 -58.7029      27 -58.6889      28 -58.8716      29 -59.1180      30 -58.9775
      31 -59.4677      32 -58.7983      33 -58.8143      34 -58.8438      35 -58.6831
      36 -58.4225      37 -58.6934      38 -59.1544      39 -58.6925      40 -58.9081
      41 -58.8272      42 -58.8767      43 -58.7463      44 -58.5996      45 -59.1669
      46 -58.8239      47 -58.8389      48 -58.8581      49 -58.7448      50 -58.6720
      51 -58.6709      52 -58.8239      53 -58.9036      54 -59.2451      55 -58.8564
      56 -59.0392      57 -58.7489      58 -58.7556      59 -58.7642      60 -58.7076
      61 -59.0011      62 -58.9171      63 -59.1525      64 -58.8856      65 -74.1703
      66 -74.0159      67 -73.8366      68 -73.9035      69 -73.8387      70 -73.8793
      71 -74.0299      72 -74.2696      73 -74.6050      74 -73.9774      75 -74.0368
      76 -73.9296      77 -73.9989      78 -74.0280      79 -74.3034      80 -74.0465
      81 -73.9450      82 -73.9154      83 -74.3784      84 -73.9570      85 -73.9010
      86 -74.2395      87 -74.1010      88 -73.8892      89 -73.8410      90 -74.0495
      91 -74.2732      92 -74.6696      93 -74.1731      94 -74.3090      95 -73.9727
      96 -73.9853      97 -74.4284      98 -74.1007      99 -74.3826     100 -73.9679
     101 -73.8505     102 -73.8629     103 -74.0083     104 -74.2367     105 -73.9606
     106 -74.0613     107 -74.1500     108 -73.9220     109 -74.0588     110 -74.2043
     111 -74.8999     112 -74.0675     113 -74.4748     114 -74.1164     115 -74.0016
     116 -73.9376     117 -73.7767     118 -74.2634     119 -73.8548     120 -74.0012
     121 -74.3452     122 -74.0218     123 -74.5272     124 -74.0314     125 -74.2121
     126 -73.8506     127 -73.9986     128 -74.0970     129 -78.3793     130 -78.3762
     131 -79.1586     132 -79.6475     133 -79.9140     134 -78.3444     135 -78.3226
     136 -79.0105     137 -78.9514     138 -79.9372     139 -79.5624     140 -79.1684
     141 -79.1218     142 -79.5829     143 -79.7478     144 -79.4180     145 -79.1984
     146 -78.3898     147 -78.3922     148 -79.8019     149 -79.4992     150 -79.2700
     151 -79.1275     152 -79.0314     153 -78.5963     154 -78.5973     155 -78.4337
     156 -78.4122     157 -78.8339     158 -78.7978     159 -78.4240     160 -78.4434
     161 -78.3909     162 -78.3402     163 -79.4414     164 -78.5548     165 -78.5888
     166 -78.3961     167 -78.3637     168 -79.2864     169 -79.1642     170 -78.3495
     171 -79.5765     172 -78.4009     173 -78.3072     174 -79.9196     175 -78.3511
     176 -78.9583     177 -78.4226     178 -78.9127     179 -79.0120     180 -78.4461
     181 -78.9129     182 -78.4144     183 -79.5010     184 -79.0492     185 -79.2141
     186 -78.4059     187 -79.3245     188 -78.9960     189 -79.0293     190 -79.8534
     191 -78.3162     192 -79.6658     193 -78.2524     194 -78.5948     195 -79.0568
     196 -78.5548     197 -79.1313     198 -79.2012     199 -78.9478     200 -79.1004
     201 -79.4781     202 -78.8981     203 -79.0907     204 -79.1138     205 -78.4586
     206 -78.5521     207 -79.1906     208 -79.2574     209 -78.5065     210 -78.6501
     211 -78.3042     212 -79.3277     213 -78.2972     214 -79.1346     215 -78.3715
     216 -78.3868     217 -79.3447     218 -79.0356     219 -79.0250     220 -79.2040
     221 -79.4306     222 -79.4694     223 -79.2993     224 -79.3353     225 -79.0187
     226 -79.1519     227 -78.9928     228 -79.1696     229 -78.5186     230 -79.3640
     231 -78.4989     232 -79.0621     233 -78.3718     234 -78.3826     235 -79.4055
     236 -79.3861     237 -79.3517     238 -78.9680     239 -79.1112     240 -78.9246
     241 -79.6463     242 -79.5927     243 -79.2451     244 -78.8460     245 -78.8880
     246 -79.4066     247 -79.2015     248 -79.3960     249 -79.2599     250 -78.8985
     251 -79.1256     252 -78.9366     253 -79.6005     254 -79.0383     255 -79.6418
     256 -79.0783
 
 
 
 E-fermi :  -0.7061     XC(G=0):  -9.0204     alpha+bet : -7.7004


 spin component 1

 k-point     1 :       0.2500    0.2500    0.2500
  band No.  band energies     occupation 
      1     -35.8133      1.00000
      2     -35.7913      1.00000
      3     -35.6188      1.00000
      4     -35.5091      1.00000
      5     -35.4897      1.00000
      6     -35.4817      1.00000
      7     -35.4403      1.00000
      8     -35.4194      1.00000
      9     -35.3478      1.00000
     10     -35.3295      1.00000
     11     -35.3074      1.00000
     12     -35.2305      1.00000
     13     -35.2237      1.00000
     14     -35.2108      1.00000
     15     -35.1838      1.00000
     16     -35.1604      1.00000
     17     -35.1531      1.00000
     18     -35.1528      1.00000
     19     -35.1426      1.00000
     20     -35.1166      1.00000
     21     -35.1050      1.00000
     22     -35.0621      1.00000
     23     -35.0525      1.00000
     24     -35.0426      1.00000
     25     -35.0228      1.00000
     26     -35.0213      1.00000
     27     -35.0162      1.00000
     28     -35.0063      1.00000
     29     -35.0017      1.00000
     30     -34.9875      1.00000
     31     -34.9798      1.00000
     32     -34.9731      1.00000
     33     -34.9710      1.00000
     34     -34.9675      1.00000
     35     -34.9598      1.00000
     36     -34.9491      1.00000
     37     -34.9401      1.00000
     38     -34.9270      1.00000
     39     -34.9251      1.00000
     40     -34.9216      1.00000
     41     -34.9167      1.00000
     42     -34.9152      1.00000
     43     -34.9107      1.00000
     44     -34.9095      1.00000
     45     -34.9083      1.00000
     46     -34.9038      1.00000
     47     -34.8951      1.00000
     48     -34.8832      1.00000
     49     -34.8830      1.00000
     50     -34.8805      1.00000
     51     -34.8770      1.00000
     52     -34.8746      1.00000
     53     -34.8613      1.00000
     54     -34.8569      1.00000
     55     -34.8556      1.00000
     56     -34.8540      1.00000
     57     -34.8536      1.00000
     58     -34.8494      1.00000
     59     -34.8468      1.00000
     60     -34.8408      1.00000
     61     -34.8325      1.00000
     62     -34.8298      1.00000
     63     -34.8255      1.00000
     64     -34.8232      1.00000
     65     -34.8228      1.00000
     66     -34.8216      1.00000
     67     -34.8181      1.00000
     68     -34.8015      1.00000
     69     -34.8010      1.00000
     70     -34.7986      1.00000
     71     -34.7933      1.00000
     72     -34.7911      1.00000
     73     -34.7882      1.00000
     74     -34.7872      1.00000
     75     -34.7833      1.00000
     76     -34.7802      1.00000
     77     -34.7693      1.00000
     78     -34.7642      1.00000
     79     -34.7582      1.00000
     80     -34.7550      1.00000
     81     -34.7531      1.00000
     82     -34.7500      1.00000
     83     -34.7493      1.00000
     84     -34.7466      1.00000
     85     -34.7462      1.00000
     86     -34.7441      1.00000
     87     -34.7415      1.00000
     88     -34.7357      1.00000
     89     -34.7355      1.00000
     90     -34.7336      1.00000
     91     -34.7310      1.00000
     92     -34.7295      1.00000
     93     -34.7287      1.00000
     94     -34.7278      1.00000
     95     -34.7265      1.00000
     96     -34.7240      1.00000
     97     -34.7219      1.00000
     98     -34.7196      1.00000
     99     -34.7155      1.00000
    100     -34.7149      1.00000
    101     -34.7134      1.00000
    102     -34.7116      1.00000
    103     -34.7075      1.00000
    104     -34.7053      1.00000
    105     -34.7030      1.00000
    106     -34.6990      1.00000
    107     -34.6971      1.00000
    108     -34.6946      1.00000
    109     -34.6927      1.00000
    110     -34.6894      1.00000
    111     -34.6869      1.00000
    112     -34.6852      1.00000
    113     -34.6851      1.00000
    114     -34.6832      1.00000
    115     -34.6817      1.00000
    116     -34.6774      1.00000
    117     -34.6769      1.00000
    118     -34.6741      1.00000
    119     -34.6723      1.00000
    120     -34.6699      1.00000
    121     -34.6662      1.00000
    122     -34.6655      1.00000
    123     -34.6628      1.00000
    124     -34.6623      1.00000
    125     -34.6620      1.00000
    126     -34.6579      1.00000
    127     -34.6576      1.00000
    128     -34.6571      1.00000
    129     -34.6546      1.00000
    130     -34.6477      1.00000
    131     -34.6461      1.00000
    132     -34.6459      1.00000
    133     -34.6421      1.00000
    134     -34.6350      1.00000
    135     -34.6309      1.00000
    136     -34.6289      1.00000
    137     -34.6274      1.00000
    138     -34.6217      1.00000
    139     -34.6203      1.00000
    140     -34.6167      1.00000
    141     -34.6122      1.00000
    142     -34.6082      1.00000
    143     -34.6071      1.00000
    144     -34.6054      1.00000
    145     -34.6014      1.00000
    146     -34.6007      1.00000
    147     -34.5999      1.00000
    148     -34.5978      1.00000
    149     -34.5926      1.00000
    150     -34.5913      1.00000
    151     -34.5854      1.00000
    152     -34.5826      1.00000
    153     -34.5802      1.00000
    154     -34.5767      1.00000
    155     -34.5756      1.00000
    156     -34.5739      1.00000
    157     -34.5551      1.00000
    158     -34.5519      1.00000
    159     -34.5516      1.00000
    160     -34.5473      1.00000
    161     -34.5454      1.00000
    162     -34.5430      1.00000
    163     -34.5410      1.00000
    164     -34.5390      1.00000
    165     -34.5310      1.00000
    166     -34.5264      1.00000
    167     -34.5183      1.00000
    168     -34.5147      1.00000
    169     -34.5145      1.00000
    170     -34.5073      1.00000
    171     -34.5058      1.00000
    172     -34.5021      1.00000
    173     -34.5015      1.00000
    174     -34.4965      1.00000
    175     -34.4918      1.00000
    176     -34.4896      1.00000
    177     -34.4885      1.00000
    178     -34.4882      1.00000
    179     -34.4667      1.00000
    180     -34.4559      1.00000
    181     -34.4466      1.00000
    182     -34.4448      1.00000
    183     -34.4133      1.00000
    184     -34.3329      1.00000
    185     -34.3212      1.00000
    186     -34.3142      1.00000
    187     -34.3038      1.00000
    188     -34.2995      1.00000
    189     -34.2881      1.00000
    190     -34.2858      1.00000
    191     -34.2791      1.00000
    192     -34.2762      1.00000
    193     -23.8487      1.00000
    194     -23.6478      1.00000
    195     -23.6337      1.00000
    196     -23.5192      1.00000
    197     -23.5024      1.00000
    198     -23.4795      1.00000
    199     -23.3982      1.00000
    200     -23.3935      1.00000
    201     -23.3748      1.00000
    202     -23.3151      1.00000
    203     -23.3022      1.00000
    204     -23.2920      1.00000
    205     -23.2879      1.00000
    206     -23.2343      1.00000
    207     -23.2097      1.00000
    208     -23.1802      1.00000
    209     -23.1713      1.00000
    210     -23.1631      1.00000
    211     -23.1538      1.00000
    212     -23.1366      1.00000
    213     -23.1346      1.00000
    214     -23.1087      1.00000
    215     -23.0911      1.00000
    216     -23.0838      1.00000
    217     -23.0558      1.00000
    218     -23.0316      1.00000
    219     -23.0267      1.00000
    220     -23.0221      1.00000
    221     -23.0140      1.00000
    222     -23.0032      1.00000
    223     -22.9882      1.00000
    224     -22.9755      1.00000
    225     -22.9680      1.00000
    226     -22.9588      1.00000
    227     -22.9524      1.00000
    228     -22.9409      1.00000
    229     -22.9326      1.00000
    230     -22.9159      1.00000
    231     -22.9086      1.00000
    232     -22.9004      1.00000
    233     -22.8925      1.00000
    234     -22.8873      1.00000
    235     -22.8785      1.00000
    236     -22.8682      1.00000
    237     -22.8487      1.00000
    238     -22.8451      1.00000
    239     -22.8370      1.00000
    240     -22.8310      1.00000
    241     -22.8169      1.00000
    242     -22.8102      1.00000
    243     -22.8005      1.00000
    244     -22.7877      1.00000
    245     -22.7850      1.00000
    246     -22.7776      1.00000
    247     -22.7669      1.00000
    248     -22.7513      1.00000
    249     -22.7461      1.00000
    250     -22.7359      1.00000
    251     -22.7189      1.00000
    252     -22.7070      1.00000
    253     -22.6906      1.00000
    254     -22.6833      1.00000
    255     -22.6742      1.00000
    256     -22.6528      1.00000
    257     -22.6427      1.00000
    258     -22.6360      1.00000
    259     -22.6166      1.00000
    260     -22.6136      1.00000
    261     -22.6060      1.00000
    262     -22.5905      1.00000
    263     -22.5899      1.00000
    264     -22.5853      1.00000
    265     -22.5541      1.00000
    266     -22.5478      1.00000
    267     -22.5442      1.00000
    268     -22.5315      1.00000
    269     -22.5293      1.00000
    270     -22.5111      1.00000
    271     -22.4973      1.00000
    272     -22.4873      1.00000
    273     -22.4577      1.00000
    274     -22.4514      1.00000
    275     -22.4413      1.00000
    276     -22.4306      1.00000
    277     -22.3968      1.00000
    278     -22.3448      1.00000
    279     -22.3315      1.00000
    280     -22.3000      1.00000
    281     -22.2642      1.00000
    282     -22.2498      1.00000
    283     -22.2271      1.00000
    284     -22.2155      1.00000
    285     -22.2136      1.00000
    286     -22.1924      1.00000
    287     -22.1849      1.00000
    288     -22.1742      1.00000
    289     -22.1495      1.00000
    290     -22.1467      1.00000
    291     -22.1350      1.00000
    292     -22.1287      1.00000
    293     -22.1200      1.00000
    294     -22.1166      1.00000
    295     -22.1125      1.00000
    296     -22.1058      1.00000
    297     -22.0970      1.00000
    298     -22.0822      1.00000
    299     -22.0693      1.00000
    300     -22.0651      1.00000
    301     -22.0641      1.00000
    302     -22.0619      1.00000
    303     -22.0481      1.00000
    304     -22.0312      1.00000
    305     -22.0302      1.00000
    306     -22.0262      1.00000
    307     -22.0229      1.00000
    308     -22.0203      1.00000
    309     -22.0115      1.00000
    310     -21.9746      1.00000
    311     -21.9624      1.00000
    312     -21.9561      1.00000
    313     -21.9533      1.00000
    314     -21.9444      1.00000
    315     -21.9414      1.00000
    316     -21.9238      1.00000
    317     -21.9200      1.00000
    318     -21.9151      1.00000
    319     -21.8980      1.00000
    320     -21.8612      1.00000
    321     -17.3870      1.00000
    322     -17.1629      1.00000
    323     -17.0874      1.00000
    324     -17.0560      1.00000
    325     -17.0040      1.00000
    326     -16.9350      1.00000
    327     -16.9140      1.00000
    328     -16.8543      1.00000
    329     -16.8305      1.00000
    330     -16.8199      1.00000
    331     -16.8080      1.00000
    332     -16.7938      1.00000
    333     -16.7873      1.00000
    334     -16.7642      1.00000
    335     -16.7566      1.00000
    336     -16.7538      1.00000
    337     -16.7359      1.00000
    338     -16.7007      1.00000
[...]
   79        1.568   3.462   0.000   5.031
   80        1.568   3.464   0.000   5.031
   81        1.568   3.465   0.000   5.033
   82        1.568   3.464   0.000   5.032
   83        1.570   3.477   0.000   5.047
   84        1.569   3.466   0.000   5.035
   85        1.569   3.469   0.000   5.038
   86        1.569   3.466   0.000   5.035
   87        1.568   3.468   0.000   5.037
   88        1.569   3.466   0.000   5.035
   89        1.569   3.462   0.000   5.031
   90        1.568   3.464   0.000   5.032
   91        1.568   3.464   0.000   5.032
   92        1.571   3.476   0.000   5.047
   93        1.571   3.476   0.000   5.046
   94        1.570   3.479   0.000   5.049
   95        1.568   3.467   0.000   5.035
   96        1.569   3.469   0.000   5.037
   97        1.570   3.479   0.000   5.049
   98        1.568   3.466   0.000   5.035
   99        1.569   3.460   0.000   5.030
  100        1.568   3.462   0.000   5.030
  101        1.569   3.464   0.000   5.033
  102        1.570   3.462   0.000   5.032
  103        1.568   3.465   0.000   5.033
  104        1.570   3.475   0.000   5.045
  105        1.569   3.466   0.000   5.035
  106        1.569   3.465   0.000   5.034
  107        1.570   3.477   0.000   5.047
  108        1.569   3.466   0.000   5.035
  109        1.569   3.464   0.000   5.033
  110        1.570   3.476   0.000   5.046
  111        1.571   3.469   0.000   5.040
  112        1.570   3.476   0.000   5.047
  113        1.571   3.480   0.000   5.051
  114        1.568   3.468   0.000   5.036
  115        1.568   3.466   0.000   5.034
  116        1.569   3.464   0.000   5.033
  117        1.569   3.465   0.000   5.035
  118        1.570   3.479   0.000   5.049
  119        1.569   3.464   0.000   5.033
  120        1.569   3.468   0.000   5.036
  121        1.570   3.472   0.000   5.042
  122        1.571   3.477   0.000   5.048
  123        1.570   3.476   0.000   5.046
  124        1.570   3.478   0.000   5.047
  125        1.570   3.474   0.000   5.043
  126        1.569   3.462   0.000   5.031
  127        1.568   3.464   0.000   5.032
  128        1.570   3.474   0.000   5.044
  129        1.729   4.373   0.000   6.102
  130        1.729   4.374   0.000   6.102
  131        1.729   4.383   0.000   6.113
  132        1.730   4.392   0.000   6.123
  133        1.731   4.389   0.000   6.119
  134        1.729   4.373   0.000   6.102
  135        1.728   4.372   0.000   6.100
  136        1.731   4.384   0.000   6.114
  137        1.730   4.385   0.000   6.116
  138        1.731   4.393   0.000   6.124
  139        1.731   4.391   0.000   6.122
  140        1.730   4.385   0.000   6.115
  141        1.730   4.384   0.000   6.114
  142        1.730   4.392   0.000   6.122
  143        1.731   4.391   0.000   6.122
  144        1.730   4.386   0.000   6.116
  145        1.729   4.386   0.000   6.115
  146        1.728   4.373   0.000   6.101
  147        1.728   4.372   0.000   6.100
  148        1.731   4.392   0.000   6.123
  149        1.730   4.393   0.000   6.123
  150        1.730   4.380   0.000   6.110
  151        1.730   4.384   0.000   6.114
  152        1.730   4.386   0.000   6.116
  153        1.729   4.375   0.000   6.103
  154        1.729   4.375   0.000   6.105
  155        1.729   4.373   0.000   6.102
  156        1.729   4.372   0.000   6.100
  157        1.730   4.380   0.000   6.110
  158        1.730   4.380   0.000   6.110
  159        1.729   4.372   0.000   6.101
  160        1.728   4.374   0.000   6.103
  161        1.728   4.373   0.000   6.102
  162        1.728   4.371   0.000   6.099
  163        1.730   4.384   0.000   6.114
  164        1.729   4.373   0.000   6.101
  165        1.728   4.373   0.000   6.101
  166        1.729   4.374   0.000   6.102
  167        1.729   4.374   0.000   6.103
  168        1.730   4.382   0.000   6.112
  169        1.730   4.384   0.000   6.114
  170        1.729   4.374   0.000   6.103
  171        1.731   4.392   0.000   6.122
  172        1.729   4.375   0.000   6.105
  173        1.729   4.373   0.000   6.102
  174        1.730   4.388   0.000   6.119
  175        1.729   4.371   0.000   6.100
  176        1.730   4.384   0.000   6.114
  177        1.729   4.373   0.000   6.102
  178        1.730   4.381   0.000   6.111
  179        1.730   4.383   0.000   6.113
  180        1.728   4.373   0.000   6.101
  181        1.730   4.382   0.000   6.112
  182        1.729   4.373   0.000   6.102
  183        1.730   4.384   0.000   6.114
  184        1.729   4.386   0.000   6.116
  185        1.730   4.386   0.000   6.116
  186        1.729   4.375   0.000   6.104
  187        1.730   4.384   0.000   6.114
  188        1.730   4.385   0.000   6.116
  189        1.730   4.385   0.000   6.115
  190        1.731   4.392   0.000   6.123
  191        1.729   4.374   0.000   6.103
  192        1.731   4.393   0.000   6.124
  193        1.729   4.372   0.000   6.101
  194        1.729   4.374   0.000   6.103
  195        1.729   4.386   0.000   6.115
  196        1.729   4.373   0.000   6.102
  197        1.729   4.383   0.000   6.113
  198        1.730   4.386   0.000   6.116
  199        1.730   4.385   0.000   6.115
  200        1.730   4.385   0.000   6.115
  201        1.730   4.384   0.000   6.114
  202        1.730   4.385   0.000   6.115
  203        1.730   4.383   0.000   6.113
  204        1.729   4.383   0.000   6.113
  205        1.729   4.372   0.000   6.100
  206        1.729   4.373   0.000   6.102
  207        1.729   4.385   0.000   6.115
  208        1.730   4.383   0.000   6.113
  209        1.729   4.373   0.000   6.102
  210        1.729   4.375   0.000   6.104
  211        1.729   4.373   0.000   6.101
  212        1.731   4.379   0.000   6.110
  213        1.728   4.371   0.000   6.100
  214        1.730   4.385   0.000   6.115
  215        1.728   4.372   0.000   6.101
  216        1.729   4.372   0.000   6.101
  217        1.729   4.387   0.000   6.116
  218        1.730   4.383   0.000   6.114
  219        1.730   4.385   0.000   6.115
  220        1.730   4.385   0.000   6.115
  221        1.730   4.385   0.000   6.115
  222        1.730   4.385   0.000   6.115
  223        1.730   4.388   0.000   6.118
  224        1.730   4.387   0.000   6.117
  225        1.730   4.383   0.000   6.113
  226        1.729   4.384   0.000   6.113
  227        1.730   4.382   0.000   6.112
  228        1.730   4.385   0.000   6.114
  229        1.729   4.373   0.000   6.102
  230        1.730   4.382   0.000   6.112
  231        1.729   4.373   0.000   6.102
  232        1.730   4.385   0.000   6.115
  233        1.729   4.374   0.000   6.102
  234        1.729   4.374   0.000   6.103
  235        1.731   4.392   0.000   6.123
  236        1.731   4.391   0.000   6.122
  237        1.729   4.386   0.000   6.115
  238        1.730   4.382   0.000   6.113
  239        1.730   4.384   0.000   6.114
  240        1.730   4.382   0.000   6.112
  241        1.730   4.392   0.000   6.122
  242        1.730   4.392   0.000   6.122
  243        1.730   4.385   0.000   6.114
  244        1.730   4.383   0.000   6.113
  245        1.730   4.382   0.000   6.112
  246        1.730   4.391   0.000   6.121
  247        1.730   4.384   0.000   6.114
  248        1.730   4.390   0.000   6.120
  249        1.730   4.384   0.000   6.114
  250        1.730   4.384   0.000   6.114
  251        1.730   4.385   0.000   6.114
  252        1.730   4.383   0.000   6.113
  253        1.731   4.392   0.000   6.123
  254        1.730   4.382   0.000   6.112
  255        1.731   4.390   0.000   6.121
  256        1.730   4.383   0.000   6.113
--------------------------------------------------
tot        342.2341196.427 112.8381651.499
 


 magnetization (x)
 
# of ion       s       p       d       tot
------------------------------------------
    1       -0.000   0.000   0.000   0.000
    2        0.000   0.000  -0.000   0.000
    3        0.000   0.000  -0.000   0.000
    4        0.000  -0.000   0.000   0.000
    5       -0.000  -0.000  -0.000  -0.000
    6       -0.000   0.000   0.000   0.000
    7       -0.000   0.000  -0.000  -0.000
    8        0.000   0.000  -0.000   0.000
    9       -0.000  -0.000   0.000  -0.000
   10        0.000  -0.000  -0.000  -0.000
   11        0.000  -0.000  -0.000  -0.000
   12        0.000  -0.000  -0.000  -0.000
   13       -0.000   0.000   0.000   0.000
   14       -0.000   0.000  -0.000  -0.000
   15        0.000   0.000  -0.000   0.000
   16        0.000  -0.000  -0.000  -0.000
   17       -0.000   0.000  -0.000  -0.000
   18        0.000   0.000   0.000   0.000
   19       -0.000  -0.000  -0.000  -0.000
   20        0.000  -0.000  -0.000   0.000
   21       -0.000  -0.000   0.000   0.000
   22        0.000   0.000  -0.000   0.000
   23       -0.000   0.000   0.000  -0.000
   24        0.000   0.000  -0.000   0.000
   25        0.000  -0.000   0.000   0.000
   26       -0.000  -0.000   0.000  -0.000
   27        0.000   0.000  -0.000   0.000
   28        0.000  -0.000  -0.000  -0.000
   29       -0.000  -0.000   0.000   0.000
   30        0.000   0.000   0.000   0.000
   31       -0.000  -0.000   0.000  -0.000
   32        0.000   0.000  -0.000   0.000
   33       -0.000  -0.000  -0.000  -0.000
   34        0.000  -0.000  -0.000  -0.000
   35        0.000  -0.000  -0.000  -0.000
   36        0.000   0.000  -0.000   0.000
   37        0.000  -0.000  -0.000  -0.000
   38        0.000  -0.000  -0.000  -0.000
   39       -0.000  -0.000  -0.000  -0.000
   40        0.000  -0.000   0.000   0.000
   41        0.000  -0.000  -0.000  -0.000
   42        0.000  -0.000   0.000   0.000
   43        0.000   0.000  -0.000   0.000
   44       -0.000   0.000   0.000  -0.000
   45       -0.000  -0.000   0.000   0.000
   46       -0.000   0.000   0.000   0.000
   47       -0.000  -0.000  -0.000  -0.000
   48       -0.000  -0.000   0.000  -0.000
   49        0.000  -0.000   0.000   0.000
   50       -0.000  -0.000  -0.000  -0.000
   51        0.000  -0.000  -0.000  -0.000
   52        0.000  -0.000  -0.000  -0.000
   53       -0.000   0.000  -0.000  -0.000
   54        0.000  -0.000  -0.000  -0.000
   55       -0.000   0.000  -0.000  -0.000
   56       -0.000   0.000   0.000   0.000
   57        0.000   0.000   0.000   0.000
   58       -0.000  -0.000  -0.000  -0.000
   59        0.000  -0.000  -0.000  -0.000
   60       -0.000  -0.000  -0.000  -0.000
   61       -0.000  -0.000   0.000   0.000
   62        0.000   0.000   0.000   0.000
   63        0.000  -0.000  -0.000  -0.000
   64        0.000   0.000   0.000   0.000
   65       -0.000  -0.000   0.000  -0.000
   66        0.000  -0.000   0.000  -0.000
   67        0.000   0.000   0.000   0.000
   68        0.000  -0.000   0.000   0.000
   69        0.000   0.000   0.000   0.000
   70        0.000   0.000   0.000   0.000
   71       -0.000   0.000   0.000   0.000
   72        0.000  -0.000   0.000   0.000
   73        0.000   0.000   0.000   0.000
   74       -0.000  -0.000   0.000  -0.000
   75       -0.000  -0.000   0.000  -0.000
   76        0.000   0.000   0.000   0.000
   77        0.000   0.000   0.000   0.000
   78        0.000  -0.000   0.000  -0.000
   79        0.000   0.000   0.000   0.000
   80        0.000  -0.000   0.000  -0.000
   81        0.000  -0.000   0.000   0.000
   82        0.000   0.000   0.000   0.000
   83       -0.000  -0.000   0.000  -0.000
   84        0.000   0.000   0.000   0.000
   85        0.000   0.000   0.000   0.000
   86        0.000   0.000   0.000   0.000
   87       -0.000  -0.000   0.000  -0.000
   88        0.000   0.000   0.000   0.000
   89        0.000  -0.000   0.000   0.000
   90       -0.000   0.000   0.000   0.000
   91       -0.000   0.000   0.000  -0.000
   92        0.000   0.000   0.000   0.000
   93       -0.000   0.000   0.000   0.000
   94       -0.000  -0.000   0.000  -0.000
   95        0.000   0.000   0.000   0.000
   96       -0.000   0.000   0.000   0.000
   97       -0.000  -0.000   0.000  -0.000
   98       -0.000  -0.000   0.000  -0.000
   99        0.000   0.000   0.000   0.000
  100        0.000   0.000   0.000   0.000
  101       -0.000   0.000   0.000   0.000
  102       -0.000   0.000   0.000   0.000
  103       -0.000  -0.000   0.000  -0.000
  104        0.000   0.000   0.000   0.000
  105        0.000   0.000   0.000   0.000
  106        0.000   0.000   0.000   0.000
  107       -0.000   0.000   0.000   0.000
  108       -0.000  -0.000   0.000  -0.000
  109       -0.000   0.000   0.000   0.000
  110        0.000   0.000   0.000   0.000
  111       -0.000  -0.000   0.000  -0.000
  112        0.000   0.000   0.000   0.000
  113       -0.000  -0.000   0.000  -0.000
  114        0.000   0.000   0.000   0.000
  115        0.000   0.000   0.000   0.000
  116        0.000   0.000   0.000   0.000
  117        0.000  -0.000   0.000  -0.000
  118       -0.000   0.000   0.000   0.000
  119        0.000  -0.000   0.000   0.000
  120        0.000   0.000   0.000   0.000
  121       -0.000   0.000   0.000   0.000
  122        0.000   0.000   0.000   0.000
  123       -0.000  -0.000   0.000  -0.000
  124       -0.000   0.000   0.000  -0.000
  125        0.000   0.000   0.000   0.000
  126        0.000  -0.000   0.000  -0.000
  127       -0.000  -0.000   0.000  -0.000
  128       -0.000   0.000   0.000  -0.000
  129       -0.000  -0.000   0.000  -0.000
  130       -0.000   0.000   0.000  -0.000
  131        0.000   0.000   0.000   0.000
  132        0.000   0.000   0.000   0.000
  133        0.000  -0.000   0.000   0.000
  134        0.000  -0.000   0.000  -0.000
  135       -0.000  -0.000   0.000  -0.000
  136       -0.000   0.000   0.000   0.000
  137        0.000   0.000   0.000   0.000
  138        0.000   0.000   0.000   0.000
  139        0.000   0.000   0.000   0.000
  140       -0.000  -0.000   0.000  -0.000
  141       -0.000  -0.000   0.000  -0.000
  142       -0.000  -0.000   0.000  -0.000
  143       -0.000   0.000   0.000  -0.000
  144       -0.000   0.000   0.000   0.000
  145       -0.000  -0.000   0.000  -0.000
  146        0.000   0.000   0.000   0.000
  147       -0.000  -0.000   0.000  -0.000
  148       -0.000   0.000   0.000   0.000
  149       -0.000  -0.000   0.000  -0.000
  150        0.000  -0.000   0.000   0.000
  151       -0.000  -0.000   0.000  -0.000
  152        0.000   0.000   0.000   0.000
  153       -0.000  -0.000   0.000  -0.000
  154       -0.000   0.000   0.000   0.000
  155       -0.000  -0.000   0.000  -0.000
  156        0.000   0.000   0.000   0.000
  157       -0.000   0.000   0.000   0.000
  158       -0.000  -0.000   0.000  -0.000
  159        0.000  -0.000   0.000  -0.000
  160        0.000   0.000   0.000   0.000
  161       -0.000  -0.000   0.000  -0.000
  162        0.000   0.000   0.000   0.000
  163       -0.000  -0.000   0.000  -0.000
  164        0.000   0.000   0.000   0.000
  165        0.000   0.000   0.000   0.000
  166       -0.000  -0.000   0.000  -0.000
  167        0.000   0.000   0.000   0.000
  168        0.000  -0.000   0.000   0.000
  169        0.000   0.000   0.000   0.000
  170       -0.000   0.000   0.000   0.000
  171       -0.000   0.000   0.000  -0.000
  172       -0.000  -0.000   0.000  -0.000
  173       -0.000   0.000   0.000   0.000
  174       -0.000   0.000   0.000   0.000
  175        0.000   0.000   0.000   0.000
  176        0.000   0.000   0.000   0.000
  177        0.000   0.000   0.000   0.000
  178        0.000   0.000   0.000   0.000
  179        0.000   0.000   0.000   0.000
  180       -0.000   0.000   0.000   0.000
  181        0.000   0.000   0.000   0.000
  182        0.000  -0.000   0.000  -0.000
  183       -0.000   0.000   0.000  -0.000
  184        0.000   0.000   0.000   0.000
  185        0.000   0.000   0.000   0.000
  186       -0.000   0.000   0.000  -0.000
  187       -0.000   0.000   0.000   0.000
  188        0.000   0.000   0.000   0.000
  189        0.000   0.000   0.000   0.000
  190       -0.000  -0.000   0.000  -0.000
  191        0.000   0.000   0.000   0.000
  192        0.000   0.000   0.000   0.000
  193        0.000   0.000   0.000   0.000
  194        0.000  -0.000   0.000  -0.000
  195       -0.000  -0.000   0.000  -0.000
  196        0.000   0.000   0.000   0.000
  197       -0.000   0.000   0.000  -0.000
  198        0.000  -0.000   0.000  -0.000
  199        0.000   0.000   0.000   0.000
  200        0.000   0.000   0.000   0.000
  201        0.000   0.000   0.000   0.000
  202       -0.000   0.000   0.000   0.000
  203        0.000  -0.000   0.000   0.000
  204        0.000   0.000   0.000   0.000
  205        0.000  -0.000   0.000  -0.000
  206        0.000  -0.000   0.000  -0.000
  207        0.000  -0.000   0.000  -0.000
  208        0.000   0.000   0.000   0.000
  209       -0.000   0.000   0.000   0.000
  210       -0.000   0.000   0.000   0.000
  211       -0.000  -0.000   0.000  -0.000
  212       -0.000  -0.000   0.000  -0.000
  213        0.000   0.000   0.000   0.000
  214       -0.000   0.000   0.000   0.000
  215       -0.000  -0.000   0.000  -0.000
  216       -0.000   0.000   0.000  -0.000
  217        0.000   0.000   0.000   0.000
  218       -0.000   0.000   0.000   0.000
  219       -0.000  -0.000   0.000  -0.000
  220        0.000  -0.000   0.000  -0.000
  221       -0.000   0.000   0.000  -0.000
  222       -0.000   0.000   0.000  -0.000
  223       -0.000   0.000   0.000   0.000
  224       -0.000   0.000   0.000  -0.000
  225        0.000   0.000   0.000   0.000
  226        0.000   0.000   0.000   0.000
  227        0.000   0.000   0.000   0.000
  228        0.000  -0.000   0.000  -0.000
  229        0.000  -0.000   0.000  -0.000
  230        0.000  -0.000   0.000  -0.000
  231       -0.000  -0.000   0.000  -0.000
  232       -0.000  -0.000   0.000  -0.000
  233        0.000   0.000   0.000   0.000
  234       -0.000   0.000   0.000   0.000
  235        0.000   0.000   0.000   0.000
  236        0.000   0.000   0.000   0.000
  237        0.000  -0.000   0.000   0.000
  238       -0.000  -0.000   0.000  -0.000
  239        0.000   0.000   0.000   0.000
  240       -0.000  -0.000   0.000  -0.000
  241        0.000  -0.000   0.000   0.000
  242        0.000  -0.000   0.000  -0.000
  243       -0.000  -0.000   0.000  -0.000
  244       -0.000   0.000   0.000   0.000
  245        0.000   0.000   0.000   0.000
  246        0.000  -0.000   0.000  -0.000
  247        0.000   0.000   0.000   0.000
  248        0.000   0.000   0.000   0.000
  249        0.000   0.000   0.000   0.000
  250       -0.000   0.000   0.000   0.000
  251       -0.000  -0.000   0.000  -0.000
  252        0.000   0.000   0.000   0.000
  253        0.000  -0.000   0.000  -0.000
  254        0.000   0.000   0.000   0.000
  255        0.000  -0.000   0.000  -0.000
  256        0.000   0.000   0.000   0.000
--------------------------------------------------
tot          0.000   0.000  -0.000   0.000
 

 total amount of memory used by VASP MPI-rank0   389209. kBytes
=======================================================================

   base      :      30000. kBytes
   nonlr-proj:      69324. kBytes
   fftplans  :      38736. kBytes
   grid      :      49123. kBytes
   one-center:        995. kBytes
   wavefun   :     201031. kBytes
 
  
  
 General timing and accounting informations for this job:
 ========================================================
  
                  Total CPU time used (sec):      982.468
                            User time (sec):      935.975
                          System time (sec):       46.493
                         Elapsed time (sec):     1035.866
  
                   Maximum memory used (kb):      704828.
                   Average memory used (kb):           0.
  
                          Minor page faults:        33691
                          Major page faults:            2
                 Voluntary context switches:       446092
