 vasp.5.4.4.18Apr17-6-g9f103f2a35 (build Apr 30 2017 20:10:35) complex          
  
 executed on             LinuxIFC date 2017.08.05  14:20:39
 running on   64 total cores
 distrk:  each k-point on   64 cores,    1 groups
 distr:  one band on NCORES_PER_BAND=   8 cores,    8 groups


--------------------------------------------------------------------------------------------------------


 INCAR:
 POTCAR:   PAW_PBE Ti_pv 07Sep2000                
 POTCAR:   PAW_PBE O 08Apr2002                    
 POTCAR:    PAW_PBE F 08Apr2002                   
 POTCAR:   PAW_PBE Ti_pv 07Sep2000                
   VRHFIN =Ti: d3 s1                                                            
   LEXCH  = PE                                                                  
   EATOM  =  1042.3781 eV,   76.6126 Ry                                         
                                                                                
   TITEL  = PAW_PBE Ti_pv 07Sep2000                                             
   LULTRA =        F    use ultrasoft PP ?                                      
   IUNSCR =        1    unscreen: 0-lin 1-nonlin 2-no                           
   RPACOR =    2.200    partial core radius                                     
   POMASS =   47.880; ZVAL   =   10.000    mass and valenz                      
   RCORE  =    2.500    outmost cutoff radius                                   
   RWIGS  =    2.500; RWIGS  =    1.323    wigner-seitz radius (au A)           
   ENMAX  =  222.338; ENMIN  =  166.753 eV                                      
   RCLOC  =    1.701    cutoff for local pot                                    
   LCOR   =        T    correct aug charges                                     
   LPAW   =        T    paw PP                                                  
   EAUG   =  482.848                                                            
   DEXC   =    -.008                                                            
   RMAX   =    3.092    core radius for proj-oper                               
   RAUG   =    1.300    factor for augmentation sphere                          
   RDEP   =    2.538    radius for radial grids                                 
   QCUT   =   -4.042; QGAM   =    8.085    optimization parameters              
                                                                                
   Description                                                                  
     l     E      TYP  RCUT    TYP  RCUT                                        
     1   .000     23  2.300                                                     
     1  -.100     23  2.300                                                     
     2   .000     23  2.500                                                     
     2   .000     23  2.500                                                     
     0   .000     23  2.500                                                     
     0  1.500     23  2.500                                                     
     3   .000      7   .000                                                     
  local pseudopotential read in
  partial core-charges read in
  atomic valenz-charges read in
  non local Contribution for L=           1  read in
    real space projection operators read in
  non local Contribution for L=           1  read in
    real space projection operators read in
  non local Contribution for L=           2  read in
    real space projection operators read in
  non local Contribution for L=           2  read in
    real space projection operators read in
  non local Contribution for L=           0  read in
    real space projection operators read in
  non local Contribution for L=           0  read in
    real space projection operators read in
    PAW grid and wavefunctions read in
 
   number of l-projection  operators is LMAX  =           6
   number of lm-projection operators is LMMAX =          18
 
 POTCAR:   PAW_PBE O 08Apr2002                    
   VRHFIN =O: s2p4                                                              
   LEXCH  = PE                                                                  
   EATOM  =   432.3788 eV,   31.7789 Ry                                         
                                                                                
   TITEL  = PAW_PBE O 08Apr2002                                                 
   LULTRA =        F    use ultrasoft PP ?                                      
   IUNSCR =        0    unscreen: 0-lin 1-nonlin 2-no                           
   RPACOR =     .000    partial core radius                                     
   POMASS =   16.000; ZVAL   =    6.000    mass and valenz                      
   RCORE  =    1.520    outmost cutoff radius                                   
   RWIGS  =    1.550; RWIGS  =     .820    wigner-seitz radius (au A)           
   ENMAX  =  400.000; ENMIN  =  300.000 eV                                      
   ICORE  =        2    local potential                                         
   LCOR   =        T    correct aug charges                                     
   LPAW   =        T    paw PP                                                  
   EAUG   =  605.392                                                            
   DEXC   =     .000                                                            
   RMAX   =    2.264    core radius for proj-oper                               
   RAUG   =    1.300    factor for augmentation sphere                          
   RDEP   =    1.550    radius for radial grids                                 
   QCUT   =   -5.520; QGAM   =   11.041    optimization parameters              
                                                                                
   Description                                                                  
     l     E      TYP  RCUT    TYP  RCUT                                        
     0   .000     23  1.200                                                     
     0  -.700     23  1.200                                                     
     1   .000     23  1.520                                                     
     1   .600     23  1.520                                                     
     2   .000      7  1.500                                                     
  local pseudopotential read in
  atomic valenz-charges read in
  non local Contribution for L=           0  read in
    real space projection operators read in
  non local Contribution for L=           0  read in
    real space projection operators read in
  non local Contribution for L=           1  read in
    real space projection operators read in
  non local Contribution for L=           1  read in
    real space projection operators read in
    PAW grid and wavefunctions read in
 
   number of l-projection  operators is LMAX  =           4
   number of lm-projection operators is LMMAX =           8
 
 POTCAR:    PAW_PBE F 08Apr2002                   
   VRHFIN =F: s2p5                                                              
   LEXCH  = PE                                                                  
   EATOM  =   659.6475 eV,   48.4827 Ry                                         
                                                                                
   TITEL  = PAW_PBE F 08Apr2002                                                 
   LULTRA =        F    use ultrasoft PP ?                                      
   IUNSCR =        1    unscreen: 0-lin 1-nonlin 2-no                           
   RPACOR =    1.200    partial core radius                                     
   POMASS =   18.998; ZVAL   =    7.000    mass and valenz                      
   RCORE  =    1.520    outmost cutoff radius                                   
   RWIGS  =    1.500; RWIGS  =    0.794    wigner-seitz radius (au A)           
   ENMAX  =  400.000; ENMIN  =  300.000 eV                                      
   ICORE  =        2    local potential                                         
   LCOR   =        T    correct aug charges                                     
   LPAW   =        T    paw PP                                                  
   EAUG   =  613.614                                                            
   RMAX   =    1.555    core radius for proj-oper                               
   RAUG   =    1.300    factor for augmentation sphere                          
   RDEP   =    1.539    radius for radial grids                                 
   RDEPT  =    1.299    core radius for aug-charge                              
                                                                                
   Atomic configuration                                                         
    4 entries                                                                   
     n  l   j            E        occ.                                          
     1  0  0.50      -663.3661   2.0000                                         
     2  0  0.50       -29.8995   2.0000                                         
     2  1  0.50       -11.1114   5.0000                                         
     3  2  1.50       -10.8847   0.0000                                         
   Description                                                                  
     l       E           TYP  RCUT    TYP  RCUT                                 
     0    -29.8995018     23  1.200                                             
     0     -9.5240782     23  1.200                                             
     1    -11.1113914     23  1.520                                             
     1      1.3605826     23  1.520                                             
     2    -10.8846608      7  1.500                                             
  local pseudopotential read in
  partial core-charges read in
  partial kinetic energy density read in
  atomic valenz-charges read in
  non local Contribution for L=           0  read in
    real space projection operators read in
  non local Contribution for L=           0  read in
    real space projection operators read in
  non local Contribution for L=           1  read in
    real space projection operators read in
  non local Contribution for L=           1  read in
    real space projection operators read in
    PAW grid and wavefunctions read in
 
   number of l-projection  operators is LMAX  =           4
   number of lm-projection operators is LMMAX =           8
 
 Optimization of the real space projectors (new method)

 maximal supplied QI-value         = 15.12
 optimisation between [QCUT,QGAM] = [ 13.45, 27.06] = [ 50.69,205.06] Ry 
 Optimized for a Real-space Cutoff    1.49 Angstroem

   l    n(q)    QCUT    max X(q) W(low)/X(q) W(high)/X(q)  e(spline) 
   1     12    13.455     4.841    0.13E-05    0.83E-06    0.56E-07
   1     12    13.455     5.701    0.32E-04    0.25E-04    0.17E-06
   2     11    13.455     4.569    0.64E-05    0.34E-05    0.50E-07
   2     11    13.455    32.276    0.49E-04    0.38E-04    0.46E-06
   0     12    13.455    30.046    0.17E-04    0.41E-05    0.51E-07
   0     12    13.455    45.433    0.12E-04    0.27E-04    0.38E-06
 Optimization of the real space projectors (new method)

 maximal supplied QI-value         = 24.76
 optimisation between [QCUT,QGAM] = [ 13.37, 26.98] = [ 50.04,203.89] Ry 
 Optimized for a Real-space Cutoff    1.17 Angstroem

   l    n(q)    QCUT    max X(q) W(low)/X(q) W(high)/X(q)  e(spline) 
   0      9    13.368     4.192    0.20E-04    0.58E-05    0.56E-07
   0      9    13.368     8.473    0.60E-04    0.52E-04    0.21E-06
   1      9    13.368     2.474    0.22E-04    0.17E-04    0.28E-07
   1      9    13.368     3.912    0.94E-04    0.97E-04    0.20E-06
 Optimization of the real space projectors (new method)

 maximal supplied QI-value         = 24.76
 optimisation between [QCUT,QGAM] = [ 13.37, 26.98] = [ 50.04,203.89] Ry 
 Optimized for a Real-space Cutoff    1.17 Angstroem

   l    n(q)    QCUT    max X(q) W(low)/X(q) W(high)/X(q)  e(spline) 
   0      9    13.368    14.049    0.39E-04    0.34E-04    0.16E-06
   0      9    13.368     8.945    0.54E-04    0.47E-04    0.20E-06
   1      9    13.368     7.086    0.99E-04    0.10E-03    0.23E-06
   1      9    13.368     6.747    0.86E-04    0.89E-04    0.21E-06

 ----------------------------------------------------------------------------- 
|                                                                             |
|  ADVICE TO THIS USER RUNNING 'VASP/VAMP'   (HEAR YOUR MASTER'S VOICE ...):  |
|                                                                             |
|      You enforced a specific xc-type in the INCAR file,                     |
|      a different type was found on the POTCAR file                          |
|          I HOPE YOU KNOW, WHAT YOU ARE  DOING                               |
|                                                                             |
 ----------------------------------------------------------------------------- 

 PAW_PBE Ti_pv 07Sep2000                :
 energy of atom  1       EATOM=-1042.3781
 kinetic energy error for atom=    0.0006 (will be added to EATOM!!)
 PAW_PBE O 08Apr2002                    :
 energy of atom  2       EATOM= -432.3788
 kinetic energy error for atom=    0.0091 (will be added to EATOM!!)
  PAW_PBE F 08Apr2002                   :
 energy of atom  3       EATOM= -659.6475
 kinetic energy error for atom=    0.0140 (will be added to EATOM!!)
 
 
 POSCAR: TiOF2 2x2x2 config 0000                 
  positions in direct lattice
  velocities in cartesian coordinates
 exchange correlation table for  LEXCH =       14
   RHO(1)=    0.500       N(1)  =     2000
   RHO(2)=  100.500       N(2)  =     4000

 VTST: version 3.1, (03/28/14)

 CHAIN: initializing optimizer
 
 OPT: Using VASP QUASI-newton optimizer
 CHAIN: Read ICHAIN            0
 
 POSCAR: TiOF2 2x2x2 config 0000                 
  positions in direct lattice
  velocities in cartesian coordinates
 


--------------------------------------------------------------------------------------------------------


 ion  position               nearest neighbor table
   1  1.000  0.000  0.000-   9 1.85  10 1.85  21 1.98  17 1.98  27 1.98  25 1.98
   2  1.000  0.000  0.500-  10 1.85   9 1.85  22 1.98  18 1.98  28 1.98  26 1.98
   3  0.000  0.500  0.000-  11 1.85  12 1.85  19 1.98  23 1.98  27 1.98  25 1.98
   4  0.000  0.500  0.500-  11 1.85  12 1.85  20 1.98  28 1.98  24 1.98  26 1.98
   5  0.500  1.000  0.000-  13 1.85  14 1.85  21 1.98  17 1.98  31 1.98  29 1.98
   6  0.500  1.000  0.500-  13 1.85  14 1.85  22 1.98  18 1.98  32 1.98  30 1.98
   7  0.500  0.500  0.000-  15 1.85  16 1.85  19 1.98  23 1.98  31 1.98  29 1.98
   8  0.500  0.500  0.500-  15 1.85  16 1.85  20 1.98  24 1.98  32 1.98  30 1.98
   9  0.000  1.000  0.250-   1 1.85   2 1.85
  10  0.000  1.000  0.750-   1 1.85   2 1.85
  11  1.000  0.500  0.250-   3 1.85   4 1.85
  12  1.000  0.500  0.750-   3 1.85   4 1.85
  13  0.500  1.000  0.250-   6 1.85   5 1.85
  14  0.500  1.000  0.750-   6 1.85   5 1.85
  15  0.500  0.500  0.250-   8 1.85   7 1.85
  16  0.500  0.500  0.750-   8 1.85   7 1.85
  17  0.250  1.000  1.000-   1 1.98   5 1.98
  18  0.250  1.000  0.500-   2 1.98   6 1.98
  19  0.250  0.500  0.000-   7 1.98   3 1.98
  20  0.250  0.500  0.500-   8 1.98   4 1.98
  21  0.750  1.000  0.000-   1 1.98   5 1.98
  22  0.750  1.000  0.500-   2 1.98   6 1.98
  23  0.750  0.500  0.000-   7 1.98   3 1.98
  24  0.750  0.500  0.500-   8 1.98   4 1.98
  25  1.000  0.250  1.000-   1 1.98   3 1.98
  26  1.000  0.250  0.500-   2 1.98   4 1.98
  27  0.000  0.750  0.000-   1 1.98   3 1.98
  28  0.000  0.750  0.500-   2 1.98   4 1.98
  29  0.500  0.250  0.000-   7 1.98   5 1.98
  30  0.500  0.250  0.500-   8 1.98   6 1.98
  31  0.500  0.750  0.000-   7 1.98   5 1.98
  32  0.500  0.750  0.500-   8 1.98   6 1.98
 

IMPORTANT INFORMATION: All symmetrisations will be switched off!
NOSYMM: (Re-)initialisation of all symmetry stuff for point group C_1.

 
 
 KPOINTS: Title                                   

Automatic generation of k-mesh.
Space group operators:
 irot       det(A)        alpha          n_x          n_y          n_z        tau_x        tau_y        tau_z
    1     1.000000     0.000000     1.000000     0.000000     0.000000     0.000000     0.000000     0.000000
 
 Subroutine IBZKPT returns following result:
 ===========================================
 
 Found     32 irreducible k-points:
 
 Following reciprocal coordinates:
            Coordinates               Weight
  0.125000  0.125000  0.125000      2.000000
  0.375000  0.125000  0.125000      2.000000
 -0.375000  0.125000  0.125000      2.000000
 -0.125000  0.125000  0.125000      2.000000
  0.125000  0.375000  0.125000      2.000000
  0.375000  0.375000  0.125000      2.000000
 -0.375000  0.375000  0.125000      2.000000
 -0.125000  0.375000  0.125000      2.000000
  0.125000 -0.375000  0.125000      2.000000
  0.375000 -0.375000  0.125000      2.000000
 -0.375000 -0.375000  0.125000      2.000000
 -0.125000 -0.375000  0.125000      2.000000
  0.125000 -0.125000  0.125000      2.000000
  0.375000 -0.125000  0.125000      2.000000
 -0.375000 -0.125000  0.125000      2.000000
 -0.125000 -0.125000  0.125000      2.000000
  0.125000  0.125000  0.375000      2.000000
  0.375000  0.125000  0.375000      2.000000
 -0.375000  0.125000  0.375000      2.000000
 -0.125000  0.125000  0.375000      2.000000
  0.125000  0.375000  0.375000      2.000000
  0.375000  0.375000  0.375000      2.000000
 -0.375000  0.375000  0.375000      2.000000
 -0.125000  0.375000  0.375000      2.000000
  0.125000 -0.375000  0.375000      2.000000
  0.375000 -0.375000  0.375000      2.000000
 -0.375000 -0.375000  0.375000      2.000000
 -0.125000 -0.375000  0.375000      2.000000
  0.125000 -0.125000  0.375000      2.000000
  0.375000 -0.125000  0.375000      2.000000
 -0.375000 -0.125000  0.375000      2.000000
 -0.125000 -0.125000  0.375000      2.000000
 
 Following cartesian coordinates:
            Coordinates               Weight
  0.015807  0.015807  0.016875      2.000000
  0.047421  0.015807  0.016875      2.000000
 -0.047421  0.015807  0.016875      2.000000
 -0.015807  0.015807  0.016875      2.000000
  0.015807  0.047421  0.016875      2.000000
  0.047421  0.047421  0.016875      2.000000
 -0.047421  0.047421  0.016875      2.000000
 -0.015807  0.047421  0.016875      2.000000
  0.015807 -0.047421  0.016875      2.000000
  0.047421 -0.047421  0.016875      2.000000
 -0.047421 -0.047421  0.016875      2.000000
 -0.015807 -0.047421  0.016875      2.000000
  0.015807 -0.015807  0.016875      2.000000
  0.047421 -0.015807  0.016875      2.000000
 -0.047421 -0.015807  0.016875      2.000000
 -0.015807 -0.015807  0.016875      2.000000
  0.015807  0.015807  0.050624      2.000000
  0.047421  0.015807  0.050624      2.000000
 -0.047421  0.015807  0.050624      2.000000
 -0.015807  0.015807  0.050624      2.000000
  0.015807  0.047421  0.050624      2.000000
  0.047421  0.047421  0.050624      2.000000
 -0.047421  0.047421  0.050624      2.000000
 -0.015807  0.047421  0.050624      2.000000
  0.015807 -0.047421  0.050624      2.000000
  0.047421 -0.047421  0.050624      2.000000
 -0.047421 -0.047421  0.050624      2.000000
 -0.015807 -0.047421  0.050624      2.000000
  0.015807 -0.015807  0.050624      2.000000
  0.047421 -0.015807  0.050624      2.000000
 -0.047421 -0.015807  0.050624      2.000000
 -0.015807 -0.015807  0.050624      2.000000
 


--------------------------------------------------------------------------------------------------------




 Dimension of arrays:
   k-points           NKPTS =     32   k-points in BZ     NKDIM =     32   number of bands    NBANDS=    160
   number of dos      NEDOS =   3001   number of ions     NIONS =     32
   non local maximal  LDIM  =      6   non local SUM 2l+1 LMDIM =     18
   total plane-waves  NPLWV = 313600
   max r-space proj   IRMAX =   9390   max aug-charges    IRDMAX= 210442
   dimension x,y,z NGX =    70 NGY =   70 NGZ =   64
   dimension x,y,z NGXF=   140 NGYF=  140 NGZF=  128
   support grid    NGXF=   280 NGYF=  280 NGZF=  256
   ions per type =               8   8  16
   NGX,Y,Z   is equivalent  to a cutoff of  14.72, 14.72, 14.36 a.u.
   NGXF,Y,Z  is equivalent  to a cutoff of  29.43, 29.43, 28.73 a.u.

 SYSTEM =  LTO                                     
 POSCAR =  TiOF2 2x2x2 config 0000                 

 Startparameter for this run:
   NWRITE =      2    write-flag & timer
   PREC   = accura    normal or accurate (medium, high low for compatibility)
   ISTART =      1    job   : 0-new  1-cont  2-samecut
   ICHARG =      0    charge: 1-file 2-atom 10-const
   ISPIN  =      2    spin polarized calculation?
   LNONCOLLINEAR =      F non collinear calculations
   LSORBIT =      F    spin-orbit coupling
   INIWAV =      1    electr: 0-lowe 1-rand  2-diag
   LASPH  =      T    aspherical Exc in radial PAW
   METAGGA=      F    non-selfconsistent MetaGGA calc.

 Electronic Relaxation 1
   ENCUT  =  700.0 eV  51.45 Ry    7.17 a.u.  17.06 17.06 15.98*2*pi/ulx,y,z
   ENINI  =  700.0     initial cutoff
   ENAUG  =  613.6 eV  augmentation charge cutoff
   NELM   =     60;   NELMIN=  2; NELMDL=  0     # of ELM steps 
   EDIFF  = 0.1E-05   stopping-criterion for ELM
   LREAL  =      T    real-space projection
   NLSPLINE    = F    spline interpolate recip. space projectors
   LCOMPAT=      F    compatible to vasp.4.4
   GGA_COMPAT  = T    GGA compatible to vasp.4.4-vasp.4.6
   LMAXPAW     = -100 max onsite density
   LMAXMIX     =    4 max onsite mixed and CHGCAR
   VOSKOWN=      0    Vosko Wilk Nusair interpolation
   ROPT   =   -0.00010  -0.00010  -0.00010
 Ionic relaxation
   EDIFFG = -.1E-01   stopping-criterion for IOM
   NSW    =    100    number of steps for IOM
   NBLOCK =      1;   KBLOCK =    100    inner block; outer block 
   IBRION =      1    ionic relax: 0-MD 1-quasi-New 2-CG
   NFREE  =      0    steps in history (QN), initial steepest desc. (CG)
   ISIF   =      3    stress and relaxation
   IWAVPR =     11    prediction:  0-non 1-charg 2-wave 3-comb
   ISYM   =      0    0-nonsym 1-usesym 2-fastsym
   LCORR  =      T    Harris-Foulkes like correction to forces

   POTIM  = 0.5000    time-step for ionic-motion
   TEIN   =    0.0    initial temperature
   TEBEG  =    0.0;   TEEND  =   0.0 temperature during run
   SMASS  =  -3.00    Nose mass-parameter (am)
   estimated Nose-frequenzy (Omega)   =  0.10E-29 period in steps =****** mass=  -0.143E-26a.u.
   SCALEE = 1.0000    scale energy and forces
   NPACO  =    256;   APACO  = 16.0  distance and # of slots for P.C.
   PSTRESS=    0.0 pullay stress

  Mass of Ions in am
   POMASS =  47.88 16.00 19.00
  Ionic Valenz
   ZVAL   =  10.00  6.00  7.00
  Atomic Wigner-Seitz radii
   RWIGS  =  -1.00 -1.00 -1.00
  virtual crystal weights 
   VCA    =   1.00  1.00  1.00
   NELECT =     240.0000    total number of electrons
   NUPDOWN=      -1.0000    fix difference up-down

 DOS related values:
   EMIN   =  10.00;   EMAX   =-10.00  energy-range for DOS
   EFERMI =   0.00
   ISMEAR =     0;   SIGMA  =   0.01  broadening in eV -4-tet -1-fermi 0-gaus

 Electronic relaxation 2 (details)
   IALGO  =     38    algorithm
   LDIAG  =      T    sub-space diagonalisation (order eigenvalues)
   LSUBROT=      F    optimize rotation matrix (better conditioning)
   TURBO    =      0    0=normal 1=particle mesh
   IRESTART =      0    0=no restart 2=restart with 2 vectors
   NREBOOT  =      0    no. of reboots
   NMIN     =      0    reboot dimension
   EREF     =   0.00    reference energy to select bands
   IMIX   =      4    mixing-type and parameters
     AMIX     =   0.40;   BMIX     =  1.00
     AMIX_MAG =   1.60;   BMIX_MAG =  1.00
     AMIN     =   0.10
     WC   =   100.;   INIMIX=   1;  MIXPRE=   1;  MAXMIX= -45

 Intra band minimization:
   WEIMIN = 0.0010     energy-eigenvalue tresh-hold
   EBREAK =  0.16E-08  absolut break condition
   DEPER  =   0.30     relativ break condition  

   TIME   =   0.40     timestep for ELM

  volume/ion in A,a.u.               =      14.48        97.69
  Fermi-wavevector in a.u.,A,eV,Ry     =   1.314860  2.484725 23.522515  1.728856
  Thomas-Fermi vector in A             =   2.445083
 
 Write flags
   LWAVE        =      T    write WAVECAR
   LDOWNSAMPLE  =      F    k-point downsampling of WAVECAR
   LCHARG       =      T    write CHGCAR
   LVTOT        =      F    write LOCPOT, total local potential
   LVHAR        =      F    write LOCPOT, Hartree potential only
   LELF         =      F    write electronic localiz. function (ELF)
   LORBIT       =     11    0 simple, 1 ext, 2 COOP (PROOUT), +10 PAW based schemes


 Dipole corrections
   LMONO  =      F    monopole corrections only (constant potential shift)
   LDIPOL =      F    correct potential (dipole corrections)
   IDIPOL =      0    1-x, 2-y, 3-z, 4-all directions 
   EPSILON=  1.0000000 bulk dielectric constant

 LDA+U is selected, type is set to LDAUTYPE =  2
   angular momentum for each species LDAUL =     2   -1   -1
   U (eV)           for each species LDAUU =   4.2  0.0  0.0
   J (eV)           for each species LDAUJ =   0.0  0.0  0.0
 Exchange correlation treatment:
   GGA     =    PS    GGA type
   LEXCH   =    14    internal setting for exchange type
   VOSKOWN=      0    Vosko Wilk Nusair interpolation
   LHFCALC =     F    Hartree Fock is set to
   LHFONE  =     F    Hartree Fock one center treatment
   AEXX    =    0.0000 exact exchange contribution

 Linear response parameters
   LEPSILON=     F    determine dielectric tensor
   LRPA    =     F    only Hartree local field effects (RPA)
   LNABLA  =     F    use nabla operator in PAW spheres
   LVEL    =     F    velocity operator in full k-point grid
   LINTERFAST=   F  fast interpolation
   KINTER  =     0    interpolate to denser k-point grid
   CSHIFT  =0.1000    complex shift for real part using Kramers Kronig
   OMEGAMAX=  -1.0    maximum frequency
   DEG_THRESHOLD= 0.2000000E-02 threshold for treating states as degnerate
   RTIME   =   -0.100 relaxation time in fs
  (WPLASMAI=    0.000 imaginary part of plasma frequency in eV, 0.658/RTIME)
   DFIELD  = 0.0000000 0.0000000 0.0000000 field for delta impulse in time
 
 Orbital magnetization related:
   ORBITALMAG=     F  switch on orbital magnetization
   LCHIMAG   =     F  perturbation theory with respect to B field
   DQ        =  0.001000  dq finite difference perturbation B field
   LLRAUG    =     F  two centre corrections for induced B field



--------------------------------------------------------------------------------------------------------


 quasi-Newton-method for relaxation of ions
 charge density and potential will be updated during run
 spin polarized calculation
 Variant of blocked Davidson
 Davidson routine will perform the subspace rotation
 perform sub-space diagonalisation
    after iterative eigenvector-optimisation
 modified Broyden-mixing scheme, WC =      100.0
 initial mixing is a Kerker type mixing with AMIX =  0.4000 and BMIX =      1.0000
 Hartree-type preconditioning will be used
 using additional bands           40
 real space projection scheme for non local part
 use partial core corrections
 calculate Harris-corrections to forces 
   (improved forces if not selfconsistent)
 use gradient corrections 
 use of overlap-Matrix (Vanderbilt PP)
 Gauss-broadening in eV      SIGMA  =   0.01


--------------------------------------------------------------------------------------------------------


  energy-cutoff  :      700.00
  volume of cell :      463.23
      direct lattice vectors                 reciprocal lattice vectors
     7.907866006  0.000002052  0.000000690     0.126456366 -0.000000033 -0.000000011
     0.000002049  7.907867174  0.000000755    -0.000000033  0.126456348 -0.000000012
     0.000000647  0.000000706  7.407621750    -0.000000012 -0.000000013  0.134996094

  length of vectors
     7.907866006  7.907867174  7.407621750     0.126456366  0.126456348  0.134996094


 
 old parameters found on file WAVECAR:
  energy-cutoff  :      700.00
  volume of cell :      462.89
      direct lattice vectors                 reciprocal lattice vectors
     7.906323619 -0.000000005 -0.000000004     0.126481036  0.000000000  0.000000000
    -0.000000007  7.906326247 -0.000000003     0.000000000  0.126480994  0.000000000
    -0.000000003 -0.000000003  7.405028403     0.000000000  0.000000000  0.135043371

  length of vectors

 
 k-points in units of 2pi/SCALE and weight: Title                                   
   0.01580704  0.01580704  0.01687451       0.031
   0.04742113  0.01580703  0.01687451       0.031
  -0.04742114  0.01580705  0.01687451       0.031
  -0.01580705  0.01580705  0.01687451       0.031
   0.01580703  0.04742112  0.01687451       0.031
   0.04742112  0.04742112  0.01687450       0.031
  -0.04742115  0.04742114  0.01687451       0.031
  -0.01580706  0.04742113  0.01687451       0.031
   0.01580706 -0.04742114  0.01687451       0.031
   0.04742115 -0.04742114  0.01687451       0.031
  -0.04742113 -0.04742112  0.01687452       0.031
  -0.01580703 -0.04742113  0.01687452       0.031
   0.01580705 -0.01580705  0.01687451       0.031
   0.04742114 -0.01580706  0.01687451       0.031
  -0.04742113 -0.01580703  0.01687452       0.031
  -0.01580704 -0.01580704  0.01687451       0.031
   0.01580704  0.01580703  0.05062353       0.031
   0.04742113  0.01580703  0.05062353       0.031
  -0.04742115  0.01580705  0.05062354       0.031
  -0.01580705  0.01580704  0.05062354       0.031
   0.01580703  0.04742112  0.05062353       0.031
   0.04742112  0.04742111  0.05062353       0.031
  -0.04742115  0.04742114  0.05062353       0.031
  -0.01580706  0.04742113  0.05062353       0.031
   0.01580705 -0.04742114  0.05062354       0.031
   0.04742115 -0.04742115  0.05062354       0.031
  -0.04742113 -0.04742112  0.05062354       0.031
  -0.01580704 -0.04742113  0.05062354       0.031
   0.01580705 -0.01580705  0.05062354       0.031
   0.04742114 -0.01580706  0.05062353       0.031
  -0.04742114 -0.01580704  0.05062354       0.031
  -0.01580705 -0.01580704  0.05062354       0.031
 
 k-points in reciprocal lattice and weights: Title                                   
   0.12500000  0.12500000  0.12500000       0.031
   0.37500000  0.12500000  0.12500000       0.031
  -0.37500000  0.12500000  0.12500000       0.031
  -0.12500000  0.12500000  0.12500000       0.031
   0.12500000  0.37500000  0.12500000       0.031
   0.37500000  0.37500000  0.12500000       0.031
  -0.37500000  0.37500000  0.12500000       0.031
  -0.12500000  0.37500000  0.12500000       0.031
   0.12500000 -0.37500000  0.12500000       0.031
   0.37500000 -0.37500000  0.12500000       0.031
  -0.37500000 -0.37500000  0.12500000       0.031
  -0.12500000 -0.37500000  0.12500000       0.031
   0.12500000 -0.12500000  0.12500000       0.031
   0.37500000 -0.12500000  0.12500000       0.031
  -0.37500000 -0.12500000  0.12500000       0.031
  -0.12500000 -0.12500000  0.12500000       0.031
   0.12500000  0.12500000  0.37500000       0.031
   0.37500000  0.12500000  0.37500000       0.031
  -0.37500000  0.12500000  0.37500000       0.031
  -0.12500000  0.12500000  0.37500000       0.031
   0.12500000  0.37500000  0.37500000       0.031
   0.37500000  0.37500000  0.37500000       0.031
  -0.37500000  0.37500000  0.37500000       0.031
  -0.12500000  0.37500000  0.37500000       0.031
   0.12500000 -0.37500000  0.37500000       0.031
   0.37500000 -0.37500000  0.37500000       0.031
  -0.37500000 -0.37500000  0.37500000       0.031
  -0.12500000 -0.37500000  0.37500000       0.031
   0.12500000 -0.12500000  0.37500000       0.031
   0.37500000 -0.12500000  0.37500000       0.031
  -0.37500000 -0.12500000  0.37500000       0.031
  -0.12500000 -0.12500000  0.37500000       0.031
 
 position of ions in fractional coordinates (direct lattice) 
   1.00000000  0.00000001  0.00000000
   1.00000000  0.00000001  0.50000000
   0.00000000  0.50000003  0.00000000
   0.00000000  0.50000003  0.50000000
   0.50000000  0.99999994  0.00000000
   0.50000000  0.99999993  0.50000000
   0.50000000  0.50000000  0.00000000
   0.50000000  0.50000000  0.50000000
   0.00000000  0.99999999  0.24999999
   0.00000000  0.99999999  0.75000001
   1.00000000  0.49999999  0.25000000
   1.00000000  0.49999999  0.75000000
   0.50000000  0.99999979  0.25000000
   0.50000000  0.99999979  0.75000000
   0.50000000  0.50000008  0.25000001
   0.50000000  0.50000008  0.74999999
   0.24999999  0.99999993  0.99999999
   0.25000000  0.99999993  0.49999999
   0.25000004  0.50000019  0.00000002
   0.25000004  0.50000018  0.50000000
   0.75000001  0.99999995  0.00000001
   0.75000000  0.99999995  0.50000001
   0.74999996  0.50000017  0.00000000
   0.74999997  0.50000016  0.49999998
   0.99999999  0.25000000  1.00000000
   0.99999999  0.25000000  0.50000000
   0.00000000  0.75000004  0.00000000
   0.00000001  0.75000003  0.50000000
   0.50000000  0.24999998  0.00000001
   0.50000001  0.24999998  0.49999999
   0.49999999  0.74999995  0.00000000
   0.49999999  0.74999995  0.49999999
 
 position of ions in cartesian coordinates  (Angst):
   7.90786598  0.00000211  0.00000069
   7.90786631  0.00000246  3.70381157
   0.00000104  3.95393385  0.00000039
   0.00000138  3.95393420  3.70381125
   3.95393508  7.90786769  0.00000110
   3.95393541  7.90786801  3.70381197
   3.95393399  3.95393462  0.00000073
   3.95393433  3.95393493  3.70381159
   0.00000221  7.90786729  1.85190615
   0.00000254  7.90786763  5.55571711
   7.90786719  3.95393575  1.85190649
   7.90786751  3.95393610  5.55571739
   3.95393520  7.90786668  1.85190654
   3.95393553  7.90786703  5.55571741
   3.95393419  3.95393539  1.85190626
   3.95393452  3.95393574  5.55571694
   1.97696913  7.90786783  7.40762263
   1.97696887  7.90786751  3.70381175
   1.97696781  3.95393559  0.00000068
   1.97696813  3.95393585  3.70381141
   5.93090163  7.90786830  0.00000133
   5.93090189  7.90786866  3.70381220
   5.93090023  3.95393644  0.00000092
   5.93090059  3.95393674  3.70381164
   7.90786712  1.97696951  7.40762261
   7.90786678  1.97696920  3.70381173
   0.00000157  5.93090068  0.00000058
   0.00000193  5.93090099  3.70381144
   3.95393355  1.97696766  0.00000060
   3.95393392  1.97696798  3.70381136
   3.95393449  5.93090101  0.00000093
   3.95393480  5.93090136  3.70381172
 


--------------------------------------------------------------------------------------------------------


 k-point  1 :   0.1250 0.1250 0.1250  plane waves:   19466
 k-point  2 :   0.3750 0.1250 0.1250  plane waves:   19490
 k-point  3 :  -0.3750 0.1250 0.1250  plane waves:   19490
 k-point  4 :  -0.1250 0.1250 0.1250  plane waves:   19466
 k-point  5 :   0.1250 0.3750 0.1250  plane waves:   19490
 k-point  6 :   0.3750 0.3750 0.1250  plane waves:   19485
 k-point  7 :  -0.3750 0.3750 0.1250  plane waves:   19485
 k-point  8 :  -0.1250 0.3750 0.1250  plane waves:   19490
 k-point  9 :   0.1250-0.3750 0.1250  plane waves:   19490
 k-point 10 :   0.3750-0.3750 0.1250  plane waves:   19485
 k-point 11 :  -0.3750-0.3750 0.1250  plane waves:   19485
 k-point 12 :  -0.1250-0.3750 0.1250  plane waves:   19490
 k-point 13 :   0.1250-0.1250 0.1250  plane waves:   19466
 k-point 14 :   0.3750-0.1250 0.1250  plane waves:   19490
 k-point 15 :  -0.3750-0.1250 0.1250  plane waves:   19490
 k-point 16 :  -0.1250-0.1250 0.1250  plane waves:   19466
 k-point 17 :   0.1250 0.1250 0.3750  plane waves:   19465
 k-point 18 :   0.3750 0.1250 0.3750  plane waves:   19487
 k-point 19 :  -0.3750 0.1250 0.3750  plane waves:   19487
 k-point 20 :  -0.1250 0.1250 0.3750  plane waves:   19465
 k-point 21 :   0.1250 0.3750 0.3750  plane waves:   19487
 k-point 22 :   0.3750 0.3750 0.3750  plane waves:   19511
 k-point 23 :  -0.3750 0.3750 0.3750  plane waves:   19511
 k-point 24 :  -0.1250 0.3750 0.3750  plane waves:   19487
 k-point 25 :   0.1250-0.3750 0.3750  plane waves:   19487
 k-point 26 :   0.3750-0.3750 0.3750  plane waves:   19511
 k-point 27 :  -0.3750-0.3750 0.3750  plane waves:   19511
 k-point 28 :  -0.1250-0.3750 0.3750  plane waves:   19487
 k-point 29 :   0.1250-0.1250 0.3750  plane waves:   19465
 k-point 30 :   0.3750-0.1250 0.3750  plane waves:   19487
 k-point 31 :  -0.3750-0.1250 0.3750  plane waves:   19487
 k-point 32 :  -0.1250-0.1250 0.3750  plane waves:   19465

 maximum and minimum number of plane-waves per node :      2464     2419

 maximum number of plane-waves:     19511
 maximum index in each direction: 
   IXMAX=   17   IYMAX=   17   IZMAX=   15
   IXMIN=  -17   IYMIN=  -17   IZMIN=  -16


 real space projection operators:
  total allocation   :      16841.62 KBytes
  max/ min on nodes  :       2251.31       1748.50


 parallel 3D FFT for wavefunctions:
    minimum data exchange during FFTs selected (reduces bandwidth)
 parallel 3D FFT for charge:
    minimum data exchange during FFTs selected (reduces bandwidth)


 total amount of memory used by VASP MPI-rank0   104632. kBytes
=======================================================================

   base      :      30000. kBytes
   nonlr-proj:       7805. kBytes
   fftplans  :       7712. kBytes
   grid      :       8037. kBytes
   one-center:        124. kBytes
   wavefun   :      50954. kBytes
 
     INWAV:  cpu time   29.8275: real time   62.6556
 Broyden mixing: mesh for mixing (old mesh)
   NGX = 35   NGY = 35   NGZ = 31
  (NGX  =140   NGY  =140   NGZ  =128)
  gives a total of  37975 points

 charge density for first step will be calculated from the start-wavefunctions


--------------------------------------------------------------------------------------------------------


 Maximum index for non-local projection operator         1261
 Maximum index for augmentation-charges         6528 (set IRDMAX)


--------------------------------------------------------------------------------------------------------


 initial charge from wavefunction
 First call to EWALD:  gamma=   0.229
 Maximum number of real-space cells 3x 3x 3
 Maximum number of reciprocal cells 3x 3x 3

    FEWALD:  cpu time    0.0040: real time    0.0032


--------------------------------------- Iteration      1(   1)  ---------------------------------------


    POTLOK:  cpu time    0.1650: real time    0.2196
    SETDIJ:  cpu time    0.8099: real time    0.8162
     EDDAV:  cpu time   26.2620: real time   26.3100
       DOS:  cpu time    0.0040: real time    0.0035
    CHARGE:  cpu time    1.0118: real time    1.0108
    MIXING:  cpu time    0.0120: real time    0.0113
    --------------------------------------------
      LOOP:  cpu time   28.2647: real time   28.3714

 eigenvalue-minimisations  : 20480
 total energy-change (2. order) :-0.2115696E+03  (-0.1039279E-02)
 number of electron     240.0000001 magnetization       0.0000000
 augmentation part       61.9315378 magnetization       0.0000000

 Broyden mixing:
  rms(total) = 0.32043E-03    rms(broyden)= 0.31775E-03
  rms(prec ) = 0.45060E-03
  weight for this iteration     100.00

 Free energy of the ion-electron system (eV)
  ---------------------------------------------------
  alpha Z        PSCENC =       755.92139562
  Ewald energy   TEWEN  =    -12782.78902037
  -Hartree energ DENC   =     -8247.56710754
  -exchange      EXHF   =         0.00000000
  -V(xc)+E(xc)   XCENC  =      1119.51569084
  PAW double counting   =     17980.93184250   -18104.64518188
  entropy T*S    EENTRO =        -0.00000000
  eigenvalues    EBANDS =     -3235.29038619
  atomic energy  EATOM  =     22302.35321627
  Solvation  Ediel_sol  =         0.00000000
  ---------------------------------------------------
  free energy    TOTEN  =      -211.56955074 eV

  energy without entropy =     -211.56955074  energy(sigma->0) =     -211.56955074


--------------------------------------------------------------------------------------------------------




--------------------------------------- Iteration      1(   2)  ---------------------------------------


    POTLOK:  cpu time    0.1310: real time    0.1545
    SETDIJ:  cpu time    0.8109: real time    0.8185
     EDDAV:  cpu time   17.1084: real time   17.1419
       DOS:  cpu time    0.0030: real time    0.0035
    --------------------------------------------
      LOOP:  cpu time   18.0533: real time   18.1184

 eigenvalue-minimisations  : 10304
 total energy-change (2. order) : 0.9646101E-07  (-0.7056927E-07)
 number of electron     240.0000001 magnetization       0.0000000
 augmentation part       61.9315378 magnetization       0.0000000

 Free energy of the ion-electron system (eV)
  ---------------------------------------------------
  alpha Z        PSCENC =       755.92139562
  Ewald energy   TEWEN  =    -12782.78902037
  -Hartree energ DENC   =     -8247.54810537
  -exchange      EXHF   =         0.00000000
  -V(xc)+E(xc)   XCENC  =      1119.51476314
  PAW double counting   =     17980.91264707   -18104.62526753
  entropy T*S    EENTRO =        -0.00000000
  eigenvalues    EBANDS =     -3235.30917948
  atomic energy  EATOM  =     22302.35321627
  Solvation  Ediel_sol  =         0.00000000
  ---------------------------------------------------
  free energy    TOTEN  =      -211.56955064 eV

  energy without entropy =     -211.56955064  energy(sigma->0) =     -211.56955064


--------------------------------------------------------------------------------------------------------




 average (electrostatic) potential at core
  the test charge radii are     1.0397  0.7215  0.7167
  (the norm of the test charge is              1.0000)
       1 -58.9682       2 -58.9682       3 -58.9682       4 -58.9682       5 -58.9682
       6 -58.9682       7 -58.9682       8 -58.9682       9 -73.6716      10 -73.6716
      11 -73.6716      12 -73.6716      13 -73.6716      14 -73.6716      15 -73.6716
      16 -73.6716      17 -79.2389      18 -79.2389      19 -79.2389      20 -79.2389
      21 -79.2389      22 -79.2389      23 -79.2389      24 -79.2389      25 -79.2389
      26 -79.2389      27 -79.2389      28 -79.2389      29 -79.2389      30 -79.2389
      31 -79.2389      32 -79.2389
 
 
 
 E-fermi :  -1.0117     XC(G=0):  -8.9606     alpha+bet : -7.6281


 spin component 1

 k-point     1 :       0.1250    0.1250    0.1250
  band No.  band energies     occupation 
      1     -35.0171      1.00000
      2     -35.0171      1.00000
      3     -35.0153      1.00000
      4     -35.0153      1.00000
      5     -35.0129      1.00000
      6     -35.0129      1.00000
      7     -35.0112      1.00000
      8     -35.0111      1.00000
      9     -34.9326      1.00000
     10     -34.9326      1.00000
     11     -34.9310      1.00000
     12     -34.9310      1.00000
     13     -34.9288      1.00000
     14     -34.9288      1.00000
     15     -34.9272      1.00000
     16     -34.9272      1.00000
     17     -34.6451      1.00000
     18     -34.6431      1.00000
     19     -34.6431      1.00000
     20     -34.6412      1.00000
     21     -34.5555      1.00000
     22     -34.5538      1.00000
     23     -34.5538      1.00000
     24     -34.5522      1.00000
     25     -23.2441      1.00000
     26     -23.2178      1.00000
     27     -23.0793      1.00000
     28     -23.0793      1.00000
     29     -23.0603      1.00000
     30     -23.0603      1.00000
     31     -22.9177      1.00000
     32     -22.9062      1.00000
     33     -22.6871      1.00000
     34     -22.6845      1.00000
     35     -22.6845      1.00000
     36     -22.6733      1.00000
     37     -22.6727      1.00000
     38     -22.6704      1.00000
     39     -22.6704      1.00000
     40     -22.6596      1.00000
     41     -16.7120      1.00000
     42     -16.7080      1.00000
     43     -16.7080      1.00000
     44     -16.7056      1.00000
     45     -15.7806      1.00000
     46     -15.7520      1.00000
     47     -15.7520      1.00000
     48     -15.7249      1.00000
     49      -6.8570      1.00000
     50      -6.8472      1.00000
     51      -6.6921      1.00000
     52      -6.6920      1.00000
     53      -6.6773      1.00000
     54      -6.6773      1.00000
     55      -6.5051      1.00000
     56      -6.4890      1.00000
     57      -5.5743      1.00000
     58      -5.4966      1.00000
     59      -5.4878      1.00000
     60      -5.4676      1.00000
     61      -5.3607      1.00000
     62      -5.3408      1.00000
     63      -5.2857      1.00000
     64      -5.2857      1.00000
     65      -5.1756      1.00000
     66      -5.1756      1.00000
     67      -5.1434      1.00000
     68      -5.1434      1.00000
     69      -5.0981      1.00000
     70      -5.0789      1.00000
     71      -5.0379      1.00000
     72      -4.9951      1.00000
     73      -4.9951      1.00000
     74      -4.9648      1.00000
     75      -4.5866      1.00000
     76      -4.5866      1.00000
     77      -4.5213      1.00000
     78      -4.5213      1.00000
     79      -4.3673      1.00000
     80      -4.3245      1.00000
     81      -4.3071      1.00000
     82      -4.3071      1.00000
     83      -4.2809      1.00000
     84      -4.2560      1.00000
     85      -4.1018      1.00000
     86      -4.1018      1.00000
     87      -4.0871      1.00000
     88      -4.0871      1.00000
     89      -4.0235      1.00000
     90      -4.0235      1.00000
     91      -4.0153      1.00000
     92      -4.0153      1.00000
     93      -3.9210      1.00000
     94      -3.9030      1.00000
     95      -3.8807      1.00000
     96      -3.8056      1.00000
     97      -3.7864      1.00000
     98      -3.6681      1.00000
     99      -3.2268      1.00000
    100      -3.2139      1.00000
    101      -2.3411      1.00000
    102      -2.3214      1.00000
    103      -2.2971      1.00000
    104      -2.2971      1.00000
    105      -1.7426      1.00000
    106      -1.5470      1.00000
    107      -1.5470      1.00000
    108      -1.4436      1.00000
    109      -1.4391      1.00000
    110      -1.4174      1.00000
    111      -1.4174      1.00000
    112      -1.4010      1.00000
    113      -1.2659      1.00000
    114      -1.2659      1.00000
    115      -1.2497      1.00000
    116      -1.2437      1.00000
    117      -1.0625      1.00000
    118      -1.0586      1.00000
    119      -1.0581      1.00000
    120      -1.0581      1.00000
    121       1.8928      0.00000
    122       1.9233      0.00000
    123       1.9242      0.00000
    124       1.9370      0.00000
    125       1.9411      0.00000
    126       1.9411      0.00000
    127       2.6492      0.00000
    128       2.6492      0.00000
    129       2.6631      0.00000
    130       2.6652      0.00000
    131       2.6724      0.00000
    132       2.6724      0.00000
    133       2.6995      0.00000
    134       2.6995      0.00000
    135       2.8688      0.00000
    136       2.8807      0.00000
    137       3.2083      0.00000
    138       3.2083      0.00000
    139       3.2254      0.00000
    140       3.2450      0.00000
    141       3.3693      0.00000
    142       3.6507      0.00000
    143       3.6507      0.00000
    144       3.9854      0.00000
    145       3.9895      0.00000
    146       3.9929      0.00000
    147       3.9929      0.00000
    148       4.1689      0.00000
    149       4.1689      0.00000
    150       4.1748      0.00000
    151       4.1777      0.00000
    152       4.6052      0.00000
    153       4.8917      0.00000
    154       4.8917      0.00000
    155       5.2199      0.00000
    156       5.4465      0.00000
    157       5.4471      0.00000
    158       6.2181      0.00000
    159       6.8634      0.00000
    160       6.8635      0.00000

 k-point     2 :       0.3750    0.1250    0.1250
  band No.  band energies     occupation 
      1     -35.0166      1.00000
      2     -35.0158      1.00000
      3     -35.0124      1.00000
      4     -35.0117      1.00000
      5     -34.9926      1.00000
      6     -34.9909      1.00000
      7     -34.9886      1.00000
      8     -34.9868      1.00000
      9     -34.9576      1.00000
     10     -34.9560      1.00000
     11     -34.9537      1.00000
     12     -34.9521      1.00000
     13     -34.9321      1.00000
     14     -34.9315      1.00000
     15     -34.9284      1.00000
     16     -34.9277      1.00000
     17     -34.6445      1.00000
     18     -34.6437      1.00000
     19     -34.6426      1.00000
     20     -34.6418      1.00000
     21     -34.5550      1.00000
     22     -34.5543      1.00000
     23     -34.5533      1.00000
     24     -34.5527      1.00000
     25     -23.1741      1.00000
     26     -23.1497      1.00000
     27     -23.1073      1.00000
     28     -23.0863      1.00000
     29     -22.9658      1.00000
     30     -22.9480      1.00000
     31     -22.8734      1.00000
     32     -22.8613      1.00000
     33     -22.8020      1.00000
     34     -22.7861      1.00000
     35     -22.7755      1.00000
     36     -22.7619      1.00000
     37     -22.6824      1.00000
     38     -22.6792      1.00000
     39     -22.6683      1.00000
     40     -22.6653      1.00000
     41     -16.7104      1.00000
     42     -16.7087      1.00000
     43     -16.7069      1.00000
     44     -16.7059      1.00000
     45     -15.7722      1.00000
     46     -15.7604      1.00000
     47     -15.7441      1.00000
     48     -15.7329      1.00000
     49      -6.7341      1.00000
     50      -6.7199      1.00000
     51      -6.6978      1.00000
     52      -6.6833      1.00000
     53      -6.3426      1.00000
     54      -6.3029      1.00000
     55      -6.2529      1.00000
     56      -6.2201      1.00000
     57      -5.8366      1.00000
     58      -5.7508      1.00000
     59      -5.7190      1.00000
     60      -5.6475      1.00000
     61      -5.4335      1.00000
     62      -5.3854      1.00000
     63      -5.3587      1.00000
     64      -5.3112      1.00000
     65      -5.3100      1.00000
     66      -5.2432      1.00000
     67      -5.1303      1.00000
     68      -5.1063      1.00000
     69      -5.0462      1.00000
     70      -5.0363      1.00000
     71      -5.0355      1.00000
     72      -4.9940      1.00000
     73      -4.9931      1.00000
     74      -4.9589      1.00000
     75      -4.8852      1.00000
     76      -4.8422      1.00000
     77      -4.5559      1.00000
     78      -4.4716      1.00000
     79      -4.4165      1.00000
     80      -4.3563      1.00000
     81      -4.3552      1.00000
     82      -4.3259      1.00000
     83      -4.2977      1.00000
     84      -4.2887      1.00000
     85      -4.1858      1.00000
     86      -4.1503      1.00000
     87      -4.1139      1.00000
     88      -4.0984      1.00000
     89      -4.0873      1.00000
     90      -4.0650      1.00000
     91      -4.0045      1.00000
     92      -3.9521      1.00000
     93      -3.9063      1.00000
     94      -3.8756      1.00000
     95      -3.8458      1.00000
     96      -3.7664      1.00000
     97      -3.6763      1.00000
     98      -3.6315      1.00000
     99      -3.3783      1.00000
    100      -3.3525      1.00000
    101      -2.3224      1.00000
    102      -2.3076      1.00000
    103      -1.9185      1.00000
    104      -1.8965      1.00000
    105      -1.7014      1.00000
    106      -1.6212      1.00000
    107      -1.5219      1.00000
    108      -1.5018      1.00000
    109      -1.4831      1.00000
    110      -1.4612      1.00000
    111      -1.4355      1.00000
    112      -1.4254      1.00000
    113      -1.3409      1.00000
    114      -1.3226      1.00000
    115      -1.2603      1.00000
    116      -1.2522      1.00000
    117      -1.1876      1.00000
    118      -1.1819      1.00000
    119      -1.0614      1.00000
    120      -1.0603      1.00000
    121       1.9267      0.00000
    122       1.9352      0.00000
    123       2.1243      0.00000
    124       2.1396      0.00000
    125       2.1540      0.00000
    126       2.1624      0.00000
    127       2.4356      0.00000
    128       2.4502      0.00000
    129       2.4538      0.00000
    130       2.4776      0.00000
    131       2.6535      0.00000
    132       2.6598      0.00000
    133       2.8264      0.00000
    134       2.8492      0.00000
    135       3.0554      0.00000
    136       3.0751      0.00000
    137       3.0935      0.00000
    138       3.1779      0.00000
    139       3.2094      0.00000
    140       3.5105      0.00000
    141       3.7844      0.00000
    142       3.7990      0.00000
    143       3.9884      0.00000
    144       3.9911      0.00000
    145       4.0253      0.00000
    146       4.0268      0.00000
    147       4.1013      0.00000
    148       4.1073      0.00000
    149       4.1705      0.00000
    150       4.1743      0.00000
    151       4.2663      0.00000
    152       4.4056      0.00000
    153       4.4611      0.00000
    154       4.9382      0.00000
    155       5.0097      0.00000
    156       5.1304      0.00000
    157       5.6202      0.00000
    158       6.3069      0.00000
    159       6.5938      0.00000
    160       6.9373      0.00000

 k-point     3 :      -0.3750    0.1250    0.1250
  band No.  band energies     occupation 
      1     -35.0166      1.00000
      2     -35.0158      1.00000
      3     -35.0124      1.00000
      4     -35.0117      1.00000
      5     -34.9926      1.00000
      6     -34.9909      1.00000
      7     -34.9886      1.00000
      8     -34.9868      1.00000
      9     -34.9576      1.00000
     10     -34.9560      1.00000
     11     -34.9537      1.00000
     12     -34.9521      1.00000
     13     -34.9321      1.00000
     14     -34.9315      1.00000
     15     -34.9284      1.00000
     16     -34.9277      1.00000
     17     -34.6445      1.00000
     18     -34.6437      1.00000
     19     -34.6426      1.00000
     20     -34.6418      1.00000
     21     -34.5550      1.00000
     22     -34.5543      1.00000
     23     -34.5533      1.00000
     24     -34.5527      1.00000
     25     -23.1741      1.00000
     26     -23.1497      1.00000
     27     -23.1073      1.00000
     28     -23.0863      1.00000
     29     -22.9658      1.00000
     30     -22.9480      1.00000
     31     -22.8734      1.00000
     32     -22.8613      1.00000
     33     -22.8020      1.00000
     34     -22.7861      1.00000
     35     -22.7755      1.00000
     36     -22.7619      1.00000
     37     -22.6824      1.00000
     38     -22.6792      1.00000
     39     -22.6683      1.00000
     40     -22.6653      1.00000
     41     -16.7104      1.00000
     42     -16.7087      1.00000
     43     -16.7069      1.00000
     44     -16.7059      1.00000
     45     -15.7722      1.00000
     46     -15.7604      1.00000
     47     -15.7441      1.00000
     48     -15.7329      1.00000
     49      -6.7341      1.00000
     50      -6.7199      1.00000
     51      -6.6978      1.00000
     52      -6.6833      1.00000
     53      -6.3426      1.00000
     54      -6.3029      1.00000
     55      -6.2529      1.00000
     56      -6.2201      1.00000
     57      -5.8366      1.00000
     58      -5.7508      1.00000
     59      -5.7190      1.00000
     60      -5.6475      1.00000
     61      -5.4335      1.00000
     62      -5.3854      1.00000
     63      -5.3587      1.00000
     64      -5.3112      1.00000
     65      -5.3100      1.00000
     66      -5.2432      1.00000
     67      -5.1303      1.00000
     68      -5.1063      1.00000
     69      -5.0462      1.00000
     70      -5.0363      1.00000
     71      -5.0355      1.00000
     72      -4.9940      1.00000
     73      -4.9931      1.00000
     74      -4.9589      1.00000
     75      -4.8852      1.00000
     76      -4.8422      1.00000
     77      -4.5559      1.00000
     78      -4.4716      1.00000
     79      -4.4165      1.00000
     80      -4.3563      1.00000
     81      -4.3552      1.00000
     82      -4.3259      1.00000
     83      -4.2977      1.00000
     84      -4.2887      1.00000
     85      -4.1858      1.00000
     86      -4.1503      1.00000
     87      -4.1139      1.00000
     88      -4.0984      1.00000
     89      -4.0873      1.00000
     90      -4.0650      1.00000
     91      -4.0045      1.00000
     92      -3.9521      1.00000
     93      -3.9063      1.00000
     94      -3.8756      1.00000
     95      -3.8458      1.00000
     96      -3.7664      1.00000
     97      -3.6763      1.00000
     98      -3.6315      1.00000
     99      -3.3783      1.00000
    100      -3.3525      1.00000
    101      -2.3224      1.00000
    102      -2.3076      1.00000
    103      -1.9185      1.00000
    104      -1.8965      1.00000
    105      -1.7014      1.00000
    106      -1.6212      1.00000
    107      -1.5219      1.00000
    108      -1.5018      1.00000
    109      -1.4831      1.00000
    110      -1.4612      1.00000
    111      -1.4355      1.00000
    112      -1.4254      1.00000
    113      -1.3409      1.00000
    114      -1.3226      1.00000
    115      -1.2603      1.00000
    116      -1.2522      1.00000
    117      -1.1876      1.00000
    118      -1.1819      1.00000
    119      -1.0614      1.00000
    120      -1.0603      1.00000
    121       1.9267      0.00000
    122       1.9352      0.00000
    123       2.1243      0.00000
    124       2.1396      0.00000
    125       2.1540      0.00000
    126       2.1624      0.00000
    127       2.4356      0.00000
    128       2.4502      0.00000
    129       2.4538      0.00000
    130       2.4776      0.00000
    131       2.6535      0.00000
    132       2.6598      0.00000
    133       2.8264      0.00000
    134       2.8492      0.00000
    135       3.0554      0.00000
    136       3.0751      0.00000
    137       3.0935      0.00000
    138       3.1779      0.00000
    139       3.2094      0.00000
    140       3.5105      0.00000
    141       3.7844      0.00000
    142       3.7990      0.00000
    143       3.9884      0.00000
    144       3.9911      0.00000
    145       4.0253      0.00000
    146       4.0268      0.00000
    147       4.1013      0.00000
    148       4.1073      0.00000
    149       4.1705      0.00000
    150       4.1743      0.00000
    151       4.2663      0.00000
    152       4.4056      0.00000
    153       4.4611      0.00000
    154       4.9382      0.00000
    155       5.0097      0.00000
    156       5.1304      0.00000
    157       5.6202      0.00000
    158       6.3069      0.00000
    159       6.5938      0.00000
    160       6.9373      0.00000

 k-point     4 :      -0.1250    0.1250    0.1250
  band No.  band energies     occupation 
      1     -35.0171      1.00000
      2     -35.0171      1.00000
      3     -35.0153      1.00000
      4     -35.0153      1.00000
      5     -35.0129      1.00000
      6     -35.0129      1.00000
      7     -35.0112      1.00000
      8     -35.0111      1.00000
      9     -34.9326      1.00000
     10     -34.9326      1.00000
     11     -34.9310      1.00000
     12     -34.9310      1.00000
     13     -34.9288      1.00000
     14     -34.9288      1.00000
     15     -34.9272      1.00000
     16     -34.9272      1.00000
     17     -34.6451      1.00000
     18     -34.6431      1.00000
     19     -34.6431      1.00000
     20     -34.6412      1.00000
     21     -34.5555      1.00000
     22     -34.5538      1.00000
     23     -34.5538      1.00000
     24     -34.5522      1.00000
     25     -23.2441      1.00000
     26     -23.2178      1.00000
     27     -23.0793      1.00000
     28     -23.0793      1.00000
     29     -23.0603      1.00000
     30     -23.0603      1.00000
     31     -22.9177      1.00000
     32     -22.9062      1.00000
     33     -22.6871      1.00000
     34     -22.6845      1.00000
     35     -22.6845      1.00000
     36     -22.6733      1.00000
     37     -22.6727      1.00000
     38     -22.6704      1.00000
     39     -22.6704      1.00000
     40     -22.6596      1.00000
     41     -16.7120      1.00000
     42     -16.7080      1.00000
     43     -16.7080      1.00000
     44     -16.7056      1.00000
     45     -15.7806      1.00000
     46     -15.7520      1.00000
     47     -15.7520      1.00000
     48     -15.7249      1.00000
     49      -6.8570      1.00000
     50      -6.8472      1.00000
     51      -6.6921      1.00000
     52      -6.6920      1.00000
     53      -6.6773      1.00000
     54      -6.6773      1.00000
     55      -6.5051      1.00000
     56      -6.4890      1.00000
     57      -5.5743      1.00000
     58      -5.4966      1.00000
     59      -5.4878      1.00000
     60      -5.4676      1.00000
     61      -5.3607      1.00000
     62      -5.3408      1.00000
     63      -5.2857      1.00000
     64      -5.2857      1.00000
     65      -5.1756      1.00000
     66      -5.1756      1.00000
     67      -5.1434      1.00000
     68      -5.1434      1.00000
     69      -5.0981      1.00000
     70      -5.0789      1.00000
     71      -5.0379      1.00000
     72      -4.9951      1.00000
     73      -4.9951      1.00000
     74      -4.9648      1.00000
     75      -4.5866      1.00000
     76      -4.5866      1.00000
     77      -4.5213      1.00000
     78      -4.5213      1.00000
     79      -4.3673      1.00000
     80      -4.3245      1.00000
     81      -4.3071      1.00000
     82      -4.3071      1.00000
     83      -4.2809      1.00000
     84      -4.2560      1.00000
     85      -4.1018      1.00000
     86      -4.1018      1.00000
     87      -4.0871      1.00000
     88      -4.0871      1.00000
     89      -4.0235      1.00000
     90      -4.0235      1.00000
     91      -4.0153      1.00000
     92      -4.0153      1.00000
     93      -3.9210      1.00000
     94      -3.9030      1.00000
     95      -3.8807      1.00000
     96      -3.8056      1.00000
     97      -3.7865      1.00000
     98      -3.6681      1.00000
     99      -3.2268      1.00000
    100      -3.2139      1.00000
    101      -2.3411      1.00000
    102      -2.3214      1.00000
    103      -2.2971      1.00000
    104      -2.2971      1.00000
    105      -1.7426      1.00000
    106      -1.5470      1.00000
    107      -1.5470      1.00000
    108      -1.4436      1.00000
    109      -1.4391      1.00000
    110      -1.4174      1.00000
    111      -1.4174      1.00000
    112      -1.4010      1.00000
    113      -1.2659      1.00000
    114      -1.2659      1.00000
    115      -1.2497      1.00000
    116      -1.2437      1.00000
    117      -1.0625      1.00000
    118      -1.0586      1.00000
    119      -1.0581      1.00000
    120      -1.0581      1.00000
    121       1.8928      0.00000
    122       1.9233      0.00000
    123       1.9242      0.00000
    124       1.9370      0.00000
    125       1.9411      0.00000
    126       1.9411      0.00000
    127       2.6492      0.00000
    128       2.6492      0.00000
    129       2.6631      0.00000
    130       2.6652      0.00000
    131       2.6724      0.00000
    132       2.6724      0.00000
    133       2.6995      0.00000
    134       2.6995      0.00000
    135       2.8688      0.00000
    136       2.8807      0.00000
    137       3.2083      0.00000
    138       3.2083      0.00000
    139       3.2254      0.00000
    140       3.2450      0.00000
    141       3.3693      0.00000
    142       3.6507      0.00000
    143       3.6507      0.00000
    144       3.9854      0.00000
    145       3.9895      0.00000
    146       3.9929      0.00000
    147       3.9929      0.00000
    148       4.1689      0.00000
    149       4.1689      0.00000
    150       4.1748      0.00000
    151       4.1777      0.00000
    152       4.6052      0.00000
    153       4.8917      0.00000
    154       4.8917      0.00000
    155       5.2199      0.00000
    156       5.4465      0.00000
    157       5.4471      0.00000
    158       6.2181      0.00000
    159       6.8634      0.00000
    160       6.8635      0.00000

 k-point     5 :       0.1250    0.3750    0.1250
  band No.  band energies     occupation 
      1     -35.0166      1.00000
      2     -35.0158      1.00000
      3     -35.0124      1.00000
      4     -35.0117      1.00000
      5     -34.9926      1.00000
      6     -34.9909      1.00000
      7     -34.9886      1.00000
      8     -34.9868      1.00000
      9     -34.9576      1.00000
     10     -34.9560      1.00000
     11     -34.9537      1.00000
     12     -34.9521      1.00000
     13     -34.9321      1.00000
     14     -34.9315      1.00000
     15     -34.9284      1.00000
     16     -34.9277      1.00000
     17     -34.6445      1.00000
     18     -34.6437      1.00000
     19     -34.6426      1.00000
     20     -34.6418      1.00000
     21     -34.5550      1.00000
     22     -34.5543      1.00000
     23     -34.5533      1.00000
     24     -34.5527      1.00000
     25     -23.1741      1.00000
     26     -23.1497      1.00000
     27     -23.1073      1.00000
     28     -23.0863      1.00000
     29     -22.9658      1.00000
     30     -22.9480      1.00000
     31     -22.8734      1.00000
     32     -22.8613      1.00000
     33     -22.8020      1.00000
     34     -22.7861      1.00000
     35     -22.7755      1.00000
     36     -22.7619      1.00000
     37     -22.6824      1.00000
     38     -22.6792      1.00000
     39     -22.6683      1.00000
     40     -22.6653      1.00000
     41     -16.7104      1.00000
     42     -16.7087      1.00000
     43     -16.7069      1.00000
     44     -16.7059      1.00000
     45     -15.7722      1.00000
     46     -15.7604      1.00000
     47     -15.7441      1.00000
     48     -15.7329      1.00000
     49      -6.7341      1.00000
     50      -6.7199      1.00000
     51      -6.6978      1.00000
     52      -6.6833      1.00000
     53      -6.3426      1.00000
     54      -6.3029      1.00000
     55      -6.2529      1.00000
     56      -6.2201      1.00000
     57      -5.8366      1.00000
     58      -5.7508      1.00000
     59      -5.7190      1.00000
     60      -5.6475      1.00000
     61      -5.4335      1.00000
     62      -5.3854      1.00000
     63      -5.3587      1.00000
     64      -5.3112      1.00000
     65      -5.3100      1.00000
     66      -5.2432      1.00000
     67      -5.1304      1.00000
     68      -5.1063      1.00000
     69      -5.0462      1.00000
     70      -5.0363      1.00000
     71      -5.0355      1.00000
     72      -4.9940      1.00000
     73      -4.9931      1.00000
     74      -4.9589      1.00000
     75      -4.8852      1.00000
     76      -4.8422      1.00000
     77      -4.5559      1.00000
     78      -4.4716      1.00000
     79      -4.4165      1.00000
     80      -4.3563      1.00000
     81      -4.3552      1.00000
     82      -4.3259      1.00000
     83      -4.2977      1.00000
     84      -4.2887      1.00000
     85      -4.1858      1.00000
     86      -4.1503      1.00000
     87      -4.1139      1.00000
     88      -4.0984      1.00000
     89      -4.0873      1.00000
     90      -4.0650      1.00000
     91      -4.0045      1.00000
     92      -3.9521      1.00000
     93      -3.9063      1.00000
     94      -3.8756      1.00000
     95      -3.8458      1.00000
     96      -3.7664      1.00000
     97      -3.6763      1.00000
     98      -3.6315      1.00000
     99      -3.3783      1.00000
    100      -3.3525      1.00000
    101      -2.3224      1.00000
    102      -2.3076      1.00000
    103      -1.9185      1.00000
    104      -1.8965      1.00000
    105      -1.7014      1.00000
    106      -1.6212      1.00000
    107      -1.5219      1.00000
    108      -1.5018      1.00000
    109      -1.4831      1.00000
    110      -1.4612      1.00000
    111      -1.4355      1.00000
    112      -1.4254      1.00000
    113      -1.3409      1.00000
    114      -1.3226      1.00000
    115      -1.2603      1.00000
    116      -1.2522      1.00000
    117      -1.1876      1.00000
    118      -1.1819      1.00000
    119      -1.0614      1.00000
    120      -1.0603      1.00000
    121       1.9267      0.00000
    122       1.9352      0.00000
    123       2.1243      0.00000
    124       2.1396      0.00000
    125       2.1540      0.00000
    126       2.1624      0.00000
    127       2.4356      0.00000
    128       2.4502      0.00000
    129       2.4538      0.00000
    130       2.4776      0.00000
    131       2.6535      0.00000
    132       2.6598      0.00000
    133       2.8264      0.00000
    134       2.8492      0.00000
    135       3.0554      0.00000
    136       3.0751      0.00000
    137       3.0935      0.00000
    138       3.1779      0.00000
    139       3.2094      0.00000
    140       3.5105      0.00000
    141       3.7844      0.00000
    142       3.7990      0.00000
    143       3.9884      0.00000
    144       3.9911      0.00000
    145       4.0253      0.00000
    146       4.0268      0.00000
    147       4.1013      0.00000
    148       4.1073      0.00000
    149       4.1705      0.00000
    150       4.1743      0.00000
    151       4.2663      0.00000
    152       4.4056      0.00000
    153       4.4611      0.00000
    154       4.9382      0.00000
    155       5.0097      0.00000
    156       5.1304      0.00000
    157       5.6202      0.00000
    158       6.3069      0.00000
    159       6.5938      0.00000
    160       6.9373      0.00000

 k-point     6 :       0.3750    0.3750    0.1250
  band No.  band energies     occupation 
      1     -34.9921      1.00000
      2     -34.9921      1.00000
      3     -34.9915      1.00000
      4     -34.9913      1.00000
      5     -34.9881      1.00000
      6     -34.9881      1.00000
      7     -34.9875      1.00000
      8     -34.9872      1.00000
      9     -34.9573      1.00000
     10     -34.9570      1.00000
     11     -34.9565      1.00000
     12     -34.9565      1.00000
     13     -34.9534      1.00000
     14     -34.9531      1.00000
     15     -34.9526      1.00000
     16     -34.9526      1.00000
     17     -34.6439      1.00000
     18     -34.6431      1.00000
     19     -34.6431      1.00000
     20     -34.6423      1.00000
     21     -34.5545      1.00000
     22     -34.5538      1.00000
     23     -34.5538      1.00000
     24     -34.5531      1.00000
     25     -23.0860      1.00000
     26     -23.0628      1.00000
     27     -22.9980      1.00000
     28     -22.9980      1.00000
     29     -22.9780      1.00000
     30     -22.9780      1.00000
     31     -22.8555      1.00000
     32     -22.8470      1.00000
     33     -22.8372      1.00000
     34     -22.8349      1.00000
     35     -22.7696      1.00000
     36     -22.7696      1.00000
     37     -22.7562      1.00000
     38     -22.7562      1.00000
     39     -22.7457      1.00000
     40     -22.7327      1.00000
     41     -16.7090      1.00000
     42     -16.7075      1.00000
     43     -16.7075      1.00000
     44     -16.7063      1.00000
     45     -15.7640      1.00000
     46     -15.7524      1.00000
     47     -15.7524      1.00000
     48     -15.7410      1.00000
     49      -6.4404      1.00000
     50      -6.4058      1.00000
     51      -6.3440      1.00000
     52      -6.3440      1.00000
     53      -6.3052      1.00000
     54      -6.3052      1.00000
     55      -6.1912      1.00000
     56      -6.1546      1.00000
     57      -5.8729      1.00000
     58      -5.7892      1.00000
     59      -5.7551      1.00000
     60      -5.7551      1.00000
     61      -5.7468      1.00000
     62      -5.6791      1.00000
     63      -5.6791      1.00000
     64      -5.6659      1.00000
     65      -5.1949      1.00000
     66      -5.1246      1.00000
     67      -5.0423      1.00000
     68      -5.0419      1.00000
     69      -5.0419      1.00000
     70      -5.0345      1.00000
     71      -4.8772      1.00000
     72      -4.8772      1.00000
     73      -4.8722      1.00000
     74      -4.8456      1.00000
     75      -4.8456      1.00000
     76      -4.8265      1.00000
     77      -4.7787      1.00000
     78      -4.7787      1.00000
     79      -4.6086      1.00000
     80      -4.5208      1.00000
     81      -4.4704      1.00000
     82      -4.4703      1.00000
     83      -4.4703      1.00000
     84      -4.3801      1.00000
     85      -4.3420      1.00000
     86      -4.3216      1.00000
     87      -4.3216      1.00000
     88      -4.3071      1.00000
     89      -4.1000      1.00000
     90      -3.9885      1.00000
     91      -3.9885      1.00000
     92      -3.8590      1.00000
     93      -3.7318      1.00000
     94      -3.7041      1.00000
     95      -3.6827      1.00000
     96      -3.6827      1.00000
     97      -3.6461      1.00000
     98      -3.6461      1.00000
     99      -3.4749      1.00000
    100      -3.4460      1.00000
    101      -1.9461      1.00000
    102      -1.9053      1.00000
    103      -1.9053      1.00000
    104      -1.8806      1.00000
    105      -1.6652      1.00000
    106      -1.5914      1.00000
    107      -1.5914      1.00000
    108      -1.5255      1.00000
    109      -1.5102      1.00000
    110      -1.4951      1.00000
    111      -1.4951      1.00000
    112      -1.4673      1.00000
    113      -1.3495      1.00000
    114      -1.3312      1.00000
    115      -1.3312      1.00000
    116      -1.3262      1.00000
    117      -1.1969      1.00000
    118      -1.1874      1.00000
    119      -1.1874      1.00000
    120      -1.1750      1.00000
    121       2.1334      0.00000
    122       2.1472      0.00000
    123       2.1482      0.00000
    124       2.1482      0.00000
    125       2.3307      0.00000
    126       2.3588      0.00000
    127       2.4420      0.00000
    128       2.4420      0.00000
    129       2.4427      0.00000
    130       2.4551      0.00000
    131       2.6192      0.00000
    132       2.6192      0.00000
    133       2.6433      0.00000
    134       2.6433      0.00000
    135       2.8706      0.00000
    136       2.8909      0.00000
    137       3.6382      0.00000
    138       3.6554      0.00000
    139       3.7861      0.00000
    140       3.7861      0.00000
    141       3.8529      0.00000
    142       4.0050      0.00000
    143       4.0050      0.00000
    144       4.0177      0.00000
    145       4.0430      0.00000
    146       4.0717      0.00000
    147       4.0717      0.00000
    148       4.0972      0.00000
    149       4.1128      0.00000
    150       4.1214      0.00000
    151       4.1214      0.00000
    152       4.3415      0.00000
    153       4.4824      0.00000
    154       4.4824      0.00000
    155       4.6910      0.00000
    156       4.7032      0.00000
    157       5.9026      0.00000
    158       6.4497      0.00000
    159       6.4497      0.00000
    160       6.9521      0.00000

 k-point     7 :      -0.3750    0.3750    0.1250
  band No.  band energies     occupation 
      1     -34.9921      1.00000
      2     -34.9921      1.00000
      3     -34.9915      1.00000
      4     -34.9913      1.00000
      5     -34.9881      1.00000
      6     -34.9881      1.00000
      7     -34.9875      1.00000
      8     -34.9872      1.00000
      9     -34.9573      1.00000
     10     -34.9570      1.00000
     11     -34.9565      1.00000
     12     -34.9565      1.00000
     13     -34.9534      1.00000
     14     -34.9531      1.00000
     15     -34.9526      1.00000
     16     -34.9526      1.00000
     17     -34.6439      1.00000
     18     -34.6431      1.00000
     19     -34.6431      1.00000
     20     -34.6423      1.00000
     21     -34.5545      1.00000
     22     -34.5538      1.00000
     23     -34.5538      1.00000
     24     -34.5531      1.00000
     25     -23.0860      1.00000
     26     -23.0628      1.00000
     27     -22.9980      1.00000
     28     -22.9980      1.00000
     29     -22.9780      1.00000
     30     -22.9780      1.00000
     31     -22.8555      1.00000
     32     -22.8470      1.00000
     33     -22.8372      1.00000
     34     -22.8349      1.00000
     35     -22.7696      1.00000
     36     -22.7696      1.00000
     37     -22.7562      1.00000
     38     -22.7562      1.00000
     39     -22.7457      1.00000
     40     -22.7327      1.00000
     41     -16.7090      1.00000
     42     -16.7075      1.00000
     43     -16.7075      1.00000
     44     -16.7063      1.00000
     45     -15.7640      1.00000
     46     -15.7524      1.00000
     47     -15.7524      1.00000
     48     -15.7410      1.00000
     49      -6.4404      1.00000
     50      -6.4058      1.00000
     51      -6.3440      1.00000
     52      -6.3440      1.00000
     53      -6.3052      1.00000
     54      -6.3052      1.00000
     55      -6.1912      1.00000
     56      -6.1546      1.00000
     57      -5.8729      1.00000
     58      -5.7892      1.00000
     59      -5.7551      1.00000
     60      -5.7551      1.00000
     61      -5.7468      1.00000
     62      -5.6791      1.00000
     63      -5.6791      1.00000
     64      -5.6659      1.00000
     65      -5.1949      1.00000
     66      -5.1246      1.00000
     67      -5.0423      1.00000
     68      -5.0419      1.00000
     69      -5.0419      1.00000
     70      -5.0345      1.00000
     71      -4.8772      1.00000
     72      -4.8772      1.00000
     73      -4.8722      1.00000
     74      -4.8456      1.00000
     75      -4.8456      1.00000
     76      -4.8265      1.00000
     77      -4.7787      1.00000
     78      -4.7787      1.00000
     79      -4.6086      1.00000
     80      -4.5208      1.00000
     81      -4.4704      1.00000
     82      -4.4703      1.00000
     83      -4.4703      1.00000
     84      -4.3801      1.00000
     85      -4.3420      1.00000
     86      -4.3216      1.00000
     87      -4.3216      1.00000
     88      -4.3071      1.00000
     89      -4.1000      1.00000
     90      -3.9885      1.00000
     91      -3.9885      1.00000
     92      -3.8590      1.00000
     93      -3.7318      1.00000
     94      -3.7041      1.00000
     95      -3.6827      1.00000
     96      -3.6827      1.00000
     97      -3.6461      1.00000
     98      -3.6461      1.00000
     99      -3.4749      1.00000
    100      -3.4460      1.00000
    101      -1.9461      1.00000
    102      -1.9053      1.00000
    103      -1.9053      1.00000
    104      -1.8806      1.00000
    105      -1.6652      1.00000
    106      -1.5914      1.00000
    107      -1.5914      1.00000
    108      -1.5255      1.00000
    109      -1.5102      1.00000
    110      -1.4951      1.00000
    111      -1.4951      1.00000
    112      -1.4673      1.00000
    113      -1.3495      1.00000
    114      -1.3312      1.00000
    115      -1.3312      1.00000
    116      -1.3262      1.00000
    117      -1.1969      1.00000
    118      -1.1874      1.00000
    119      -1.1874      1.00000
    120      -1.1750      1.00000
    121       2.1334      0.00000
    122       2.1472      0.00000
    123       2.1482      0.00000
    124       2.1482      0.00000
    125       2.3307      0.00000
    126       2.3588      0.00000
    127       2.4420      0.00000
[...]
  0.000  -0.000  -0.000   0.000   0.000  -0.000  -0.000  -0.000   0.000   0.000   0.000   0.000  -0.000  -0.000  -0.000  -0.000
 -0.000  -0.000  -0.000  -0.000   0.000  -0.000  -0.000   0.000   0.000   0.000  -0.000  -0.000  -0.000  -0.000  -0.000   0.000
 -0.000   0.000  -0.000  -0.000  -0.000   0.000   0.000   0.000  -0.000   0.000  -0.000  -0.000  -0.000   0.000  -0.000  -0.000
 -0.000   0.000  -0.000  -0.000   0.000   0.000  -0.000  -0.000   0.000  -0.000  -0.000  -0.000   0.000   0.000   0.000   0.000
  0.000   0.000  -0.000  -0.000   0.000  -0.000  -0.000  -0.000  -0.000  -0.000  -0.000   0.000   0.000   0.000   0.000   0.000
 -0.000   0.000   0.000   0.000  -0.000   0.000   0.000  -0.000  -0.000  -0.000  -0.000  -0.000   0.000   0.000   0.000   0.000
  0.000   0.000   0.000   0.000  -0.000   0.000   0.000  -0.000  -0.000  -0.000   0.000  -0.000   0.000   0.000   0.000  -0.000
 -0.000  -0.000  -0.000   0.000  -0.000   0.000   0.000   0.000   0.000   0.000   0.000   0.000  -0.000   0.000  -0.000  -0.000
 -0.000  -0.000  -0.000   0.000  -0.000   0.000   0.000  -0.000   0.000   0.000   0.000  -0.000   0.000  -0.000   0.000   0.000


------------------------ aborting loop because EDIFF is reached ----------------------------------------


 


 total charge     
 
# of ion       s       p       d       tot
------------------------------------------
    1        0.305   6.476   1.724   8.505
    2        0.305   6.476   1.724   8.505
    3        0.305   6.476   1.724   8.505
    4        0.305   6.476   1.724   8.505
    5        0.305   6.476   1.724   8.505
    6        0.305   6.476   1.724   8.505
    7        0.305   6.476   1.724   8.505
    8        0.305   6.476   1.724   8.505
    9        1.571   3.461   0.000   5.033
   10        1.571   3.461   0.000   5.033
   11        1.571   3.461   0.000   5.033
   12        1.571   3.461   0.000   5.033
   13        1.571   3.461   0.000   5.033
   14        1.571   3.461   0.000   5.033
   15        1.571   3.461   0.000   5.033
   16        1.571   3.461   0.000   5.033
   17        1.729   4.382   0.000   6.111
   18        1.729   4.382   0.000   6.111
   19        1.729   4.382   0.000   6.111
   20        1.729   4.382   0.000   6.111
   21        1.729   4.382   0.000   6.111
   22        1.729   4.382   0.000   6.111
   23        1.729   4.382   0.000   6.111
   24        1.729   4.382   0.000   6.111
   25        1.729   4.382   0.000   6.111
   26        1.729   4.382   0.000   6.111
   27        1.729   4.382   0.000   6.111
   28        1.729   4.382   0.000   6.111
   29        1.729   4.382   0.000   6.111
   30        1.729   4.382   0.000   6.111
   31        1.729   4.382   0.000   6.111
   32        1.729   4.382   0.000   6.111
--------------------------------------------------
tot         42.673 149.607  13.789 206.068
 


 magnetization (x)
 
# of ion       s       p       d       tot
------------------------------------------
    1       -0.000   0.000  -0.000  -0.000
    2       -0.000   0.000  -0.000  -0.000
    3       -0.000  -0.000   0.000  -0.000
    4       -0.000  -0.000   0.000  -0.000
    5       -0.000  -0.000   0.000  -0.000
    6       -0.000  -0.000   0.000   0.000
    7       -0.000   0.000  -0.000  -0.000
    8       -0.000   0.000  -0.000  -0.000
    9       -0.000  -0.000   0.000  -0.000
   10       -0.000  -0.000   0.000  -0.000
   11       -0.000  -0.000   0.000  -0.000
   12       -0.000  -0.000   0.000  -0.000
   13       -0.000  -0.000   0.000  -0.000
   14       -0.000  -0.000   0.000  -0.000
   15       -0.000  -0.000   0.000  -0.000
   16       -0.000  -0.000   0.000  -0.000
   17       -0.000   0.000   0.000   0.000
   18       -0.000   0.000   0.000   0.000
   19       -0.000   0.000   0.000   0.000
   20        0.000   0.000   0.000   0.000
   21       -0.000   0.000   0.000   0.000
   22       -0.000   0.000   0.000   0.000
   23       -0.000   0.000   0.000   0.000
   24        0.000   0.000   0.000   0.000
   25        0.000   0.000   0.000   0.000
   26        0.000   0.000   0.000   0.000
   27        0.000   0.000   0.000   0.000
   28        0.000   0.000   0.000   0.000
   29        0.000   0.000   0.000   0.000
   30        0.000   0.000   0.000   0.000
   31        0.000   0.000   0.000   0.000
   32        0.000   0.000   0.000   0.000
--------------------------------------------------
tot         -0.000  -0.000   0.000  -0.000
 
    CHARGE:  cpu time    1.0078: real time    1.0074
    FORLOC:  cpu time    0.0090: real time    0.0090
    FORNL :  cpu time    6.0481: real time    6.0401
    STRESS:  cpu time   17.9863: real time   17.9516
    FORCOR:  cpu time    0.1180: real time    0.1166
    FORHAR:  cpu time    0.0180: real time    0.0192
    MIXING:  cpu time    0.0010: real time    0.0014
    OFIELD:  cpu time    0.0000: real time    0.0000

  FORCE on cell =-STRESS in cart. coord.  units (eV):
  Direction    XX          YY          ZZ          XY          YZ          ZX
  --------------------------------------------------------------------------------------
  Alpha Z   755.92140   755.92140   755.92140
  Ewald   -4359.17045 -4359.17383 -4064.49948     0.00249     0.00090     0.00083
  Hartree  2692.62001  2692.61811  2862.30828     0.00132     0.00047     0.00043
  E(xc)   -1231.60344 -1231.60344 -1232.55055     0.00000     0.00000     0.00000
  Local   -1971.40690 -1971.40170 -2556.53032    -0.00377    -0.00136    -0.00124
  n-local  -972.75031  -972.75034  -952.11032     0.00002     0.00001     0.00001
  augment   743.69768   743.69769   785.74798    -0.00000     0.00000     0.00000
  Kinetic  4342.66236  4342.66235  4401.71789    -0.00010    -0.00005    -0.00004
  Fock        0.00000     0.00000     0.00000     0.00000     0.00000     0.00000
  -------------------------------------------------------------------------------------
  Total      -0.02965    -0.02977     0.00489    -0.00004    -0.00002    -0.00002
  in kB      -0.10255    -0.10297     0.01692    -0.00013    -0.00008    -0.00007
  external pressure =       -0.06 kB  Pullay stress =        0.00 kB


 VOLUME and BASIS-vectors are now :
 -----------------------------------------------------------------------------
  energy-cutoff  :      700.00
  volume of cell :      463.23
      direct lattice vectors                 reciprocal lattice vectors
     7.907866006  0.000002052  0.000000690     0.126456366 -0.000000033 -0.000000011
     0.000002049  7.907867174  0.000000755    -0.000000033  0.126456348 -0.000000012
     0.000000647  0.000000706  7.407621750    -0.000000012 -0.000000013  0.134996094

  length of vectors
     7.907866006  7.907867174  7.407621750     0.126456366  0.126456348  0.134996094


 FORCES acting on ions
    electron-ion (+dipol)            ewald-force                    non-local-force                 convergence-correction
 -----------------------------------------------------------------------------------------------
   -.864E-05 -.478E-03 0.777E-05   0.102E-04 0.473E-03 -.775E-05   -.851E-07 0.322E-05 0.583E-08   -.778E-06 0.155E-05 -.218E-08
   -.712E-05 -.467E-03 -.960E-05   0.869E-05 0.462E-03 0.960E-05   -.934E-07 0.310E-05 0.156E-07   -.735E-06 0.153E-05 -.463E-07
   0.816E-05 0.520E-03 0.336E-04   -.972E-05 -.516E-03 -.335E-04   0.127E-06 -.342E-05 -.354E-07   0.730E-06 -.146E-05 -.138E-07
   0.642E-05 0.503E-03 -.317E-04   -.802E-05 -.498E-03 0.317E-04   0.144E-06 -.321E-05 0.700E-07   0.737E-06 -.146E-05 -.363E-07
   0.171E-05 -.799E-03 0.230E-04   -.337E-05 0.791E-03 -.229E-04   0.204E-06 0.995E-05 -.314E-07   0.729E-06 -.102E-05 0.310E-07
   0.390E-05 -.781E-03 -.218E-04   -.555E-05 0.773E-03 0.218E-04   0.190E-06 0.976E-05 0.386E-07   0.760E-06 -.103E-05 -.949E-07
   -.833E-05 0.968E-03 0.439E-04   0.993E-05 -.957E-03 -.439E-04   -.896E-07 -.111E-04 -.994E-07   -.786E-06 0.111E-05 0.156E-06
   -.955E-05 0.957E-03 -.472E-04   0.111E-04 -.947E-03 0.472E-04   -.749E-07 -.109E-04 0.823E-07   -.724E-06 0.110E-05 -.190E-06
   -.612E-05 -.199E-03 -.476E-04   0.725E-05 0.195E-03 0.420E-04   -.662E-06 0.492E-05 -.137E-05   -.456E-06 0.580E-06 0.912E-05
   -.575E-05 -.198E-03 0.481E-04   0.689E-05 0.193E-03 -.425E-04   -.676E-06 0.505E-05 0.127E-05   -.463E-06 0.564E-06 -.910E-05
   0.681E-05 0.288E-03 -.236E-05   -.802E-05 -.291E-03 0.452E-05   0.755E-06 0.324E-05 -.423E-06   0.457E-06 -.561E-06 -.168E-05
   0.715E-05 0.288E-03 -.144E-05   -.839E-05 -.291E-03 -.280E-06   0.776E-06 0.334E-05 -.358E-07   0.467E-06 -.557E-06 0.171E-05
   0.745E-05 -.133E-03 0.129E-04   -.891E-05 0.107E-03 -.961E-05   0.105E-05 0.312E-04 0.841E-07   0.462E-06 -.147E-06 -.401E-05
   0.663E-05 -.134E-03 -.144E-04   -.803E-05 0.108E-03 0.113E-04   0.966E-06 0.313E-04 -.235E-06   0.469E-06 -.134E-06 0.405E-05
   -.656E-05 0.284E-03 0.852E-04   0.767E-05 -.267E-03 -.806E-04   -.627E-06 -.217E-04 0.249E-05   -.462E-06 0.166E-06 -.113E-04
   -.743E-05 0.286E-03 -.809E-04   0.864E-05 -.269E-03 0.758E-04   -.767E-06 -.217E-04 -.210E-05   -.453E-06 0.148E-06 0.113E-04
   -.749E-04 -.298E-03 0.137E-04   0.830E-04 0.283E-03 -.156E-04   -.748E-06 0.165E-04 0.196E-05   -.537E-05 0.191E-06 0.527E-07
   -.411E-05 -.302E-03 -.363E-05   0.161E-04 0.288E-03 0.193E-05   0.233E-05 0.153E-04 0.191E-05   -.153E-04 0.135E-06 -.140E-07
   0.255E-03 0.168E-03 0.473E-05   -.275E-03 -.127E-03 -.302E-06   0.937E-05 -.444E-04 -.496E-05   0.386E-05 -.546E-07 0.463E-07
   0.265E-03 0.177E-03 -.171E-04   -.274E-03 -.137E-03 0.166E-04   0.678E-05 -.425E-04 0.619E-06   -.457E-05 -.342E-07 -.112E-07
   0.787E-04 -.283E-03 0.219E-05   -.867E-04 0.273E-03 -.143E-06   0.535E-06 0.107E-04 -.225E-05   0.534E-05 0.467E-06 -.663E-08
   0.672E-05 -.277E-03 -.146E-04   -.189E-04 0.268E-03 0.165E-04   -.227E-05 0.971E-05 -.214E-05   0.153E-04 0.524E-06 -.161E-07
   -.253E-03 0.156E-03 0.152E-04   0.272E-03 -.120E-03 -.144E-04   -.884E-05 -.379E-04 -.926E-06   -.387E-05 -.386E-06 0.461E-07
   -.263E-03 0.152E-03 -.542E-05   0.274E-03 -.117E-03 0.119E-05   -.703E-05 -.367E-04 0.472E-05   0.458E-05 -.408E-06 -.330E-07
   -.154E-04 -.197E-03 0.131E-04   0.135E-04 0.209E-03 -.139E-04   0.222E-05 -.574E-05 0.808E-06   -.114E-06 -.686E-06 0.228E-07
   -.122E-04 -.143E-03 -.761E-05   0.984E-05 0.158E-03 0.675E-05   0.280E-05 -.413E-05 0.996E-06   -.184E-06 -.853E-05 -.335E-07
   0.179E-04 0.151E-03 0.940E-05   -.164E-04 -.157E-03 -.895E-05   -.189E-05 0.841E-06 -.502E-06   0.173E-06 0.577E-06 -.166E-07
   0.118E-04 0.994E-04 -.106E-04   -.938E-05 -.109E-03 0.107E-04   -.285E-05 -.118E-05 -.123E-06   0.172E-06 0.847E-05 -.263E-08
   0.159E-04 0.561E-04 0.101E-04   -.143E-04 -.680E-04 -.799E-05   -.204E-05 0.128E-05 -.235E-05   0.176E-06 0.868E-05 0.413E-07
   0.988E-05 0.627E-04 -.120E-04   -.732E-05 -.681E-04 0.106E-04   -.302E-05 0.285E-06 0.160E-05   0.173E-06 0.228E-05 -.517E-07
   -.159E-04 -.168E-03 0.135E-04   0.138E-04 0.182E-03 -.127E-04   0.247E-05 -.289E-05 -.906E-06   -.937E-07 -.882E-05 0.326E-07
   -.128E-04 -.172E-03 -.900E-05   0.102E-04 0.178E-03 0.682E-05   0.300E-05 -.159E-06 0.247E-05   -.184E-06 -.233E-05 -.508E-07
 -----------------------------------------------------------------------------------------------
   -.203E-05 0.888E-04 -.588E-06   0.444E-13 -.748E-13 -.165E-14   0.195E-05 -.881E-04 0.651E-06   0.510E-07 0.448E-06 -.100E-06
 
 
 POSITION                                       TOTAL-FORCE (eV/Angst)
 -----------------------------------------------------------------------------------
      7.90787      0.00000      0.00000         0.000001      0.000000      0.000000
      7.90787      0.00000      3.70381         0.000001      0.000000     -0.000000
      0.00000      3.95393      0.00000        -0.000001     -0.000000     -0.000000
      0.00000      3.95393      3.70381        -0.000001     -0.000000      0.000000
      3.95394      7.90787      0.00000        -0.000001      0.000001      0.000000
      3.95394      7.90787      3.70381        -0.000001      0.000001     -0.000000
      3.95393      3.95393      0.00000         0.000001      0.000000      0.000000
      3.95393      3.95393      3.70381         0.000001      0.000000     -0.000000
      0.00000      7.90787      1.85191         0.000000      0.000001      0.000002
      0.00000      7.90787      5.55572         0.000000      0.000001     -0.000002
      7.90787      3.95394      1.85191         0.000000     -0.000001      0.000000
      7.90787      3.95394      5.55572         0.000000     -0.000001     -0.000000
      3.95394      7.90787      1.85191         0.000000      0.000005     -0.000001
      3.95394      7.90787      5.55572         0.000000      0.000005      0.000001
      3.95393      3.95394      1.85191         0.000000     -0.000005     -0.000004
      3.95393      3.95394      5.55572         0.000000     -0.000005      0.000004
      1.97697      7.90787      7.40762         0.000002      0.000002      0.000000
      1.97697      7.90787      3.70381        -0.000001      0.000002      0.000000
      1.97697      3.95394      0.00000        -0.000006     -0.000003     -0.000000
      1.97697      3.95394      3.70381        -0.000008     -0.000003      0.000000
      5.93090      7.90787      0.00000        -0.000002      0.000001     -0.000000
      5.93090      7.90787      3.70381         0.000001      0.000001     -0.000000
      5.93090      3.95394      0.00000         0.000006     -0.000003     -0.000000
      5.93090      3.95394      3.70381         0.000008     -0.000003      0.000000
      7.90787      1.97697      7.40762         0.000000      0.000005      0.000000
      7.90787      1.97697      3.70381         0.000000      0.000003      0.000000
      0.00000      5.93090      0.00000        -0.000000     -0.000005     -0.000000
      0.00000      5.93090      3.70381        -0.000000     -0.000003     -0.000000
      3.95393      1.97697      0.00000        -0.000000     -0.000002     -0.000000
      3.95393      1.97697      3.70381        -0.000000     -0.000003      0.000000
      3.95393      5.93090      0.00000         0.000000      0.000003     -0.000000
      3.95393      5.93090      3.70381         0.000000      0.000004      0.000000
 -----------------------------------------------------------------------------------
    total drift:                               -0.000000      0.000001     -0.000000


--------------------------------------------------------------------------------------------------------



  FREE ENERGIE OF THE ION-ELECTRON SYSTEM (eV)
  ---------------------------------------------------
  free  energy   TOTEN  =      -211.56955064 eV

  energy  without entropy=     -211.56955064  energy(sigma->0) =     -211.56955064
 


--------------------------------------------------------------------------------------------------------


    POTLOK:  cpu time    0.9419: real time    0.9397


--------------------------------------------------------------------------------------------------------


 stress matrix after NEB project (eV)
     -0.02965     -0.00004     -0.00002
     -0.00004     -0.02977     -0.00002
     -0.00002     -0.00002      0.00489
  FORCES: max atom, RMS     0.000008    0.000004
  FORCE total and by dimension    0.000022    0.000008
  Stress total and by dimension    0.042301    0.029771
 Quasi-Newton relaxation of ions (Broydens 2nd method)
  g(Force)  = 0.244E-10   g(Stress)= 0.270E-05

 Reset! Starting new Quasi-Newton update for ions 


--------------------------------------------------------------------------------------------------------


  
 reached required accuracy - stopping structural energy minimisation
 writing wavefunctions
     LOOP+:  cpu time  103.0243: real time  114.6670
    4ORBIT:  cpu time    0.0000: real time    0.0000
 


 total charge     
 
# of ion       s       p       d       tot
------------------------------------------
    1        0.305   6.476   1.724   8.505
    2        0.305   6.476   1.724   8.505
    3        0.305   6.476   1.724   8.505
    4        0.305   6.476   1.724   8.505
    5        0.305   6.476   1.724   8.505
    6        0.305   6.476   1.724   8.505
    7        0.305   6.476   1.724   8.505
    8        0.305   6.476   1.724   8.505
    9        1.571   3.461   0.000   5.033
   10        1.571   3.461   0.000   5.033
   11        1.571   3.461   0.000   5.033
   12        1.571   3.461   0.000   5.033
   13        1.571   3.461   0.000   5.033
   14        1.571   3.461   0.000   5.033
   15        1.571   3.461   0.000   5.033
   16        1.571   3.461   0.000   5.033
   17        1.729   4.382   0.000   6.111
   18        1.729   4.382   0.000   6.111
   19        1.729   4.382   0.000   6.111
   20        1.729   4.382   0.000   6.111
   21        1.729   4.382   0.000   6.111
   22        1.729   4.382   0.000   6.111
   23        1.729   4.382   0.000   6.111
   24        1.729   4.382   0.000   6.111
   25        1.729   4.382   0.000   6.111
   26        1.729   4.382   0.000   6.111
   27        1.729   4.382   0.000   6.111
   28        1.729   4.382   0.000   6.111
   29        1.729   4.382   0.000   6.111
   30        1.729   4.382   0.000   6.111
   31        1.729   4.382   0.000   6.111
   32        1.729   4.382   0.000   6.111
--------------------------------------------------
tot         42.673 149.607  13.789 206.068
 


 magnetization (x)
 
# of ion       s       p       d       tot
------------------------------------------
    1       -0.000   0.000  -0.000  -0.000
    2       -0.000   0.000  -0.000  -0.000
    3       -0.000  -0.000   0.000  -0.000
    4       -0.000  -0.000   0.000  -0.000
    5       -0.000  -0.000   0.000  -0.000
    6       -0.000  -0.000   0.000   0.000
    7       -0.000   0.000  -0.000  -0.000
    8       -0.000   0.000  -0.000  -0.000
    9       -0.000  -0.000   0.000  -0.000
   10       -0.000  -0.000   0.000  -0.000
   11       -0.000  -0.000   0.000  -0.000
   12       -0.000  -0.000   0.000  -0.000
   13       -0.000  -0.000   0.000  -0.000
   14       -0.000  -0.000   0.000  -0.000
   15       -0.000  -0.000   0.000  -0.000
   16       -0.000  -0.000   0.000  -0.000
   17       -0.000   0.000   0.000   0.000
   18       -0.000   0.000   0.000   0.000
   19       -0.000   0.000   0.000   0.000
   20        0.000   0.000   0.000   0.000
   21       -0.000   0.000   0.000   0.000
   22       -0.000   0.000   0.000   0.000
   23       -0.000   0.000   0.000   0.000
   24        0.000   0.000   0.000   0.000
   25        0.000   0.000   0.000   0.000
   26        0.000   0.000   0.000   0.000
   27        0.000   0.000   0.000   0.000
   28        0.000   0.000   0.000   0.000
   29        0.000   0.000   0.000   0.000
   30        0.000   0.000   0.000   0.000
   31        0.000   0.000   0.000   0.000
   32        0.000   0.000   0.000   0.000
--------------------------------------------------
tot         -0.000  -0.000   0.000  -0.000
 

 total amount of memory used by VASP MPI-rank0   104632. kBytes
=======================================================================

   base      :      30000. kBytes
   nonlr-proj:       7805. kBytes
   fftplans  :       7712. kBytes
   grid      :       8037. kBytes
   one-center:        124. kBytes
   wavefun   :      50954. kBytes
 
  
  
 General timing and accounting informations for this job:
 ========================================================
  
                  Total CPU time used (sec):      151.409
                            User time (sec):      142.226
                          System time (sec):        9.183
                         Elapsed time (sec):      200.666
  
                   Maximum memory used (kb):      217456.
                   Average memory used (kb):           0.
  
                          Minor page faults:        81606
                          Major page faults:            2
                 Voluntary context switches:        57666
