       N       E                     dE             d eps       ncg     rms          rms(c)
DAV:   1    -0.211067468103E+03   -0.21107E+03   -0.82351E-07 11504   0.581E-03    0.215E-03
DAV:   2    -0.211067468025E+03    0.77343E-07   -0.31401E-07 10576   0.474E-03
   1 F= -.21106747E+03 E0= -.21106747E+03  d E =-.211067E+03  mag=     0.0000
