 vasp.5.4.4.18Apr17-6-g9f103f2a35 (build Apr 30 2017 20:10:35) complex          
  
 executed on             LinuxIFC date 2017.08.07  22:34:57
 running on   64 total cores
 distrk:  each k-point on   64 cores,    1 groups
 distr:  one band on NCORES_PER_BAND=   8 cores,    8 groups


--------------------------------------------------------------------------------------------------------


 INCAR:
 POTCAR:   PAW_PBE Ti_pv 07Sep2000                
 POTCAR:   PAW_PBE O 08Apr2002                    
 POTCAR:    PAW_PBE F 08Apr2002                   
 POTCAR:   PAW_PBE Ti_pv 07Sep2000                
   VRHFIN =Ti: d3 s1                                                            
   LEXCH  = PE                                                                  
   EATOM  =  1042.3781 eV,   76.6126 Ry                                         
                                                                                
   TITEL  = PAW_PBE Ti_pv 07Sep2000                                             
   LULTRA =        F    use ultrasoft PP ?                                      
   IUNSCR =        1    unscreen: 0-lin 1-nonlin 2-no                           
   RPACOR =    2.200    partial core radius                                     
   POMASS =   47.880; ZVAL   =   10.000    mass and valenz                      
   RCORE  =    2.500    outmost cutoff radius                                   
   RWIGS  =    2.500; RWIGS  =    1.323    wigner-seitz radius (au A)           
   ENMAX  =  222.338; ENMIN  =  166.753 eV                                      
   RCLOC  =    1.701    cutoff for local pot                                    
   LCOR   =        T    correct aug charges                                     
   LPAW   =        T    paw PP                                                  
   EAUG   =  482.848                                                            
   DEXC   =    -.008                                                            
   RMAX   =    3.092    core radius for proj-oper                               
   RAUG   =    1.300    factor for augmentation sphere                          
   RDEP   =    2.538    radius for radial grids                                 
   QCUT   =   -4.042; QGAM   =    8.085    optimization parameters              
                                                                                
   Description                                                                  
     l     E      TYP  RCUT    TYP  RCUT                                        
     1   .000     23  2.300                                                     
     1  -.100     23  2.300                                                     
     2   .000     23  2.500                                                     
     2   .000     23  2.500                                                     
     0   .000     23  2.500                                                     
     0  1.500     23  2.500                                                     
     3   .000      7   .000                                                     
  local pseudopotential read in
  partial core-charges read in
  atomic valenz-charges read in
  non local Contribution for L=           1  read in
    real space projection operators read in
  non local Contribution for L=           1  read in
    real space projection operators read in
  non local Contribution for L=           2  read in
    real space projection operators read in
  non local Contribution for L=           2  read in
    real space projection operators read in
  non local Contribution for L=           0  read in
    real space projection operators read in
  non local Contribution for L=           0  read in
    real space projection operators read in
    PAW grid and wavefunctions read in
 
   number of l-projection  operators is LMAX  =           6
   number of lm-projection operators is LMMAX =          18
 
 POTCAR:   PAW_PBE O 08Apr2002                    
   VRHFIN =O: s2p4                                                              
   LEXCH  = PE                                                                  
   EATOM  =   432.3788 eV,   31.7789 Ry                                         
                                                                                
   TITEL  = PAW_PBE O 08Apr2002                                                 
   LULTRA =        F    use ultrasoft PP ?                                      
   IUNSCR =        0    unscreen: 0-lin 1-nonlin 2-no                           
   RPACOR =     .000    partial core radius                                     
   POMASS =   16.000; ZVAL   =    6.000    mass and valenz                      
   RCORE  =    1.520    outmost cutoff radius                                   
   RWIGS  =    1.550; RWIGS  =     .820    wigner-seitz radius (au A)           
   ENMAX  =  400.000; ENMIN  =  300.000 eV                                      
   ICORE  =        2    local potential                                         
   LCOR   =        T    correct aug charges                                     
   LPAW   =        T    paw PP                                                  
   EAUG   =  605.392                                                            
   DEXC   =     .000                                                            
   RMAX   =    2.264    core radius for proj-oper                               
   RAUG   =    1.300    factor for augmentation sphere                          
   RDEP   =    1.550    radius for radial grids                                 
   QCUT   =   -5.520; QGAM   =   11.041    optimization parameters              
                                                                                
   Description                                                                  
     l     E      TYP  RCUT    TYP  RCUT                                        
     0   .000     23  1.200                                                     
     0  -.700     23  1.200                                                     
     1   .000     23  1.520                                                     
     1   .600     23  1.520                                                     
     2   .000      7  1.500                                                     
  local pseudopotential read in
  atomic valenz-charges read in
  non local Contribution for L=           0  read in
    real space projection operators read in
  non local Contribution for L=           0  read in
    real space projection operators read in
  non local Contribution for L=           1  read in
    real space projection operators read in
  non local Contribution for L=           1  read in
    real space projection operators read in
    PAW grid and wavefunctions read in
 
   number of l-projection  operators is LMAX  =           4
   number of lm-projection operators is LMMAX =           8
 
 POTCAR:    PAW_PBE F 08Apr2002                   
   VRHFIN =F: s2p5                                                              
   LEXCH  = PE                                                                  
   EATOM  =   659.6475 eV,   48.4827 Ry                                         
                                                                                
   TITEL  = PAW_PBE F 08Apr2002                                                 
   LULTRA =        F    use ultrasoft PP ?                                      
   IUNSCR =        1    unscreen: 0-lin 1-nonlin 2-no                           
   RPACOR =    1.200    partial core radius                                     
   POMASS =   18.998; ZVAL   =    7.000    mass and valenz                      
   RCORE  =    1.520    outmost cutoff radius                                   
   RWIGS  =    1.500; RWIGS  =    0.794    wigner-seitz radius (au A)           
   ENMAX  =  400.000; ENMIN  =  300.000 eV                                      
   ICORE  =        2    local potential                                         
   LCOR   =        T    correct aug charges                                     
   LPAW   =        T    paw PP                                                  
   EAUG   =  613.614                                                            
   RMAX   =    1.555    core radius for proj-oper                               
   RAUG   =    1.300    factor for augmentation sphere                          
   RDEP   =    1.539    radius for radial grids                                 
   RDEPT  =    1.299    core radius for aug-charge                              
                                                                                
   Atomic configuration                                                         
    4 entries                                                                   
     n  l   j            E        occ.                                          
     1  0  0.50      -663.3661   2.0000                                         
     2  0  0.50       -29.8995   2.0000                                         
     2  1  0.50       -11.1114   5.0000                                         
     3  2  1.50       -10.8847   0.0000                                         
   Description                                                                  
     l       E           TYP  RCUT    TYP  RCUT                                 
     0    -29.8995018     23  1.200                                             
     0     -9.5240782     23  1.200                                             
     1    -11.1113914     23  1.520                                             
     1      1.3605826     23  1.520                                             
     2    -10.8846608      7  1.500                                             
  local pseudopotential read in
  partial core-charges read in
  partial kinetic energy density read in
  atomic valenz-charges read in
  non local Contribution for L=           0  read in
    real space projection operators read in
  non local Contribution for L=           0  read in
    real space projection operators read in
  non local Contribution for L=           1  read in
    real space projection operators read in
  non local Contribution for L=           1  read in
    real space projection operators read in
    PAW grid and wavefunctions read in
 
   number of l-projection  operators is LMAX  =           4
   number of lm-projection operators is LMMAX =           8
 
 Optimization of the real space projectors (new method)

 maximal supplied QI-value         = 15.12
 optimisation between [QCUT,QGAM] = [ 13.45, 27.06] = [ 50.69,205.06] Ry 
 Optimized for a Real-space Cutoff    1.49 Angstroem

   l    n(q)    QCUT    max X(q) W(low)/X(q) W(high)/X(q)  e(spline) 
   1     12    13.455     4.841    0.13E-05    0.83E-06    0.56E-07
   1     12    13.455     5.701    0.32E-04    0.25E-04    0.17E-06
   2     11    13.455     4.569    0.64E-05    0.34E-05    0.50E-07
   2     11    13.455    32.276    0.49E-04    0.38E-04    0.46E-06
   0     12    13.455    30.046    0.17E-04    0.41E-05    0.51E-07
   0     12    13.455    45.433    0.12E-04    0.27E-04    0.38E-06
 Optimization of the real space projectors (new method)

 maximal supplied QI-value         = 24.76
 optimisation between [QCUT,QGAM] = [ 13.37, 26.98] = [ 50.04,203.89] Ry 
 Optimized for a Real-space Cutoff    1.17 Angstroem

   l    n(q)    QCUT    max X(q) W(low)/X(q) W(high)/X(q)  e(spline) 
   0      9    13.368     4.192    0.20E-04    0.58E-05    0.56E-07
   0      9    13.368     8.473    0.60E-04    0.52E-04    0.21E-06
   1      9    13.368     2.474    0.22E-04    0.17E-04    0.28E-07
   1      9    13.368     3.912    0.94E-04    0.97E-04    0.20E-06
 Optimization of the real space projectors (new method)

 maximal supplied QI-value         = 24.76
 optimisation between [QCUT,QGAM] = [ 13.37, 26.98] = [ 50.04,203.89] Ry 
 Optimized for a Real-space Cutoff    1.17 Angstroem

   l    n(q)    QCUT    max X(q) W(low)/X(q) W(high)/X(q)  e(spline) 
   0      9    13.368    14.049    0.39E-04    0.34E-04    0.16E-06
   0      9    13.368     8.945    0.54E-04    0.47E-04    0.20E-06
   1      9    13.368     7.086    0.99E-04    0.10E-03    0.23E-06
   1      9    13.368     6.747    0.86E-04    0.89E-04    0.21E-06

 ----------------------------------------------------------------------------- 
|                                                                             |
|  ADVICE TO THIS USER RUNNING 'VASP/VAMP'   (HEAR YOUR MASTER'S VOICE ...):  |
|                                                                             |
|      You enforced a specific xc-type in the INCAR file,                     |
|      a different type was found on the POTCAR file                          |
|          I HOPE YOU KNOW, WHAT YOU ARE  DOING                               |
|                                                                             |
 ----------------------------------------------------------------------------- 

 PAW_PBE Ti_pv 07Sep2000                :
 energy of atom  1       EATOM=-1042.3781
 kinetic energy error for atom=    0.0006 (will be added to EATOM!!)
 PAW_PBE O 08Apr2002                    :
 energy of atom  2       EATOM= -432.3788
 kinetic energy error for atom=    0.0091 (will be added to EATOM!!)
  PAW_PBE F 08Apr2002                   :
 energy of atom  3       EATOM= -659.6475
 kinetic energy error for atom=    0.0140 (will be added to EATOM!!)
 
 
 POSCAR: TiOF2 2x2x2 config 1440                 
  positions in direct lattice
  velocities in cartesian coordinates
 exchange correlation table for  LEXCH =       14
   RHO(1)=    0.500       N(1)  =     2000
   RHO(2)=  100.500       N(2)  =     4000

 VTST: version 3.1, (03/28/14)

 CHAIN: initializing optimizer
 
 OPT: Using VASP QUASI-newton optimizer
 CHAIN: Read ICHAIN            0
 
 POSCAR: TiOF2 2x2x2 config 1440                 
  positions in direct lattice
  velocities in cartesian coordinates
 


--------------------------------------------------------------------------------------------------------


 ion  position               nearest neighbor table
   1  0.002  0.001  0.000-  17 1.86  23 1.86  21 1.86  25 1.86  28 1.90  29 1.90
   2  0.001  0.980  0.500-  11 1.72  18 1.93  22 1.94  28 1.97  29 1.98  24 2.00
   3  0.982  0.501  0.987-   9 1.77  14 1.84  23 2.00  25 2.01  19 2.04  30 2.04
   4  0.985  0.499  0.512-  10 1.83  14 1.84  11 1.99  24 2.01  30 2.05  20 2.05
   5  0.502  0.001  0.002-  12 1.87  13 1.87  15 1.97  31 2.01  17 2.03  21 2.04
   6  0.500  0.001  0.482-  15 1.73  26 1.91  27 1.91  18 1.97  22 1.98  31 2.02
   7  0.505  0.501  0.007-  16 1.91   9 1.94  13 1.98  12 1.99  32 2.03  19 2.04
   8  0.511  0.500  0.483-  16 1.78  10 1.87  26 1.97  27 1.97  32 2.04  20 2.05
   9  0.755  0.501  0.001-   3 1.77   7 1.94
  10  0.751  0.498  0.498-   4 1.83   8 1.87
  11  0.001  0.757  0.498-   2 1.72   4 1.99
  12  0.500  0.243  0.998-   5 1.87   7 1.99
  13  0.500  0.758  0.998-   5 1.87   7 1.98
  14  0.003  0.498  0.750-   3 1.84   4 1.84
  15  0.502  0.000  0.257-   6 1.73   5 1.97
  16  0.496  0.501  0.254-   8 1.78   7 1.91
  17  0.240  0.000  0.997-   1 1.86   5 2.03
  18  0.248  0.004  0.504-   2 1.93   6 1.97
  19  0.243  0.501  0.002-   3 2.04   7 2.04
  20  0.248  0.497  0.499-   8 2.05   4 2.05
  21  0.763  0.000  0.997-   1 1.86   5 2.04
  22  0.753  0.006  0.504-   2 1.94   6 1.98
  23  0.005  0.242  0.005-   1 1.86   3 2.00
  24  0.003  0.239  0.496-   2 2.00   4 2.01
  25  0.005  0.760  0.005-   1 1.86   3 2.01
  26  0.496  0.247  0.513-   6 1.91   8 1.97
  27  0.496  0.755  0.512-   6 1.91   8 1.97
  28  0.001  0.004  0.246-   1 1.90   2 1.97
  29  0.001  0.005  0.755-   1 1.90   2 1.98
  30  0.008  0.497  0.249-   3 2.04   4 2.05
  31  0.502  0.000  0.742-   5 2.01   6 2.02
  32  0.491  0.501  0.746-   7 2.03   8 2.04
 

IMPORTANT INFORMATION: All symmetrisations will be switched off!
NOSYMM: (Re-)initialisation of all symmetry stuff for point group C_1.

 
 
 KPOINTS: Title                                   

Automatic generation of k-mesh.
Space group operators:
 irot       det(A)        alpha          n_x          n_y          n_z        tau_x        tau_y        tau_z
    1     1.000000     0.000000     1.000000     0.000000     0.000000     0.000000     0.000000     0.000000
 
 Subroutine IBZKPT returns following result:
 ===========================================
 
 Found     32 irreducible k-points:
 
 Following reciprocal coordinates:
            Coordinates               Weight
  0.125000  0.125000  0.125000      2.000000
  0.375000  0.125000  0.125000      2.000000
 -0.375000  0.125000  0.125000      2.000000
 -0.125000  0.125000  0.125000      2.000000
  0.125000  0.375000  0.125000      2.000000
  0.375000  0.375000  0.125000      2.000000
 -0.375000  0.375000  0.125000      2.000000
 -0.125000  0.375000  0.125000      2.000000
  0.125000 -0.375000  0.125000      2.000000
  0.375000 -0.375000  0.125000      2.000000
 -0.375000 -0.375000  0.125000      2.000000
 -0.125000 -0.375000  0.125000      2.000000
  0.125000 -0.125000  0.125000      2.000000
  0.375000 -0.125000  0.125000      2.000000
 -0.375000 -0.125000  0.125000      2.000000
 -0.125000 -0.125000  0.125000      2.000000
  0.125000  0.125000  0.375000      2.000000
  0.375000  0.125000  0.375000      2.000000
 -0.375000  0.125000  0.375000      2.000000
 -0.125000  0.125000  0.375000      2.000000
  0.125000  0.375000  0.375000      2.000000
  0.375000  0.375000  0.375000      2.000000
 -0.375000  0.375000  0.375000      2.000000
 -0.125000  0.375000  0.375000      2.000000
  0.125000 -0.375000  0.375000      2.000000
  0.375000 -0.375000  0.375000      2.000000
 -0.375000 -0.375000  0.375000      2.000000
 -0.125000 -0.375000  0.375000      2.000000
  0.125000 -0.125000  0.375000      2.000000
  0.375000 -0.125000  0.375000      2.000000
 -0.375000 -0.125000  0.375000      2.000000
 -0.125000 -0.125000  0.375000      2.000000
 
 Following cartesian coordinates:
            Coordinates               Weight
  0.016054  0.016234  0.016162      2.000000
  0.048158  0.016231  0.016169      2.000000
 -0.048154  0.016239  0.016149      2.000000
 -0.016050  0.016236  0.016156      2.000000
  0.016052  0.048698  0.016168      2.000000
  0.048156  0.048696  0.016175      2.000000
 -0.048156  0.048703  0.016154      2.000000
 -0.016052  0.048701  0.016161      2.000000
  0.016059 -0.048695  0.016151      2.000000
  0.048163 -0.048698  0.016158      2.000000
 -0.048149 -0.048690  0.016138      2.000000
 -0.016045 -0.048693  0.016145      2.000000
  0.016057 -0.016231  0.016157      2.000000
  0.048161 -0.016233  0.016164      2.000000
 -0.048151 -0.016226  0.016143      2.000000
 -0.016047 -0.016228  0.016150      2.000000
  0.016061  0.016239  0.048475      2.000000
  0.048165  0.016237  0.048482      2.000000
 -0.048147  0.016244  0.048461      2.000000
 -0.016043  0.016242  0.048468      2.000000
  0.016059  0.048704  0.048481      2.000000
  0.048163  0.048702  0.048487      2.000000
 -0.048149  0.048709  0.048467      2.000000
 -0.016045  0.048706  0.048474      2.000000
  0.016066 -0.048690  0.048464      2.000000
  0.048170 -0.048692  0.048471      2.000000
 -0.048142 -0.048685  0.048450      2.000000
 -0.016038 -0.048687  0.048457      2.000000
  0.016064 -0.016225  0.048470      2.000000
  0.048168 -0.016228  0.048476      2.000000
 -0.048144 -0.016220  0.048456      2.000000
 -0.016040 -0.016223  0.048463      2.000000
 


--------------------------------------------------------------------------------------------------------




 Dimension of arrays:
   k-points           NKPTS =     32   k-points in BZ     NKDIM =     32   number of bands    NBANDS=    160
   number of dos      NEDOS =   3001   number of ions     NIONS =     32
   non local maximal  LDIM  =      6   non local SUM 2l+1 LMDIM =     18
   total plane-waves  NPLWV = 343000
   max r-space proj   IRMAX =  10250   max aug-charges    IRDMAX= 229791
   dimension x,y,z NGX =    70 NGY =   70 NGZ =   70
   dimension x,y,z NGXF=   140 NGYF=  140 NGZF=  140
   support grid    NGXF=   280 NGYF=  280 NGZF=  280
   ions per type =               8   8  16
   NGX,Y,Z   is equivalent  to a cutoff of  14.94, 15.11, 15.04 a.u.
   NGXF,Y,Z  is equivalent  to a cutoff of  29.89, 30.22, 30.08 a.u.

 SYSTEM =  LTO                                     
 POSCAR =  TiOF2 2x2x2 config 1440                 

 Startparameter for this run:
   NWRITE =      2    write-flag & timer
   PREC   = accura    normal or accurate (medium, high low for compatibility)
   ISTART =      1    job   : 0-new  1-cont  2-samecut
   ICHARG =      0    charge: 1-file 2-atom 10-const
   ISPIN  =      2    spin polarized calculation?
   LNONCOLLINEAR =      F non collinear calculations
   LSORBIT =      F    spin-orbit coupling
   INIWAV =      1    electr: 0-lowe 1-rand  2-diag
   LASPH  =      T    aspherical Exc in radial PAW
   METAGGA=      F    non-selfconsistent MetaGGA calc.

 Electronic Relaxation 1
   ENCUT  =  700.0 eV  51.45 Ry    7.17 a.u.  16.80 16.61 16.69*2*pi/ulx,y,z
   ENINI  =  700.0     initial cutoff
   ENAUG  =  613.6 eV  augmentation charge cutoff
   NELM   =     60;   NELMIN=  2; NELMDL=  0     # of ELM steps 
   EDIFF  = 0.1E-05   stopping-criterion for ELM
   LREAL  =      T    real-space projection
   NLSPLINE    = F    spline interpolate recip. space projectors
   LCOMPAT=      F    compatible to vasp.4.4
   GGA_COMPAT  = T    GGA compatible to vasp.4.4-vasp.4.6
   LMAXPAW     = -100 max onsite density
   LMAXMIX     =    4 max onsite mixed and CHGCAR
   VOSKOWN=      0    Vosko Wilk Nusair interpolation
   ROPT   =   -0.00010  -0.00010  -0.00010
 Ionic relaxation
   EDIFFG = -.1E-01   stopping-criterion for IOM
   NSW    =    100    number of steps for IOM
   NBLOCK =      1;   KBLOCK =    100    inner block; outer block 
   IBRION =      1    ionic relax: 0-MD 1-quasi-New 2-CG
   NFREE  =      0    steps in history (QN), initial steepest desc. (CG)
   ISIF   =      3    stress and relaxation
   IWAVPR =     11    prediction:  0-non 1-charg 2-wave 3-comb
   ISYM   =      0    0-nonsym 1-usesym 2-fastsym
   LCORR  =      T    Harris-Foulkes like correction to forces

   POTIM  = 0.5000    time-step for ionic-motion
   TEIN   =    0.0    initial temperature
   TEBEG  =    0.0;   TEEND  =   0.0 temperature during run
   SMASS  =  -3.00    Nose mass-parameter (am)
   estimated Nose-frequenzy (Omega)   =  0.10E-29 period in steps =****** mass=  -0.139E-26a.u.
   SCALEE = 1.0000    scale energy and forces
   NPACO  =    256;   APACO  = 16.0  distance and # of slots for P.C.
   PSTRESS=    0.0 pullay stress

  Mass of Ions in am
   POMASS =  47.88 16.00 19.00
  Ionic Valenz
   ZVAL   =  10.00  6.00  7.00
  Atomic Wigner-Seitz radii
   RWIGS  =  -1.00 -1.00 -1.00
  virtual crystal weights 
   VCA    =   1.00  1.00  1.00
   NELECT =     240.0000    total number of electrons
   NUPDOWN=      -1.0000    fix difference up-down

 DOS related values:
   EMIN   =  10.00;   EMAX   =-10.00  energy-range for DOS
   EFERMI =   0.00
   ISMEAR =     0;   SIGMA  =   0.01  broadening in eV -4-tet -1-fermi 0-gaus

 Electronic relaxation 2 (details)
   IALGO  =     38    algorithm
   LDIAG  =      T    sub-space diagonalisation (order eigenvalues)
   LSUBROT=      F    optimize rotation matrix (better conditioning)
   TURBO    =      0    0=normal 1=particle mesh
   IRESTART =      0    0=no restart 2=restart with 2 vectors
   NREBOOT  =      0    no. of reboots
   NMIN     =      0    reboot dimension
   EREF     =   0.00    reference energy to select bands
   IMIX   =      4    mixing-type and parameters
     AMIX     =   0.40;   BMIX     =  1.00
     AMIX_MAG =   1.60;   BMIX_MAG =  1.00
     AMIN     =   0.10
     WC   =   100.;   INIMIX=   1;  MIXPRE=   1;  MAXMIX= -45

 Intra band minimization:
   WEIMIN = 0.0010     energy-eigenvalue tresh-hold
   EBREAK =  0.16E-08  absolut break condition
   DEPER  =   0.30     relativ break condition  

   TIME   =   0.40     timestep for ELM

  volume/ion in A,a.u.               =      14.50        97.84
  Fermi-wavevector in a.u.,A,eV,Ry     =   1.314170  2.483422 23.497854  1.727044
  Thomas-Fermi vector in A             =   2.444442
 
 Write flags
   LWAVE        =      T    write WAVECAR
   LDOWNSAMPLE  =      F    k-point downsampling of WAVECAR
   LCHARG       =      T    write CHGCAR
   LVTOT        =      F    write LOCPOT, total local potential
   LVHAR        =      F    write LOCPOT, Hartree potential only
   LELF         =      F    write electronic localiz. function (ELF)
   LORBIT       =     11    0 simple, 1 ext, 2 COOP (PROOUT), +10 PAW based schemes


 Dipole corrections
   LMONO  =      F    monopole corrections only (constant potential shift)
   LDIPOL =      F    correct potential (dipole corrections)
   IDIPOL =      0    1-x, 2-y, 3-z, 4-all directions 
   EPSILON=  1.0000000 bulk dielectric constant

 LDA+U is selected, type is set to LDAUTYPE =  2
   angular momentum for each species LDAUL =     2   -1   -1
   U (eV)           for each species LDAUU =   4.2  0.0  0.0
   J (eV)           for each species LDAUJ =   0.0  0.0  0.0
 Exchange correlation treatment:
   GGA     =    PS    GGA type
   LEXCH   =    14    internal setting for exchange type
   VOSKOWN=      0    Vosko Wilk Nusair interpolation
   LHFCALC =     F    Hartree Fock is set to
   LHFONE  =     F    Hartree Fock one center treatment
   AEXX    =    0.0000 exact exchange contribution

 Linear response parameters
   LEPSILON=     F    determine dielectric tensor
   LRPA    =     F    only Hartree local field effects (RPA)
   LNABLA  =     F    use nabla operator in PAW spheres
   LVEL    =     F    velocity operator in full k-point grid
   LINTERFAST=   F  fast interpolation
   KINTER  =     0    interpolate to denser k-point grid
   CSHIFT  =0.1000    complex shift for real part using Kramers Kronig
   OMEGAMAX=  -1.0    maximum frequency
   DEG_THRESHOLD= 0.2000000E-02 threshold for treating states as degnerate
   RTIME   =   -0.100 relaxation time in fs
  (WPLASMAI=    0.000 imaginary part of plasma frequency in eV, 0.658/RTIME)
   DFIELD  = 0.0000000 0.0000000 0.0000000 field for delta impulse in time
 
 Orbital magnetization related:
   ORBITALMAG=     F  switch on orbital magnetization
   LCHIMAG   =     F  perturbation theory with respect to B field
   DQ        =  0.001000  dq finite difference perturbation B field
   LLRAUG    =     F  two centre corrections for induced B field



--------------------------------------------------------------------------------------------------------


 quasi-Newton-method for relaxation of ions
 charge density and potential will be updated during run
 spin polarized calculation
 Variant of blocked Davidson
 Davidson routine will perform the subspace rotation
 perform sub-space diagonalisation
    after iterative eigenvector-optimisation
 modified Broyden-mixing scheme, WC =      100.0
 initial mixing is a Kerker type mixing with AMIX =  0.4000 and BMIX =      1.0000
 Hartree-type preconditioning will be used
 using additional bands           40
 real space projection scheme for non local part
 use partial core corrections
 calculate Harris-corrections to forces 
   (improved forces if not selfconsistent)
 use gradient corrections 
 use of overlap-Matrix (Vanderbilt PP)
 Gauss-broadening in eV      SIGMA  =   0.01


--------------------------------------------------------------------------------------------------------


  energy-cutoff  :      700.00
  volume of cell :      463.96
      direct lattice vectors                 reciprocal lattice vectors
     7.787207247  0.000558300 -0.001680894     0.128415749 -0.000009655  0.000027481
     0.000579288  7.700700268 -0.001320511    -0.000009305  0.129858325  0.000022000
    -0.001655798 -0.001310850  7.736934069     0.000027897  0.000022162  0.129250174

  length of vectors
     7.787207448  7.700700403  7.736934358     0.128415752  0.129858327  0.129250179


 
 old parameters found on file WAVECAR:
  energy-cutoff  :      700.00
  volume of cell :      463.99
      direct lattice vectors                 reciprocal lattice vectors
     7.787592281  0.000593255 -0.001689055     0.128409400 -0.000010216  0.000027617
     0.000612924  7.700785093 -0.001220708    -0.000009888  0.129856894  0.000020311
    -0.001664079 -0.001210293  7.736939299     0.000028032  0.000020486  0.129250086

  length of vectors

 
 k-points in units of 2pi/SCALE and weight: Title                                   
   0.01605429  0.01623385  0.01616246       0.031
   0.04815823  0.01623144  0.01616933       0.031
  -0.04815358  0.01623868  0.01614872       0.031
  -0.01604964  0.01623627  0.01615559       0.031
   0.01605197  0.04869843  0.01616796       0.031
   0.04815590  0.04869602  0.01617483       0.031
  -0.04815591  0.04870326  0.01615422       0.031
  -0.01605197  0.04870085  0.01616109       0.031
   0.01605895 -0.04869531  0.01615146       0.031
   0.04816288 -0.04869772  0.01615833       0.031
  -0.04814893 -0.04869048  0.01613772       0.031
  -0.01604499 -0.04869289  0.01614459       0.031
   0.01605662 -0.01623073  0.01615696       0.031
   0.04816056 -0.01623314  0.01616383       0.031
  -0.04815126 -0.01622590  0.01614322       0.031
  -0.01604732 -0.01622831  0.01615009       0.031
   0.01606127  0.01623939  0.04847500       0.031
   0.04816520  0.01623698  0.04848187       0.031
  -0.04814661  0.01624422  0.04846126       0.031
  -0.01604267  0.01624181  0.04846813       0.031
   0.01605894  0.04870398  0.04848050       0.031
   0.04816288  0.04870156  0.04848737       0.031
  -0.04814893  0.04870880  0.04846676       0.031
  -0.01604500  0.04870639  0.04847363       0.031
   0.01606592 -0.04868977  0.04846400       0.031
   0.04816986 -0.04869218  0.04847087       0.031
  -0.04814195 -0.04868494  0.04845026       0.031
  -0.01603802 -0.04868735  0.04845713       0.031
   0.01606359 -0.01622519  0.04846950       0.031
   0.04816753 -0.01622760  0.04847637       0.031
  -0.04814428 -0.01622036  0.04845576       0.031
  -0.01604034 -0.01622277  0.04846263       0.031
 
 k-points in reciprocal lattice and weights: Title                                   
   0.12500000  0.12500000  0.12500000       0.031
   0.37500000  0.12500000  0.12500000       0.031
  -0.37500000  0.12500000  0.12500000       0.031
  -0.12500000  0.12500000  0.12500000       0.031
   0.12500000  0.37500000  0.12500000       0.031
   0.37500000  0.37500000  0.12500000       0.031
  -0.37500000  0.37500000  0.12500000       0.031
  -0.12500000  0.37500000  0.12500000       0.031
   0.12500000 -0.37500000  0.12500000       0.031
   0.37500000 -0.37500000  0.12500000       0.031
  -0.37500000 -0.37500000  0.12500000       0.031
  -0.12500000 -0.37500000  0.12500000       0.031
   0.12500000 -0.12500000  0.12500000       0.031
   0.37500000 -0.12500000  0.12500000       0.031
  -0.37500000 -0.12500000  0.12500000       0.031
  -0.12500000 -0.12500000  0.12500000       0.031
   0.12500000  0.12500000  0.37500000       0.031
   0.37500000  0.12500000  0.37500000       0.031
  -0.37500000  0.12500000  0.37500000       0.031
  -0.12500000  0.12500000  0.37500000       0.031
   0.12500000  0.37500000  0.37500000       0.031
   0.37500000  0.37500000  0.37500000       0.031
  -0.37500000  0.37500000  0.37500000       0.031
  -0.12500000  0.37500000  0.37500000       0.031
   0.12500000 -0.37500000  0.37500000       0.031
   0.37500000 -0.37500000  0.37500000       0.031
  -0.37500000 -0.37500000  0.37500000       0.031
  -0.12500000 -0.37500000  0.37500000       0.031
   0.12500000 -0.12500000  0.37500000       0.031
   0.37500000 -0.12500000  0.37500000       0.031
  -0.37500000 -0.12500000  0.37500000       0.031
  -0.12500000 -0.12500000  0.37500000       0.031
 
 position of ions in fractional coordinates (direct lattice) 
   0.00218869  0.00127756  0.00048807
   0.00097501  0.97978033  0.50033064
   0.98185850  0.50060787  0.98655140
   0.98509361  0.49930890  0.51238620
   0.50151824  0.00078971  0.00242119
   0.50047520  0.00105182  0.48167300
   0.50544443  0.50093563  0.00709796
   0.51080553  0.50031563  0.48307269
   0.75480130  0.50127485  0.00058345
   0.75104584  0.49775028  0.49844169
   0.00065112  0.75686928  0.49831193
   0.50023428  0.24331073  0.99761706
   0.50027372  0.75820498  0.99771874
   0.00335552  0.49756317  0.75008016
   0.50233518  0.00049716  0.25743326
   0.49600294  0.50100426  0.25404470
   0.24046198  0.00035751  0.99688246
   0.24805801  0.00434921  0.50372920
   0.24305801  0.50147261  0.00207789
   0.24840464  0.49740709  0.49868126
   0.76345162  0.00040009  0.99682195
   0.75324506  0.00550076  0.50430271
   0.00477286  0.24234827  0.00536313
   0.00288052  0.23946865  0.49577296
   0.00458886  0.75961902  0.00536584
   0.49552046  0.24690402  0.51299727
   0.49560438  0.75459427  0.51238434
   0.00053763  0.00376421  0.24636376
   0.00077725  0.00457209  0.75453132
   0.00767158  0.49728122  0.24874868
   0.50246971  0.00019501  0.74216573
   0.49143831  0.50122380  0.74555939
 
 position of ions in cartesian coordinates  (Angst):
   0.01704372  0.00983872  0.00377079
   0.00733170  7.54433935  3.86972975
   7.64459210  3.85428610  7.63057168
   7.67056895  3.84490653  3.96198306
   3.90542293  0.00635815  0.01788853
   3.89650713  0.00774774  3.72582961
   3.93627898  3.85782804  0.05340539
   3.97723849  3.85243269  3.73598229
   5.87808353  3.86058801  0.00258340
   5.84801265  3.83279167  3.85449076
   0.00468377  5.82777061  3.85440596
   3.89391710  1.87263455  7.71733528
   3.89452234  5.83768076  7.71744200
   0.02517637  3.83060346  5.80265806
   3.91136221  0.00377148  1.99089910
   3.86234723  3.85802756  1.96403175
   1.87087685  0.00158058  7.71240918
   1.93084754  0.03297017  3.89689688
   1.89303017  3.86182321  0.01500572
   1.93384082  3.82986790  3.85718965
   5.94350567  0.00220051  7.71106193
   5.86484355  0.04211918  3.90048341
   0.03729878  1.86624705  0.04116611
   0.02174900  1.84342802  3.83544160
   0.03616557  5.84959390  0.04050434
   3.85801416  1.90093803  3.96786711
   3.85896276  5.81050934  3.96245438
   0.00378088  0.02866438  1.90609427
   0.00480591  0.03421963  5.83775173
   0.05961639  3.82909181  1.92388258
   3.91160702  0.00080939  5.74124250
   3.82598785  3.85907128  5.76685590
 


--------------------------------------------------------------------------------------------------------


 k-point  1 :   0.1250 0.1250 0.1250  plane waves:   19528
 k-point  2 :   0.3750 0.1250 0.1250  plane waves:   19527
 k-point  3 :  -0.3750 0.1250 0.1250  plane waves:   19528
 k-point  4 :  -0.1250 0.1250 0.1250  plane waves:   19525
 k-point  5 :   0.1250 0.3750 0.1250  plane waves:   19502
 k-point  6 :   0.3750 0.3750 0.1250  plane waves:   19495
 k-point  7 :  -0.3750 0.3750 0.1250  plane waves:   19493
 k-point  8 :  -0.1250 0.3750 0.1250  plane waves:   19502
 k-point  9 :   0.1250-0.3750 0.1250  plane waves:   19508
 k-point 10 :   0.3750-0.3750 0.1250  plane waves:   19492
 k-point 11 :  -0.3750-0.3750 0.1250  plane waves:   19491
 k-point 12 :  -0.1250-0.3750 0.1250  plane waves:   19502
 k-point 13 :   0.1250-0.1250 0.1250  plane waves:   19524
 k-point 14 :   0.3750-0.1250 0.1250  plane waves:   19530
 k-point 15 :  -0.3750-0.1250 0.1250  plane waves:   19530
 k-point 16 :  -0.1250-0.1250 0.1250  plane waves:   19522
 k-point 17 :   0.1250 0.1250 0.3750  plane waves:   19522
 k-point 18 :   0.3750 0.1250 0.3750  plane waves:   19511
 k-point 19 :  -0.3750 0.1250 0.3750  plane waves:   19509
 k-point 20 :  -0.1250 0.1250 0.3750  plane waves:   19523
 k-point 21 :   0.1250 0.3750 0.3750  plane waves:   19498
 k-point 22 :   0.3750 0.3750 0.3750  plane waves:   19512
 k-point 23 :  -0.3750 0.3750 0.3750  plane waves:   19515
 k-point 24 :  -0.1250 0.3750 0.3750  plane waves:   19497
 k-point 25 :   0.1250-0.3750 0.3750  plane waves:   19500
 k-point 26 :   0.3750-0.3750 0.3750  plane waves:   19511
 k-point 27 :  -0.3750-0.3750 0.3750  plane waves:   19512
 k-point 28 :  -0.1250-0.3750 0.3750  plane waves:   19503
 k-point 29 :   0.1250-0.1250 0.3750  plane waves:   19518
 k-point 30 :   0.3750-0.1250 0.3750  plane waves:   19508
 k-point 31 :  -0.3750-0.1250 0.3750  plane waves:   19507
 k-point 32 :  -0.1250-0.1250 0.3750  plane waves:   19525

 maximum and minimum number of plane-waves per node :      2472     2418

 maximum number of plane-waves:     19530
 maximum index in each direction: 
   IXMAX=   17   IYMAX=   16   IZMAX=   16
   IXMIN=  -17   IYMIN=  -16   IZMIN=  -17


 real space projection operators:
  total allocation   :      18443.89 KBytes
  max/ min on nodes  :       2452.08       1920.91


 parallel 3D FFT for wavefunctions:
    minimum data exchange during FFTs selected (reduces bandwidth)
 parallel 3D FFT for charge:
    minimum data exchange during FFTs selected (reduces bandwidth)


 total amount of memory used by VASP MPI-rank0   107323. kBytes
=======================================================================

   base      :      30000. kBytes
   nonlr-proj:       8547. kBytes
   fftplans  :       8424. kBytes
   grid      :       8783. kBytes
   one-center:        124. kBytes
   wavefun   :      51445. kBytes
 
     INWAV:  cpu time   29.8155: real time   40.6099
 Broyden mixing: mesh for mixing (old mesh)
   NGX = 33   NGY = 33   NGZ = 33
  (NGX  =140   NGY  =140   NGZ  =140)
  gives a total of  35937 points

 charge density for first step will be calculated from the start-wavefunctions


--------------------------------------------------------------------------------------------------------


 Maximum index for non-local projection operator         1381
 Maximum index for augmentation-charges         7715 (set IRDMAX)


--------------------------------------------------------------------------------------------------------


 initial charge from wavefunction
 First call to EWALD:  gamma=   0.229
 Maximum number of real-space cells 3x 3x 3
 Maximum number of reciprocal cells 3x 3x 3

    FEWALD:  cpu time    0.0040: real time    0.0034


--------------------------------------- Iteration      1(   1)  ---------------------------------------


    POTLOK:  cpu time    0.1980: real time    0.3117
    SETDIJ:  cpu time    0.8389: real time    0.8374
     EDDAV:  cpu time   19.4280: real time   19.4158
       DOS:  cpu time    0.0030: real time    0.0033
    CHARGE:  cpu time    1.1518: real time    1.1495
    MIXING:  cpu time    0.0060: real time    0.0066
    --------------------------------------------
      LOOP:  cpu time   21.6257: real time   21.7243

 eigenvalue-minimisations  : 11504
 total energy-change (2. order) :-0.2110675E+03  (-0.8235103E-07)
 number of electron     240.0000003 magnetization      -0.0000000
 augmentation part       61.9784528 magnetization      -0.0000000

 Broyden mixing:
  rms(total) = 0.21515E-03    rms(broyden)= 0.21242E-03
  rms(prec ) = 0.38134E-03
  weight for this iteration     100.00

 Free energy of the ion-electron system (eV)
  ---------------------------------------------------
  alpha Z        PSCENC =       754.73291379
  Ewald energy   TEWEN  =    -12732.61636107
  -Hartree energ DENC   =     -8288.27587057
  -exchange      EXHF   =         0.00000000
  -V(xc)+E(xc)   XCENC  =      1119.51283712
  PAW double counting   =     18021.63972157   -18144.17611759
  entropy T*S    EENTRO =        -0.00000000
  eigenvalues    EBANDS =     -3244.23780763
  atomic energy  EATOM  =     22302.35321627
  Solvation  Ediel_sol  =         0.00000000
  ---------------------------------------------------
  free energy    TOTEN  =      -211.06746810 eV

  energy without entropy =     -211.06746810  energy(sigma->0) =     -211.06746810


--------------------------------------------------------------------------------------------------------




--------------------------------------- Iteration      1(   2)  ---------------------------------------


    POTLOK:  cpu time    0.3040: real time    0.3153
    SETDIJ:  cpu time    0.8359: real time    0.8360
     EDDAV:  cpu time   18.6202: real time   18.6080
       DOS:  cpu time    0.0040: real time    0.0033
    --------------------------------------------
      LOOP:  cpu time   19.7640: real time   19.7625

 eigenvalue-minimisations  : 10576
 total energy-change (2. order) : 0.7734343E-07  (-0.3140085E-07)
 number of electron     240.0000003 magnetization      -0.0000000
 augmentation part       61.9784528 magnetization      -0.0000000

 Free energy of the ion-electron system (eV)
  ---------------------------------------------------
  alpha Z        PSCENC =       754.73291379
  Ewald energy   TEWEN  =    -12732.61636107
  -Hartree energ DENC   =     -8288.27955866
  -exchange      EXHF   =         0.00000000
  -V(xc)+E(xc)   XCENC  =      1119.51280707
  PAW double counting   =     18021.64729328   -18144.18336674
  entropy T*S    EENTRO =        -0.00000000
  eigenvalues    EBANDS =     -3244.23441197
  atomic energy  EATOM  =     22302.35321627
  Solvation  Ediel_sol  =         0.00000000
  ---------------------------------------------------
  free energy    TOTEN  =      -211.06746803 eV

  energy without entropy =     -211.06746803  energy(sigma->0) =     -211.06746803


--------------------------------------------------------------------------------------------------------




 average (electrostatic) potential at core
  the test charge radii are     1.0397  0.7215  0.7167
  (the norm of the test charge is              1.0000)
       1 -60.9794       2 -59.5634       3 -58.2731       4 -58.3751       5 -58.1186
       6 -59.1150       7 -57.9501       8 -58.2108       9 -73.5183      10 -73.5484
      11 -74.7354      12 -72.7140      13 -72.7138      14 -73.6597      15 -74.2816
      16 -73.3999      17 -80.3409      18 -79.9938      19 -77.8773      20 -77.9578
      21 -80.3278      22 -79.9974      23 -80.4249      24 -79.0085      25 -80.4274
      26 -79.4111      27 -79.4197      28 -80.7348      29 -80.7357      30 -78.1967
      31 -78.5679      32 -77.7876
 
 
 
 E-fermi :   0.0037     XC(G=0):  -8.9630     alpha+bet : -7.6161


 spin component 1

 k-point     1 :       0.1250    0.1250    0.1250
  band No.  band energies     occupation 
      1     -36.9440      1.00000
      2     -36.8993      1.00000
      3     -36.8922      1.00000
      4     -35.6593      1.00000
      5     -35.6193      1.00000
      6     -35.3742      1.00000
      7     -35.2034      1.00000
      8     -35.1336      1.00000
      9     -34.9236      1.00000
     10     -34.4255      1.00000
     11     -34.3517      1.00000
     12     -34.2883      1.00000
     13     -34.2861      1.00000
     14     -34.2444      1.00000
     15     -34.1976      1.00000
     16     -34.1538      1.00000
     17     -34.1000      1.00000
     18     -34.0994      1.00000
     19     -34.0763      1.00000
     20     -34.0285      1.00000
     21     -33.8122      1.00000
     22     -33.7879      1.00000
     23     -33.6791      1.00000
     24     -33.5995      1.00000
     25     -24.6806      1.00000
     26     -24.3113      1.00000
     27     -24.1347      1.00000
     28     -24.1117      1.00000
     29     -23.8618      1.00000
     30     -23.7471      1.00000
     31     -23.6514      1.00000
     32     -23.4148      1.00000
     33     -23.2804      1.00000
     34     -22.8118      1.00000
     35     -22.6884      1.00000
     36     -22.2411      1.00000
     37     -21.8859      1.00000
     38     -21.6214      1.00000
     39     -21.5419      1.00000
     40     -21.4106      1.00000
     41     -17.0580      1.00000
     42     -16.6559      1.00000
     43     -16.2007      1.00000
     44     -16.0289      1.00000
     45     -15.9612      1.00000
     46     -15.7770      1.00000
     47     -15.4818      1.00000
     48     -14.8213      1.00000
     49      -8.3058      1.00000
     50      -7.9650      1.00000
     51      -7.8038      1.00000
     52      -7.4434      1.00000
     53      -6.8398      1.00000
     54      -6.8042      1.00000
     55      -6.7124      1.00000
     56      -6.6622      1.00000
     57      -6.4510      1.00000
     58      -6.4213      1.00000
     59      -6.3623      1.00000
     60      -6.2585      1.00000
     61      -6.0919      1.00000
     62      -5.8546      1.00000
     63      -5.7857      1.00000
     64      -5.5781      1.00000
     65      -5.5411      1.00000
     66      -5.4757      1.00000
     67      -5.4346      1.00000
     68      -5.3180      1.00000
     69      -5.2394      1.00000
     70      -5.1545      1.00000
     71      -5.1307      1.00000
     72      -5.0766      1.00000
     73      -5.0503      1.00000
     74      -5.0062      1.00000
     75      -4.9865      1.00000
     76      -4.9414      1.00000
     77      -4.8625      1.00000
     78      -4.8324      1.00000
     79      -4.7785      1.00000
     80      -4.6839      1.00000
     81      -4.6070      1.00000
     82      -4.4216      1.00000
     83      -4.2804      1.00000
     84      -4.2077      1.00000
     85      -4.1115      1.00000
     86      -4.0908      1.00000
     87      -3.8867      1.00000
     88      -3.7207      1.00000
     89      -3.6190      1.00000
     90      -3.4374      1.00000
     91      -3.3857      1.00000
     92      -3.3373      1.00000
     93      -3.2016      1.00000
     94      -3.1719      1.00000
     95      -3.0915      1.00000
     96      -3.0250      1.00000
     97      -3.0004      1.00000
     98      -2.8287      1.00000
     99      -2.8015      1.00000
    100      -2.7504      1.00000
    101      -2.6286      1.00000
    102      -2.5583      1.00000
    103      -2.3696      1.00000
    104      -2.3088      1.00000
    105      -2.3052      1.00000
    106      -2.2653      1.00000
    107      -2.2559      1.00000
    108      -1.9817      1.00000
    109      -1.8864      1.00000
    110      -1.6544      1.00000
    111      -1.5906      1.00000
    112      -1.5738      1.00000
    113      -1.3622      1.00000
    114      -1.2187      1.00000
    115      -0.7500      1.00000
    116      -0.6273      1.00000
    117      -0.3259      1.00000
    118      -0.2631      1.00000
    119      -0.1731      1.00000
    120      -0.0783      1.00000
    121       0.9145      0.00000
    122       0.9773      0.00000
    123       1.1517      0.00000
    124       1.9757      0.00000
    125       2.0106      0.00000
    126       2.0660      0.00000
    127       2.2695      0.00000
    128       2.5452      0.00000
    129       2.5599      0.00000
    130       2.5800      0.00000
    131       2.7130      0.00000
    132       2.7464      0.00000
    133       2.8985      0.00000
    134       3.0102      0.00000
    135       3.0738      0.00000
    136       3.2081      0.00000
    137       3.4230      0.00000
    138       3.6770      0.00000
    139       3.7315      0.00000
    140       3.7584      0.00000
    141       3.7861      0.00000
    142       3.8223      0.00000
    143       3.9634      0.00000
    144       4.0248      0.00000
    145       4.0817      0.00000
    146       4.1198      0.00000
    147       4.1998      0.00000
    148       4.3346      0.00000
    149       4.5046      0.00000
    150       4.7038      0.00000
    151       4.7305      0.00000
    152       4.7887      0.00000
    153       4.8160      0.00000
    154       4.9080      0.00000
    155       5.3420      0.00000
    156       5.7328      0.00000
    157       5.9949      0.00000
    158       6.1353      0.00000
    159       6.5263      0.00000
    160       7.3341      0.00000

 k-point     2 :       0.3750    0.1250    0.1250
  band No.  band energies     occupation 
      1     -36.9440      1.00000
      2     -36.8993      1.00000
      3     -36.8917      1.00000
      4     -35.6593      1.00000
      5     -35.6144      1.00000
      6     -35.3743      1.00000
      7     -35.2091      1.00000
      8     -35.1336      1.00000
      9     -34.9235      1.00000
     10     -34.4255      1.00000
     11     -34.3517      1.00000
     12     -34.2883      1.00000
     13     -34.2877      1.00000
     14     -34.2442      1.00000
     15     -34.1901      1.00000
     16     -34.1533      1.00000
     17     -34.1000      1.00000
     18     -34.0964      1.00000
     19     -34.0840      1.00000
     20     -34.0291      1.00000
     21     -33.8156      1.00000
     22     -33.7880      1.00000
     23     -33.6791      1.00000
     24     -33.5995      1.00000
     25     -24.6742      1.00000
     26     -24.2995      1.00000
     27     -24.1190      1.00000
     28     -24.0436      1.00000
     29     -23.7593      1.00000
     30     -23.7466      1.00000
     31     -23.7374      1.00000
     32     -23.5548      1.00000
     33     -23.2721      1.00000
     34     -22.8116      1.00000
     35     -22.6873      1.00000
     36     -22.2402      1.00000
     37     -21.8845      1.00000
     38     -21.6168      1.00000
     39     -21.5368      1.00000
     40     -21.4110      1.00000
     41     -17.0586      1.00000
     42     -16.6557      1.00000
     43     -16.2112      1.00000
     44     -16.0402      1.00000
     45     -15.9758      1.00000
     46     -15.7765      1.00000
     47     -15.4803      1.00000
     48     -14.8213      1.00000
     49      -8.3020      1.00000
     50      -7.9559      1.00000
     51      -7.4834      1.00000
     52      -7.0955      1.00000
     53      -6.8395      1.00000
     54      -6.8063      1.00000
     55      -6.7047      1.00000
     56      -6.6622      1.00000
     57      -6.6254      1.00000
     58      -6.4835      1.00000
     59      -6.4458      1.00000
     60      -6.3819      1.00000
     61      -6.2610      1.00000
     62      -5.8654      1.00000
     63      -5.6728      1.00000
     64      -5.5656      1.00000
     65      -5.5463      1.00000
     66      -5.5175      1.00000
     67      -5.4381      1.00000
     68      -5.3966      1.00000
     69      -5.2213      1.00000
     70      -5.1671      1.00000
     71      -5.1434      1.00000
     72      -5.1085      1.00000
     73      -5.0804      1.00000
     74      -5.0632      1.00000
     75      -4.9889      1.00000
     76      -4.9481      1.00000
     77      -4.9198      1.00000
     78      -4.8487      1.00000
     79      -4.6432      1.00000
     80      -4.5037      1.00000
     81      -4.4945      1.00000
     82      -4.3569      1.00000
     83      -4.2187      1.00000
     84      -4.1677      1.00000
     85      -4.0900      1.00000
     86      -3.9189      1.00000
     87      -3.8476      1.00000
     88      -3.6836      1.00000
     89      -3.6242      1.00000
     90      -3.4970      1.00000
     91      -3.4138      1.00000
     92      -3.3432      1.00000
     93      -3.3162      1.00000
     94      -3.2845      1.00000
     95      -3.2074      1.00000
     96      -3.1265      1.00000
     97      -3.0929      1.00000
     98      -2.9940      1.00000
     99      -2.9343      1.00000
    100      -2.7984      1.00000
    101      -2.7272      1.00000
    102      -2.5488      1.00000
    103      -2.4187      1.00000
    104      -2.3644      1.00000
    105      -2.3030      1.00000
    106      -2.2580      1.00000
    107      -2.2195      1.00000
    108      -2.0157      1.00000
    109      -1.9932      1.00000
    110      -1.6673      1.00000
    111      -1.5987      1.00000
    112      -1.5573      1.00000
    113      -1.3972      1.00000
    114      -1.0506      1.00000
    115      -0.7263      1.00000
    116      -0.6484      1.00000
    117      -0.3676      1.00000
    118      -0.2987      1.00000
    119      -0.2156      1.00000
    120      -0.0908      1.00000
    121       0.9775      0.00000
    122       0.9881      0.00000
    123       1.1896      0.00000
    124       2.0409      0.00000
    125       2.1008      0.00000
    126       2.1931      0.00000
    127       2.2749      0.00000
    128       2.4335      0.00000
    129       2.5175      0.00000
    130       2.5849      0.00000
    131       2.8279      0.00000
    132       2.9436      0.00000
    133       3.0033      0.00000
    134       3.0704      0.00000
    135       3.2772      0.00000
    136       3.4177      0.00000
    137       3.4874      0.00000
    138       3.6556      0.00000
    139       3.6856      0.00000
    140       3.7268      0.00000
    141       3.8115      0.00000
    142       3.8892      0.00000
    143       3.9732      0.00000
    144       4.0194      0.00000
    145       4.0617      0.00000
    146       4.1160      0.00000
    147       4.1282      0.00000
    148       4.4606      0.00000
    149       4.5760      0.00000
    150       4.6016      0.00000
    151       4.6553      0.00000
    152       4.7967      0.00000
    153       4.8453      0.00000
    154       5.0580      0.00000
    155       5.3314      0.00000
    156       5.7792      0.00000
    157       5.9754      0.00000
    158       6.1424      0.00000
    159       6.5855      0.00000
    160       6.8358      0.00000

 k-point     3 :      -0.3750    0.1250    0.1250
  band No.  band energies     occupation 
      1     -36.9440      1.00000
      2     -36.8993      1.00000
      3     -36.8917      1.00000
      4     -35.6593      1.00000
      5     -35.6144      1.00000
      6     -35.3743      1.00000
      7     -35.2091      1.00000
      8     -35.1336      1.00000
      9     -34.9235      1.00000
     10     -34.4255      1.00000
     11     -34.3517      1.00000
     12     -34.2883      1.00000
     13     -34.2877      1.00000
     14     -34.2442      1.00000
     15     -34.1901      1.00000
     16     -34.1533      1.00000
     17     -34.1000      1.00000
     18     -34.0964      1.00000
     19     -34.0840      1.00000
     20     -34.0291      1.00000
     21     -33.8156      1.00000
     22     -33.7880      1.00000
     23     -33.6791      1.00000
     24     -33.5995      1.00000
     25     -24.6742      1.00000
     26     -24.2995      1.00000
     27     -24.1190      1.00000
     28     -24.0436      1.00000
     29     -23.7592      1.00000
     30     -23.7467      1.00000
     31     -23.7374      1.00000
     32     -23.5548      1.00000
     33     -23.2721      1.00000
     34     -22.8116      1.00000
     35     -22.6873      1.00000
     36     -22.2402      1.00000
     37     -21.8845      1.00000
     38     -21.6168      1.00000
     39     -21.5369      1.00000
     40     -21.4110      1.00000
     41     -17.0586      1.00000
     42     -16.6557      1.00000
     43     -16.2111      1.00000
     44     -16.0408      1.00000
     45     -15.9751      1.00000
     46     -15.7766      1.00000
     47     -15.4802      1.00000
     48     -14.8213      1.00000
     49      -8.3020      1.00000
     50      -7.9559      1.00000
     51      -7.4835      1.00000
     52      -7.0964      1.00000
     53      -6.8381      1.00000
     54      -6.8056      1.00000
     55      -6.7058      1.00000
     56      -6.6623      1.00000
     57      -6.6245      1.00000
     58      -6.4840      1.00000
     59      -6.4463      1.00000
     60      -6.3820      1.00000
     61      -6.2623      1.00000
     62      -5.8655      1.00000
     63      -5.6750      1.00000
     64      -5.5686      1.00000
     65      -5.5356      1.00000
     66      -5.5148      1.00000
     67      -5.4422      1.00000
     68      -5.3933      1.00000
     69      -5.2238      1.00000
     70      -5.1580      1.00000
     71      -5.1474      1.00000
     72      -5.1091      1.00000
     73      -5.0828      1.00000
     74      -5.0631      1.00000
     75      -4.9883      1.00000
     76      -4.9482      1.00000
     77      -4.9192      1.00000
     78      -4.8550      1.00000
     79      -4.6436      1.00000
     80      -4.5049      1.00000
     81      -4.4911      1.00000
     82      -4.3566      1.00000
     83      -4.2224      1.00000
     84      -4.1725      1.00000
     85      -4.0938      1.00000
     86      -3.9233      1.00000
     87      -3.8629      1.00000
     88      -3.6598      1.00000
     89      -3.6247      1.00000
     90      -3.4780      1.00000
     91      -3.4080      1.00000
     92      -3.3703      1.00000
     93      -3.3316      1.00000
     94      -3.2444      1.00000
     95      -3.2060      1.00000
     96      -3.1506      1.00000
     97      -3.0885      1.00000
     98      -2.9917      1.00000
     99      -2.9131      1.00000
    100      -2.7987      1.00000
    101      -2.7267      1.00000
    102      -2.5368      1.00000
    103      -2.4519      1.00000
    104      -2.3828      1.00000
    105      -2.3088      1.00000
    106      -2.2578      1.00000
    107      -2.2017      1.00000
    108      -2.0138      1.00000
    109      -1.9944      1.00000
    110      -1.6583      1.00000
    111      -1.6084      1.00000
    112      -1.5611      1.00000
    113      -1.3874      1.00000
    114      -1.0551      1.00000
    115      -0.7257      1.00000
    116      -0.6465      1.00000
    117      -0.3601      1.00000
    118      -0.2950      1.00000
    119      -0.2227      1.00000
    120      -0.0914      1.00000
    121       0.9775      0.00000
    122       0.9882      0.00000
    123       1.1896      0.00000
    124       2.0427      0.00000
    125       2.1001      0.00000
    126       2.1755      0.00000
    127       2.2732      0.00000
    128       2.4367      0.00000
    129       2.5353      0.00000
    130       2.5856      0.00000
    131       2.8280      0.00000
    132       2.9393      0.00000
    133       3.0010      0.00000
    134       3.0720      0.00000
    135       3.2635      0.00000
    136       3.4190      0.00000
    137       3.4995      0.00000
    138       3.6582      0.00000
    139       3.6912      0.00000
    140       3.7279      0.00000
    141       3.8220      0.00000
    142       3.8578      0.00000
    143       3.9933      0.00000
    144       4.0196      0.00000
    145       4.0701      0.00000
    146       4.1028      0.00000
    147       4.1300      0.00000
    148       4.4670      0.00000
    149       4.5670      0.00000
    150       4.5961      0.00000
    151       4.6544      0.00000
    152       4.7959      0.00000
    153       4.8481      0.00000
    154       5.0558      0.00000
    155       5.3266      0.00000
    156       5.7852      0.00000
    157       5.9789      0.00000
    158       6.1438      0.00000
    159       6.5872      0.00000
    160       6.8263      0.00000

 k-point     4 :      -0.1250    0.1250    0.1250
  band No.  band energies     occupation 
      1     -36.9440      1.00000
      2     -36.8993      1.00000
      3     -36.8922      1.00000
      4     -35.6593      1.00000
      5     -35.6193      1.00000
      6     -35.3742      1.00000
      7     -35.2034      1.00000
      8     -35.1336      1.00000
      9     -34.9236      1.00000
     10     -34.4255      1.00000
     11     -34.3517      1.00000
     12     -34.2883      1.00000
     13     -34.2861      1.00000
     14     -34.2444      1.00000
     15     -34.1976      1.00000
     16     -34.1537      1.00000
     17     -34.1000      1.00000
     18     -34.0994      1.00000
     19     -34.0763      1.00000
     20     -34.0285      1.00000
     21     -33.8122      1.00000
     22     -33.7879      1.00000
     23     -33.6791      1.00000
     24     -33.5995      1.00000
     25     -24.6806      1.00000
     26     -24.3113      1.00000
     27     -24.1346      1.00000
     28     -24.1118      1.00000
     29     -23.8618      1.00000
     30     -23.7471      1.00000
     31     -23.6514      1.00000
     32     -23.4148      1.00000
     33     -23.2804      1.00000
     34     -22.8118      1.00000
     35     -22.6885      1.00000
     36     -22.2411      1.00000
     37     -21.8859      1.00000
     38     -21.6214      1.00000
     39     -21.5420      1.00000
     40     -21.4106      1.00000
     41     -17.0580      1.00000
     42     -16.6559      1.00000
     43     -16.2006      1.00000
     44     -16.0295      1.00000
     45     -15.9605      1.00000
     46     -15.7772      1.00000
     47     -15.4818      1.00000
     48     -14.8213      1.00000
     49      -8.3058      1.00000
     50      -7.9649      1.00000
     51      -7.8038      1.00000
     52      -7.4435      1.00000
     53      -6.8396      1.00000
     54      -6.8041      1.00000
     55      -6.7124      1.00000
     56      -6.6623      1.00000
     57      -6.4512      1.00000
     58      -6.4214      1.00000
     59      -6.3624      1.00000
     60      -6.2595      1.00000
     61      -6.0926      1.00000
     62      -5.8544      1.00000
     63      -5.7847      1.00000
     64      -5.5746      1.00000
     65      -5.5423      1.00000
     66      -5.4762      1.00000
     67      -5.4346      1.00000
     68      -5.3103      1.00000
     69      -5.2426      1.00000
     70      -5.1588      1.00000
     71      -5.1242      1.00000
     72      -5.0718      1.00000
     73      -5.0579      1.00000
     74      -5.0065      1.00000
     75      -4.9839      1.00000
     76      -4.9450      1.00000
     77      -4.8659      1.00000
     78      -4.8335      1.00000
     79      -4.7769      1.00000
     80      -4.6817      1.00000
     81      -4.6068      1.00000
     82      -4.4232      1.00000
     83      -4.2831      1.00000
     84      -4.2102      1.00000
     85      -4.1229      1.00000
     86      -4.0845      1.00000
     87      -3.9029      1.00000
     88      -3.7000      1.00000
     89      -3.6192      1.00000
     90      -3.4280      1.00000
     91      -3.3845      1.00000
     92      -3.3376      1.00000
     93      -3.2062      1.00000
     94      -3.1880      1.00000
     95      -3.0853      1.00000
     96      -3.0272      1.00000
     97      -2.9669      1.00000
     98      -2.8273      1.00000
     99      -2.8052      1.00000
    100      -2.7442      1.00000
    101      -2.6358      1.00000
    102      -2.5467      1.00000
    103      -2.4123      1.00000
    104      -2.3609      1.00000
    105      -2.2996      1.00000
    106      -2.2578      1.00000
    107      -2.2024      1.00000
    108      -1.9824      1.00000
    109      -1.8903      1.00000
    110      -1.6502      1.00000
    111      -1.6002      1.00000
    112      -1.5790      1.00000
    113      -1.3526      1.00000
    114      -1.2181      1.00000
    115      -0.7495      1.00000
    116      -0.6265      1.00000
    117      -0.3246      1.00000
    118      -0.2552      1.00000
    119      -0.1785      1.00000
    120      -0.0790      1.00000
    121       0.9146      0.00000
    122       0.9773      0.00000
    123       1.1517      0.00000
    124       1.9728      0.00000
    125       2.0139      0.00000
    126       2.0574      0.00000
    127       2.2689      0.00000
    128       2.5498      0.00000
    129       2.5563      0.00000
    130       2.5821      0.00000
    131       2.7192      0.00000
    132       2.7460      0.00000
    133       2.8984      0.00000
    134       3.0029      0.00000
    135       3.0739      0.00000
    136       3.2132      0.00000
    137       3.4234      0.00000
    138       3.6839      0.00000
    139       3.7319      0.00000
    140       3.7561      0.00000
    141       3.7769      0.00000
    142       3.8295      0.00000
    143       3.9704      0.00000
    144       4.0212      0.00000
    145       4.0842      0.00000
    146       4.1147      0.00000
    147       4.2005      0.00000
    148       4.3293      0.00000
    149       4.5143      0.00000
    150       4.7039      0.00000
    151       4.7345      0.00000
    152       4.7549      0.00000
    153       4.8185      0.00000
    154       4.9224      0.00000
    155       5.3419      0.00000
    156       5.7377      0.00000
    157       5.9966      0.00000
    158       6.1297      0.00000
    159       6.5295      0.00000
    160       7.3314      0.00000

 k-point     5 :       0.1250    0.3750    0.1250
  band No.  band energies     occupation 
      1     -36.9440      1.00000
      2     -36.8985      1.00000
      3     -36.8922      1.00000
      4     -35.6593      1.00000
      5     -35.6193      1.00000
      6     -35.3731      1.00000
      7     -35.2034      1.00000
      8     -35.1308      1.00000
      9     -34.9236      1.00000
     10     -34.4275      1.00000
     11     -34.3533      1.00000
     12     -34.2922      1.00000
     13     -34.2861      1.00000
     14     -34.2444      1.00000
     15     -34.1976      1.00000
     16     -34.1537      1.00000
     17     -34.1000      1.00000
     18     -34.0994      1.00000
     19     -34.0763      1.00000
     20     -34.0285      1.00000
     21     -33.8122      1.00000
     22     -33.7879      1.00000
     23     -33.6700      1.00000
     24     -33.6087      1.00000
     25     -24.6718      1.00000
     26     -24.2456      1.00000
     27     -24.1180      1.00000
     28     -24.0871      1.00000
     29     -23.8704      1.00000
     30     -23.8583      1.00000
     31     -23.6514      1.00000
     32     -23.4130      1.00000
     33     -23.1565      1.00000
     34     -22.9488      1.00000
     35     -22.6814      1.00000
     36     -22.2393      1.00000
     37     -21.8857      1.00000
     38     -21.6206      1.00000
     39     -21.5417      1.00000
     40     -21.4103      1.00000
     41     -17.0804      1.00000
     42     -16.6540      1.00000
     43     -16.1987      1.00000
     44     -16.0263      1.00000
     45     -15.9510      1.00000
     46     -15.7753      1.00000
     47     -15.3519      1.00000
     48     -14.9931      1.00000
     49      -8.3055      1.00000
     50      -7.8291      1.00000
     51      -7.5961      1.00000
     52      -7.4382      1.00000
     53      -6.8165      1.00000
     54      -6.7993      1.00000
     55      -6.7125      1.00000
     56      -6.5849      1.00000
     57      -6.5030      1.00000
     58      -6.3783      1.00000
     59      -6.3597      1.00000
     60      -6.0993      1.00000
     61      -6.0583      1.00000
     62      -5.9485      1.00000
     63      -5.8579      1.00000
     64      -5.7046      1.00000
     65      -5.5449      1.00000
     66      -5.4807      1.00000
     67      -5.4372      1.00000
     68      -5.3888      1.00000
     69      -5.2838      1.00000
     70      -5.1744      1.00000
     71      -5.1654      1.00000
     72      -5.1192      1.00000
     73      -5.0938      1.00000
     74      -5.0136      1.00000
     75      -4.9682      1.00000
     76      -4.8662      1.00000
     77      -4.8439      1.00000
     78      -4.7926      1.00000
     79      -4.7451      1.00000
     80      -4.6784      1.00000
     81      -4.6162      1.00000
     82      -4.5176      1.00000
     83      -4.3787      1.00000
     84      -4.2931      1.00000
     85      -4.1626      1.00000
     86      -4.0685      1.00000
     87      -3.9842      1.00000
     88      -3.7920      1.00000
     89      -3.4471      1.00000
     90      -3.3917      1.00000
     91      -3.3511      1.00000
     92      -3.2395      1.00000
     93      -3.2227      1.00000
     94      -3.1831      1.00000
     95      -3.0825      1.00000
     96      -2.9924      1.00000
     97      -2.8866      1.00000
     98      -2.8515      1.00000
     99      -2.7569      1.00000
    100      -2.6838      1.00000
    101      -2.6424      1.00000
    102      -2.5954      1.00000
    103      -2.3980      1.00000
    104      -2.3546      1.00000
    105      -2.3072      1.00000
    106      -2.2597      1.00000
    107      -2.2180      1.00000
    108      -1.9707      1.00000
    109      -1.8878      1.00000
    110      -1.6644      1.00000
    111      -1.5931      1.00000
    112      -1.5523      1.00000
    113      -1.4572      1.00000
    114      -1.3241      1.00000
    115      -1.2221      1.00000
    116      -0.8369      1.00000
    117      -0.4290      1.00000
    118      -0.2601      1.00000
    119      -0.1600      1.00000
    120      -0.0971      1.00000
    121       0.9144      0.00000
    122       1.0404      0.00000
    123       1.2115      0.00000
    124       2.0106      0.00000
    125       2.0828      0.00000
    126       2.1894      0.00000
    127       2.3425      0.00000
    128       2.5469      0.00000
    129       2.6705      0.00000
    130       2.7313      0.00000
    131       2.7495      0.00000
    132       2.8009      0.00000
    133       2.9557      0.00000
    134       3.0420      0.00000
    135       3.1307      0.00000
    136       3.1848      0.00000
    137       3.3214      0.00000
    138       3.7278      0.00000
    139       3.7544      0.00000
    140       3.8167      0.00000
    141       3.8982      0.00000
    142       3.9742      0.00000
    143       3.9944      0.00000
    144       4.0532      0.00000
    145       4.1307      0.00000
    146       4.2387      0.00000
    147       4.2962      0.00000
    148       4.3396      0.00000
    149       4.4351      0.00000
    150       4.4905      0.00000
    151       4.6641      0.00000
    152       4.7519      0.00000
    153       4.8060      0.00000
    154       5.0306      0.00000
    155       5.4228      0.00000
    156       5.7859      0.00000
    157       5.9969      0.00000
    158       6.1132      0.00000
    159       6.6838      0.00000
    160       6.8937      0.00000

 k-point     6 :       0.3750    0.3750    0.1250
  band No.  band energies     occupation 
      1     -36.9440      1.00000
      2     -36.8985      1.00000
      3     -36.8917      1.00000
      4     -35.6593      1.00000
      5     -35.6144      1.00000
      6     -35.3732      1.00000
      7     -35.2091      1.00000
      8     -35.1308      1.00000
      9     -34.9236      1.00000
     10     -34.4275      1.00000
     11     -34.3533      1.00000
     12     -34.2922      1.00000
     13     -34.2877      1.00000
     14     -34.2442      1.00000
     15     -34.1901      1.00000
     16     -34.1533      1.00000
     17     -34.1000      1.00000
     18     -34.0964      1.00000
     19     -34.0839      1.00000
     20     -34.0291      1.00000
     21     -33.8156      1.00000
     22     -33.7880      1.00000
     23     -33.6700      1.00000
     24     -33.6087      1.00000
     25     -24.6655      1.00000
     26     -24.2135      1.00000
     27     -24.1153      1.00000
     28     -24.0269      1.00000
     29     -23.8694      1.00000
     30     -23.7583      1.00000
     31     -23.7345      1.00000
     32     -23.5503      1.00000
     33     -23.1515      1.00000
     34     -22.9481      1.00000
     35     -22.6803      1.00000
     36     -22.2385      1.00000
     37     -21.8844      1.00000
     38     -21.6160      1.00000
     39     -21.5366      1.00000
     40     -21.4107      1.00000
     41     -17.0811      1.00000
     42     -16.6538      1.00000
     43     -16.2089      1.00000
     44     -16.0377      1.00000
     45     -15.9658      1.00000
     46     -15.7747      1.00000
     47     -15.3511      1.00000
     48     -14.9923      1.00000
     49      -8.3017      1.00000
     50      -7.6306      1.00000
     51      -7.4664      1.00000
     52      -7.0850      1.00000
     53      -6.8175      1.00000
     54      -6.8005      1.00000
     55      -6.7063      1.00000
     56      -6.6308      1.00000
     57      -6.5851      1.00000
     58      -6.5354      1.00000
     59      -6.4546      1.00000
     60      -6.3311      1.00000
     61      -6.0685      1.00000
     62      -5.9760      1.00000
     63      -5.8686      1.00000
     64      -5.5817      1.00000
     65      -5.5372      1.00000
     66      -5.5025      1.00000
     67      -5.4493      1.00000
     68      -5.3814      1.00000
     69      -5.2925      1.00000
     70      -5.2831      1.00000
     71      -5.1605      1.00000
     72      -5.1293      1.00000
     73      -5.1020      1.00000
     74      -5.0725      1.00000
     75      -4.9253      1.00000
     76      -4.8769      1.00000
     77      -4.8321      1.00000
     78      -4.7775      1.00000
     79      -4.6899      1.00000
     80      -4.5671      1.00000
     81      -4.5149      1.00000
     82      -4.3929      1.00000
     83      -4.3600      1.00000
     84      -4.2417      1.00000
     85      -4.0336      1.00000
     86      -3.9851      1.00000
     87      -3.8829      1.00000
     88      -3.8648      1.00000
     89      -3.4997      1.00000
     90      -3.4188      1.00000
     91      -3.3719      1.00000
     92      -3.3185      1.00000
     93      -3.2820      1.00000
     94      -3.2476      1.00000
     95      -3.2083      1.00000
     96      -3.1593      1.00000
     97      -3.1147      1.00000
     98      -2.9714      1.00000
     99      -2.8821      1.00000
    100      -2.7342      1.00000
    101      -2.6671      1.00000
    102      -2.5946      1.00000
    103      -2.4152      1.00000
    104      -2.3779      1.00000
    105      -2.3202      1.00000
    106      -2.2582      1.00000
    107      -2.1838      1.00000
    108      -2.0163      1.00000
    109      -1.9815      1.00000
    110      -1.6932      1.00000
    111      -1.5757      1.00000
    112      -1.5589      1.00000
    113      -1.4769      1.00000
    114      -1.3188      1.00000
    115      -1.0566      1.00000
    116      -0.8056      1.00000
    117      -0.4466      1.00000
    118      -0.2598      1.00000
    119      -0.1847      1.00000
    120      -0.1006      1.00000
    121       0.9874      0.00000
    122       1.0404      0.00000
    123       1.1912      0.00000
    124       2.0435      0.00000
    125       2.1629      0.00000
    126       2.3329      0.00000
    127       2.3471      0.00000
    128       2.4377      0.00000
    129       2.5303      0.00000
    130       2.7986      0.00000
    131       2.8805      0.00000
    132       2.9468      0.00000
    133       3.0667      0.00000
    134       3.1380      0.00000
    135       3.2789      0.00000
    136       3.3594      0.00000
    137       3.6340      0.00000
    138       3.7069      0.00000
    139       3.7387      0.00000
    140       3.8086      0.00000
    141       3.8442      0.00000
    142       3.9363      0.00000
    143       4.0075      0.00000
    144       4.0541      0.00000
    145       4.0975      0.00000
    146       4.2505      0.00000
    147       4.3161      0.00000
    148       4.3587      0.00000
    149       4.4965      0.00000
    150       4.5220      0.00000
    151       4.6107      0.00000
    152       4.6714      0.00000
    153       4.9229      0.00000
    154       5.1194      0.00000
    155       5.2519      0.00000
    156       5.7186      0.00000
    157       5.9441      0.00000
    158       6.2504      0.00000
    159       6.6990      0.00000
    160       6.8721      0.00000

 k-point     7 :      -0.3750    0.3750    0.1250
  band No.  band energies     occupation 
      1     -36.9440      1.00000
      2     -36.8985      1.00000
      3     -36.8917      1.00000
      4     -35.6593      1.00000
      5     -35.6144      1.00000
      6     -35.3732      1.00000
      7     -35.2091      1.00000
      8     -35.1308      1.00000
      9     -34.9236      1.00000
     10     -34.4275      1.00000
     11     -34.3533      1.00000
     12     -34.2922      1.00000
     13     -34.2877      1.00000
     14     -34.2442      1.00000
     15     -34.1901      1.00000
     16     -34.1533      1.00000
     17     -34.1000      1.00000
     18     -34.0964      1.00000
     19     -34.0840      1.00000
     20     -34.0291      1.00000
     21     -33.8156      1.00000
     22     -33.7880      1.00000
     23     -33.6700      1.00000
     24     -33.6087      1.00000
     25     -24.6656      1.00000
     26     -24.2136      1.00000
     27     -24.1152      1.00000
     28     -24.0269      1.00000
     29     -23.8694      1.00000
     30     -23.7583      1.00000
     31     -23.7345      1.00000
     32     -23.5503      1.00000
     33     -23.1515      1.00000
     34     -22.9481      1.00000
     35     -22.6803      1.00000
     36     -22.2385      1.00000
     37     -21.8844      1.00000
     38     -21.6159      1.00000
     39     -21.5366      1.00000
     40     -21.4106      1.00000
     41     -17.0811      1.00000
     42     -16.6538      1.00000
     43     -16.2089      1.00000
     44     -16.0382      1.00000
     45     -15.9651      1.00000
     46     -15.7748      1.00000
     47     -15.3511      1.00000
     48     -14.9923      1.00000
     49      -8.3017      1.00000
     50      -7.6305      1.00000
     51      -7.4666      1.00000
     52      -7.0854      1.00000
     53      -6.8176      1.00000
     54      -6.8003      1.00000
     55      -6.7069      1.00000
     56      -6.6294      1.00000
     57      -6.5852      1.00000
     58      -6.5318      1.00000
     59      -6.4583      1.00000
     60      -6.3312      1.00000
     61      -6.0707      1.00000
     62      -5.9786      1.00000
     63      -5.8687      1.00000
     64      -5.5836      1.00000
     65      -5.5337      1.00000
     66      -5.4920      1.00000
     67      -5.4470      1.00000
     68      -5.3798      1.00000
     69      -5.3026      1.00000
     70      -5.2712      1.00000
     71      -5.1671      1.00000
     72      -5.1265      1.00000
     73      -5.1040      1.00000
     74      -5.0744      1.00000
     75      -4.9265      1.00000
     76      -4.8720      1.00000
     77      -4.8351      1.00000
     78      -4.7797      1.00000
     79      -4.6911      1.00000
     80      -4.5774      1.00000
     81      -4.5162      1.00000
     82      -4.3931      1.00000
     83      -4.3597      1.00000
     84      -4.2307      1.00000
     85      -4.0369      1.00000
     86      -4.0042      1.00000
     87      -3.9133      1.00000
     88      -3.8230      1.00000
     89      -3.4765      1.00000
     90      -3.4163      1.00000
     91      -3.3965      1.00000
     92      -3.3330      1.00000
     93      -3.2512      1.00000
     94      -3.2466      1.00000
     95      -3.2060      1.00000
     96      -3.1493      1.00000
     97      -3.1394      1.00000
     98      -2.9487      1.00000
     99      -2.8801      1.00000
    100      -2.7395      1.00000
    101      -2.6669      1.00000
    102      -2.5851      1.00000
    103      -2.4513      1.00000
    104      -2.3833      1.00000
    105      -2.3208      1.00000
    106      -2.2574      1.00000
    107      -2.1733      1.00000
    108      -2.0152      1.00000
    109      -1.9813      1.00000
    110      -1.6905      1.00000
    111      -1.5832      1.00000
    112      -1.5609      1.00000
    113      -1.4741      1.00000
    114      -1.3117      1.00000
    115      -1.0648      1.00000
    116      -0.7962      1.00000
    117      -0.4462      1.00000
    118      -0.2582      1.00000
    119      -0.1859      1.00000
    120      -0.1008      1.00000
    121       0.9875      0.00000
    122       1.0404      0.00000
    123       1.1911      0.00000
    124       2.0442      0.00000
    125       2.1637      0.00000
    126       2.2999      0.00000
    127       2.3484      0.00000
[...]
  0.000  -0.000   0.000  -0.000  -0.000   0.000   0.000  -0.000  -0.000  -0.000  -0.000   0.000  -0.000   0.000   0.000   0.000
  0.000  -0.000   0.000   0.000  -0.000   0.000  -0.000  -0.000   0.000  -0.000   0.000   0.000  -0.000  -0.000   0.000  -0.000
 -0.000   0.000   0.000  -0.000  -0.000   0.000   0.000  -0.000   0.000   0.000   0.000  -0.000   0.000  -0.000  -0.000  -0.000
  0.000   0.000   0.000   0.000  -0.000   0.000  -0.000  -0.000   0.000  -0.000  -0.000   0.000   0.000  -0.000   0.000   0.000
  0.000   0.000   0.000  -0.000  -0.000  -0.000  -0.000   0.000  -0.000   0.000  -0.000  -0.000  -0.000   0.000  -0.000   0.000
 -0.000   0.000  -0.000   0.000   0.000  -0.000   0.000   0.000   0.000   0.000   0.000  -0.000   0.000  -0.000   0.000   0.000
 -0.000   0.000   0.000  -0.000  -0.000   0.000  -0.000   0.000  -0.000   0.000  -0.000  -0.000   0.000   0.000   0.000   0.000
  0.000   0.000   0.000  -0.000  -0.000  -0.000  -0.000   0.000  -0.000   0.000   0.000  -0.000   0.000   0.000  -0.000  -0.000
  0.000   0.000   0.000  -0.000  -0.000  -0.000  -0.000   0.000  -0.000  -0.000   0.000   0.000  -0.000   0.000   0.000  -0.000


------------------------ aborting loop because EDIFF is reached ----------------------------------------


 


 total charge     
 
# of ion       s       p       d       tot
------------------------------------------
    1        0.327   6.520   1.737   8.585
    2        0.312   6.473   1.845   8.630
    3        0.312   6.455   1.833   8.600
    4        0.316   6.447   1.753   8.516
    5        0.293   6.449   1.754   8.496
    6        0.315   6.476   1.825   8.617
    7        0.304   6.426   1.651   8.380
    8        0.314   6.454   1.791   8.558
    9        1.570   3.450   0.000   5.020
   10        1.567   3.461   0.000   5.027
   11        1.575   3.449   0.000   5.024
   12        1.565   3.415   0.000   4.980
   13        1.565   3.416   0.000   4.981
   14        1.568   3.467   0.000   5.035
   15        1.573   3.453   0.000   5.026
   16        1.570   3.457   0.000   5.028
   17        1.734   4.381   0.000   6.114
   18        1.730   4.391   0.000   6.121
   19        1.728   4.369   0.000   6.097
   20        1.728   4.368   0.000   6.096
   21        1.733   4.380   0.000   6.113
   22        1.730   4.390   0.000   6.119
   23        1.733   4.388   0.000   6.122
   24        1.729   4.381   0.000   6.110
   25        1.733   4.387   0.000   6.120
   26        1.731   4.393   0.000   6.125
   27        1.731   4.392   0.000   6.123
   28        1.731   4.392   0.000   6.123
   29        1.731   4.392   0.000   6.123
   30        1.728   4.371   0.000   6.099
   31        1.729   4.379   0.000   6.108
   32        1.729   4.371   0.000   6.100
--------------------------------------------------
tot         42.734 149.391  14.188 206.313
 


 magnetization (x)
 
# of ion       s       p       d       tot
------------------------------------------
    1        0.000   0.000   0.000   0.000
    2       -0.000   0.000   0.000   0.000
    3        0.000   0.000  -0.000   0.000
    4        0.000   0.000   0.000   0.000
    5       -0.000  -0.000   0.000   0.000
    6       -0.000   0.000  -0.000  -0.000
    7       -0.000   0.000   0.000   0.000
    8        0.000   0.000   0.000   0.000
    9       -0.000   0.000   0.000  -0.000
   10        0.000   0.000   0.000   0.000
   11        0.000  -0.000   0.000  -0.000
   12       -0.000  -0.000   0.000  -0.000
   13       -0.000  -0.000   0.000  -0.000
   14        0.000   0.000   0.000   0.000
   15        0.000  -0.000   0.000  -0.000
   16        0.000  -0.000   0.000  -0.000
   17        0.000  -0.000   0.000  -0.000
   18       -0.000  -0.000   0.000  -0.000
   19       -0.000   0.000   0.000   0.000
   20        0.000   0.000   0.000   0.000
   21       -0.000  -0.000   0.000  -0.000
   22       -0.000  -0.000   0.000  -0.000
   23        0.000  -0.000   0.000  -0.000
   24       -0.000   0.000   0.000   0.000
   25       -0.000  -0.000   0.000  -0.000
   26       -0.000  -0.000   0.000  -0.000
   27       -0.000   0.000   0.000   0.000
   28       -0.000   0.000   0.000   0.000
   29       -0.000  -0.000   0.000  -0.000
   30        0.000   0.000   0.000   0.000
   31        0.000  -0.000   0.000  -0.000
   32       -0.000  -0.000   0.000  -0.000
--------------------------------------------------
tot         -0.000  -0.000   0.000  -0.000
 
    CHARGE:  cpu time    1.1838: real time    1.1808
    FORLOC:  cpu time    0.0100: real time    0.0098
    FORNL :  cpu time    6.8570: real time    6.8487
    STRESS:  cpu time   20.7258: real time   20.7251
    FORCOR:  cpu time    0.1380: real time    0.1381
    FORHAR:  cpu time    0.0240: real time    0.0235
    MIXING:  cpu time    0.0100: real time    0.0096
    OFIELD:  cpu time    0.0000: real time    0.0000

  FORCE on cell =-STRESS in cart. coord.  units (eV):
  Direction    XX          YY          ZZ          XY          YZ          ZX
  --------------------------------------------------------------------------------------
  Alpha Z   754.73291   754.73291   754.73291
  Ewald   -4276.39719 -4217.12359 -4239.15078    -1.10628     1.64270     0.42132
  Hartree  2741.68418  2778.84917  2767.73792    -0.25802     0.46927     0.04177
  E(xc)   -1232.00756 -1232.10814 -1232.13163    -0.00239     0.00107    -0.00613
  Local   -2128.91738 -2239.68406 -2206.56546     1.17820    -1.96302    -0.60308
  n-local  -969.46161  -968.01127  -967.00302     0.08425    -0.09227     0.09825
  augment   752.66355   758.69204   757.41469     0.07789    -0.04896     0.07521
  Kinetic  4357.73184  4364.63545  4364.94966     0.03039    -0.00377    -0.02735
  Fock        0.00000     0.00000     0.00000     0.00000     0.00000     0.00000
  -------------------------------------------------------------------------------------
  Total       0.02874    -0.01748    -0.01571     0.00402     0.00502     0.00000
  in kB       0.09926    -0.06036    -0.05425     0.01389     0.01733     0.00000
  external pressure =       -0.01 kB  Pullay stress =        0.00 kB


 VOLUME and BASIS-vectors are now :
 -----------------------------------------------------------------------------
  energy-cutoff  :      700.00
  volume of cell :      463.96
      direct lattice vectors                 reciprocal lattice vectors
     7.787207247  0.000558300 -0.001680894     0.128415749 -0.000009655  0.000027481
     0.000579288  7.700700268 -0.001320511    -0.000009305  0.129858325  0.000022000
    -0.001655798 -0.001310850  7.736934069     0.000027897  0.000022162  0.129250174

  length of vectors
     7.787207448  7.700700403  7.736934358     0.128415752  0.129858327  0.129250179


 FORCES acting on ions
    electron-ion (+dipol)            ewald-force                    non-local-force                 convergence-correction
 -----------------------------------------------------------------------------------------------
   0.580E+01 0.846E+01 -.216E+00   -.579E+01 -.842E+01 0.233E+00   -.399E-02 -.402E-01 -.167E-01   0.434E-04 -.545E-04 -.829E-05
   0.607E+01 0.166E+02 0.177E+01   -.603E+01 -.161E+02 -.177E+01   -.438E-01 -.521E+00 0.446E-02   0.126E-04 0.233E-02 0.148E-04
   0.140E+02 -.975E+01 0.828E+01   -.147E+02 0.963E+01 -.961E+01   0.696E+00 0.115E+00 0.134E+01   0.731E-04 0.151E-04 -.131E-03
   0.968E+01 -.238E+02 0.303E+00   -.107E+02 0.246E+02 0.906E+00   0.103E+01 -.795E+00 -.121E+01   -.101E-03 -.172E-02 0.232E-03
   -.659E+01 0.929E+00 -.287E+02   0.654E+01 -.930E+00 0.295E+02   0.517E-01 0.296E-02 -.825E+00   0.149E-03 0.618E-03 -.188E-02
   -.955E+01 0.968E+01 0.269E+02   0.946E+01 -.961E+01 -.266E+02   0.971E-01 -.767E-01 -.232E+00   0.420E-04 0.322E-04 0.266E-02
   -.167E+02 -.501E+00 -.959E+01   0.177E+02 0.528E+00 0.106E+02   -.993E+00 -.204E-01 -.100E+01   0.241E-04 -.229E-02 -.740E-03
   -.232E+02 -.928E+01 0.123E+02   0.243E+02 0.918E+01 -.129E+02   -.117E+01 0.100E+00 0.620E+00   -.765E-04 -.246E-04 0.930E-03
   0.696E+02 -.294E+01 -.802E+01   -.750E+02 0.300E+01 0.887E+01   0.537E+01 -.587E-01 -.853E+00   0.298E-03 -.182E-03 -.173E-03
   0.110E+02 -.321E+01 0.337E+01   -.124E+02 0.292E+01 -.331E+01   0.140E+01 0.286E+00 -.539E-01   -.103E-02 -.286E-03 0.139E-03
   -.161E+01 0.100E+03 0.759E+01   0.248E+01 -.110E+03 -.848E+01   -.870E+00 0.932E+01 0.888E+00   -.235E-04 0.224E-02 0.617E-04
   -.195E+01 -.480E+02 -.157E+01   0.166E+01 0.506E+02 0.849E+00   0.282E+00 -.256E+01 0.717E+00   -.253E-05 -.466E-03 -.428E-03
   -.201E+01 0.474E+02 -.190E+01   0.173E+01 -.499E+02 0.119E+01   0.279E+00 0.249E+01 0.709E+00   -.217E-04 0.223E-02 -.412E-03
   -.171E+02 -.252E+01 0.738E+01   0.206E+02 0.219E+01 -.763E+01   -.344E+01 0.329E+00 0.255E+00   0.556E-04 -.281E-03 0.526E-03
   -.523E+01 0.295E+01 0.872E+02   0.541E+01 -.301E+01 -.950E+02   -.181E+00 0.542E-01 0.783E+01   0.101E-03 0.766E-04 0.113E-02
   0.729E+01 -.291E+01 0.569E+02   -.921E+01 0.297E+01 -.613E+02   0.192E+01 -.505E-01 0.439E+01   -.241E-04 -.200E-03 0.101E-02
   -.102E+03 0.355E+01 -.262E+00   0.113E+03 -.367E+01 -.559E+00   -.105E+02 0.128E+00 0.822E+00   0.609E-03 0.529E-04 -.168E-03
   -.163E+02 -.607E+01 -.541E+01   0.186E+02 0.902E+01 0.783E+01   -.225E+01 -.295E+01 -.242E+01   -.140E-03 -.312E-04 0.759E-04
   -.375E+02 -.358E+01 -.416E+01   0.382E+02 0.365E+01 0.481E+01   -.728E+00 -.636E-01 -.653E+00   -.343E-03 -.242E-04 -.233E-03
   0.544E+01 -.614E+01 0.222E+01   -.574E+01 0.586E+01 -.198E+01   0.298E+00 0.277E+00 -.241E+00   0.781E-03 -.283E-03 0.174E-03
   0.104E+03 0.336E+01 -.767E+00   -.114E+03 -.348E+01 -.362E-01   0.106E+02 0.125E+00 0.803E+00   -.588E-03 0.382E-04 -.223E-03
   0.176E+02 -.904E+01 -.555E+01   -.197E+02 0.122E+02 0.804E+01   0.209E+01 -.311E+01 -.249E+01   0.159E-03 0.136E-03 0.173E-03
   -.719E+01 -.834E+02 -.106E+02   0.961E+01 0.926E+02 0.128E+02   -.242E+01 -.918E+01 -.214E+01   0.997E-04 -.445E-04 0.956E-04
   -.308E+01 -.456E+02 0.879E+01   0.469E+01 0.466E+02 -.103E+02   -.161E+01 -.106E+01 0.155E+01   0.200E-04 -.178E-02 -.187E-04
   -.671E+01 0.846E+02 -.115E+02   0.904E+01 -.938E+02 0.137E+02   -.233E+01 0.911E+01 -.215E+01   0.119E-03 0.120E-03 -.120E-03
   0.379E+01 -.389E+02 -.231E+02   -.572E+01 0.427E+02 0.298E+02   0.193E+01 -.374E+01 -.665E+01   -.150E-03 -.800E-03 0.210E-03
   0.423E+01 0.392E+02 -.211E+02   -.613E+01 -.430E+02 0.275E+02   0.190E+01 0.378E+01 -.642E+01   0.800E-04 0.973E-03 0.133E-03
   0.481E+01 -.459E+01 -.385E+02   -.502E+01 0.726E+01 0.427E+02   0.213E+00 -.267E+01 -.426E+01   0.104E-03 -.364E-04 0.117E-02
   0.352E+01 -.790E+01 0.381E+02   -.367E+01 0.107E+02 -.425E+02   0.150E+00 -.282E+01 0.434E+01   0.154E-03 0.111E-03 -.115E-02
   -.110E+02 -.610E+01 -.117E+02   0.144E+02 0.580E+01 0.123E+02   -.349E+01 0.298E+00 -.533E+00   -.179E-04 -.271E-03 -.435E-03
   -.526E+01 0.369E+01 -.395E+02   0.541E+01 -.378E+01 0.397E+02   -.151E+00 0.899E-01 -.234E+00   0.127E-03 0.105E-03 -.562E-03
   0.649E+01 -.339E+01 -.308E+02   -.880E+01 0.345E+01 0.307E+02   0.231E+01 -.585E-01 0.808E-01   -.201E-03 -.681E-04 -.712E-03
 -----------------------------------------------------------------------------------------------
   -.393E+00 0.328E+01 0.804E+01   0.604E-13 0.107E-13 -.167E-12   0.390E+00 -.328E+01 -.804E+01   0.332E-03 0.246E-03 0.133E-02
 
 
 POSITION                                       TOTAL-FORCE (eV/Angst)
 -----------------------------------------------------------------------------------
      0.01704      0.00984      0.00377         0.002066      0.000647      0.000409
      0.00733      7.54434      3.86973         0.001296     -0.003593      0.000156
      7.64459      3.85429      7.63057         0.000062      0.000108     -0.000117
      7.67057      3.84491      3.96198        -0.002567     -0.002090      0.000706
      3.90542      0.00636      0.01789         0.002583      0.002188     -0.000014
      3.89651      0.00775      3.72583         0.001433      0.000593     -0.001993
      3.93628      3.85783      0.05341        -0.001513      0.004729     -0.000885
      3.97724      3.85243      3.73598        -0.003178     -0.000095     -0.000184
      5.87808      3.86059      0.00258        -0.001611      0.001084     -0.000234
      5.84801      3.83279      3.85449        -0.002925     -0.003448      0.000763
      0.00468      5.82777      3.85441        -0.001965     -0.000978      0.001873
      3.89392      1.87263      7.71734        -0.000217      0.001654     -0.000959
      3.89452      5.83768      7.71744        -0.000192     -0.001266     -0.000078
      0.02518      3.83060      5.80266        -0.001350     -0.003718      0.000260
      3.91136      0.00377      1.99090         0.004560      0.001914      0.000963
      3.86235      3.85803      1.96403        -0.002658      0.000317     -0.000456
      1.87088      0.00158      7.71241         0.001782      0.001618      0.000555
      1.93085      0.03297      3.89690         0.000549     -0.002908     -0.000577
      1.89303      3.86182      0.01501        -0.001437      0.001509      0.000670
      1.93384      3.82987      3.85719        -0.002428     -0.000402     -0.000407
      5.94351      0.00220      7.71106         0.002964      0.002136     -0.000382
      5.86484      0.04212      3.90048         0.001805      0.001647      0.001005
      0.03730      1.86625      0.04117         0.001540      0.001080      0.003389
      0.02175      1.84343      3.83544         0.001133     -0.001917     -0.001714
      0.03617      5.84959      0.04050         0.001296     -0.000489     -0.001725
      3.85801      1.90094      3.96787        -0.005288      0.000564      0.000175
      3.85896      5.81051      3.96245        -0.000294     -0.000092     -0.001288
      0.00378      0.02866      1.90609         0.002357     -0.003247      0.000539
      0.00481      0.03422      5.83775         0.003701      0.001287     -0.000246
      0.05962      3.82909      1.92388        -0.002753     -0.000957      0.000199
      3.91161      0.00081      5.74124         0.005299      0.000742     -0.000466
      3.82599      3.85907      5.76686        -0.004049      0.001384      0.000061
 -----------------------------------------------------------------------------------
    total drift:                               -0.002122     -0.002749      0.001296


--------------------------------------------------------------------------------------------------------



  FREE ENERGIE OF THE ION-ELECTRON SYSTEM (eV)
  ---------------------------------------------------
  free  energy   TOTEN  =      -211.06746803 eV

  energy  without entropy=     -211.06746803  energy(sigma->0) =     -211.06746803
 


--------------------------------------------------------------------------------------------------------


    POTLOK:  cpu time    0.9948: real time    0.9956


--------------------------------------------------------------------------------------------------------


 stress matrix after NEB project (eV)
      0.02874      0.00402      0.00000
      0.00402     -0.01748      0.00502
      0.00000      0.00502     -0.01571
  FORCES: max atom, RMS     0.005371    0.003370
  FORCE total and by dimension    0.019064    0.005299
  Stress total and by dimension    0.038227    0.028744
 Quasi-Newton relaxation of ions (Broydens 2nd method)
  g(Force)  = 0.175E-04   g(Stress)= 0.220E-05

 Reset! Starting new Quasi-Newton update for ions 


--------------------------------------------------------------------------------------------------------


  
 reached required accuracy - stopping structural energy minimisation
 writing wavefunctions
     LOOP+:  cpu time  102.8244: real time  107.4704
    4ORBIT:  cpu time    0.0000: real time    0.0000
 


 total charge     
 
# of ion       s       p       d       tot
------------------------------------------
    1        0.327   6.520   1.737   8.585
    2        0.312   6.473   1.845   8.630
    3        0.312   6.455   1.833   8.600
    4        0.316   6.447   1.753   8.516
    5        0.293   6.449   1.754   8.496
    6        0.315   6.476   1.825   8.617
    7        0.304   6.426   1.651   8.380
    8        0.314   6.454   1.791   8.558
    9        1.570   3.450   0.000   5.020
   10        1.567   3.461   0.000   5.027
   11        1.575   3.449   0.000   5.024
   12        1.565   3.415   0.000   4.980
   13        1.565   3.416   0.000   4.981
   14        1.568   3.467   0.000   5.035
   15        1.573   3.453   0.000   5.026
   16        1.570   3.457   0.000   5.028
   17        1.734   4.381   0.000   6.114
   18        1.730   4.391   0.000   6.121
   19        1.728   4.369   0.000   6.097
   20        1.728   4.368   0.000   6.096
   21        1.733   4.380   0.000   6.113
   22        1.730   4.390   0.000   6.119
   23        1.733   4.388   0.000   6.122
   24        1.729   4.381   0.000   6.110
   25        1.733   4.387   0.000   6.120
   26        1.731   4.393   0.000   6.125
   27        1.731   4.392   0.000   6.123
   28        1.731   4.392   0.000   6.123
   29        1.731   4.392   0.000   6.123
   30        1.728   4.371   0.000   6.099
   31        1.729   4.379   0.000   6.108
   32        1.729   4.371   0.000   6.100
--------------------------------------------------
tot         42.734 149.391  14.188 206.313
 


 magnetization (x)
 
# of ion       s       p       d       tot
------------------------------------------
    1        0.000   0.000   0.000   0.000
    2       -0.000   0.000   0.000   0.000
    3        0.000   0.000  -0.000   0.000
    4        0.000   0.000   0.000   0.000
    5       -0.000  -0.000   0.000   0.000
    6       -0.000   0.000  -0.000  -0.000
    7       -0.000   0.000   0.000   0.000
    8        0.000   0.000   0.000   0.000
    9       -0.000   0.000   0.000  -0.000
   10        0.000   0.000   0.000   0.000
   11        0.000  -0.000   0.000  -0.000
   12       -0.000  -0.000   0.000  -0.000
   13       -0.000  -0.000   0.000  -0.000
   14        0.000   0.000   0.000   0.000
   15        0.000  -0.000   0.000  -0.000
   16        0.000  -0.000   0.000  -0.000
   17        0.000  -0.000   0.000  -0.000
   18       -0.000  -0.000   0.000  -0.000
   19       -0.000   0.000   0.000   0.000
   20        0.000   0.000   0.000   0.000
   21       -0.000  -0.000   0.000  -0.000
   22       -0.000  -0.000   0.000  -0.000
   23        0.000  -0.000   0.000  -0.000
   24       -0.000   0.000   0.000   0.000
   25       -0.000  -0.000   0.000  -0.000
   26       -0.000  -0.000   0.000  -0.000
   27       -0.000   0.000   0.000   0.000
   28       -0.000   0.000   0.000   0.000
   29       -0.000  -0.000   0.000  -0.000
   30        0.000   0.000   0.000   0.000
   31        0.000  -0.000   0.000  -0.000
   32       -0.000  -0.000   0.000  -0.000
--------------------------------------------------
tot         -0.000  -0.000   0.000  -0.000
 

 total amount of memory used by VASP MPI-rank0   107323. kBytes
=======================================================================

   base      :      30000. kBytes
   nonlr-proj:       8547. kBytes
   fftplans  :       8424. kBytes
   grid      :       8783. kBytes
   one-center:        124. kBytes
   wavefun   :      51445. kBytes
 
  
  
 General timing and accounting informations for this job:
 ========================================================
  
                  Total CPU time used (sec):      152.622
                            User time (sec):      135.916
                          System time (sec):       16.705
                         Elapsed time (sec):      171.017
  
                   Maximum memory used (kb):      223196.
                   Average memory used (kb):           0.
  
                          Minor page faults:        86704
                          Major page faults:            2
                 Voluntary context switches:        57921
