LTO                                     
           1
     7.787207    0.000558   -0.001681
     0.000579    7.700700   -0.001321
    -0.001656   -0.001311    7.736934
   Ti   O    F 
   8   8  16
Direct configuration=     1
   0.00218869  0.00127756  0.00048807
   0.00097501  0.97978033  0.50033064
   0.98185850  0.50060787  0.98655140
   0.98509361  0.49930890  0.51238620
   0.50151824  0.00078971  0.00242119
   0.50047520  0.00105182  0.48167300
   0.50544443  0.50093563  0.00709796
   0.51080553  0.50031563  0.48307269
   0.75480130  0.50127485  0.00058345
   0.75104584  0.49775028  0.49844169
   0.00065112  0.75686928  0.49831193
   0.50023428  0.24331073  0.99761706
   0.50027372  0.75820498  0.99771874
   0.00335552  0.49756317  0.75008016
   0.50233518  0.00049716  0.25743326
   0.49600294  0.50100426  0.25404470
   0.24046198  0.00035751  0.99688246
   0.24805801  0.00434921  0.50372920
   0.24305801  0.50147261  0.00207789
   0.24840464  0.49740709  0.49868126
   0.76345162  0.00040009  0.99682195
   0.75324506  0.00550076  0.50430271
   0.00477286  0.24234827  0.00536313
   0.00288052  0.23946865  0.49577296
   0.00458886  0.75961902  0.00536584
   0.49552046  0.24690402  0.51299727
   0.49560438  0.75459427  0.51238434
   0.00053763  0.00376421  0.24636376
   0.00077725  0.00457209  0.75453132
   0.00767158  0.49728122  0.24874868
   0.50246971  0.00019501  0.74216573
   0.49143831  0.50122380  0.74555939
