LTO                                     
           1
     7.872510    0.000000    0.000000
    -0.000000    7.646455    0.000000
     0.000000    0.000000    7.646460
   Ti   O    F 
   8   8  16
Direct configuration=     1
   1.00000000  0.98816469  0.98816549
   0.00000000  0.98816531  0.51183411
   1.00000000  0.51183178  0.98816611
   0.00000000  0.51183232  0.51183465
   0.50000000  0.01183853  0.01183102
   0.50000000  0.01183863  0.48816860
   0.50000000  0.48816940  0.01183660
   0.50000000  0.48816958  0.48816338
   1.00000000  0.75000504  0.00683821
   0.00000000  0.75000321  0.49316175
   0.50000000  0.24998805  0.99316131
   0.50000000  0.24998754  0.50683864
   1.00000000  0.00683828  0.75000054
   0.00000000  0.49316206  0.74999947
   0.50000000  0.99316211  0.25000040
   0.50000000  0.50683765  0.24999995
   0.25000093  0.00000004  0.00000008
   0.25000118  0.00000005  0.49999984
   0.24999899  0.50000017  0.99999985
   0.24999867  0.50000018  0.50000015
   0.74999907  0.00000004  0.00000008
   0.74999882  0.00000005  0.49999984
   0.75000101  0.50000017  0.99999985
   0.75000133  0.50000018  0.50000015
   1.00000000  0.24999857  0.00917513
   0.00000000  0.24999899  0.49082488
   0.50000000  0.75000329  0.99082514
   0.50000000  0.75000341  0.50917479
   0.00000000  0.00917497  0.24999985
   1.00000000  0.49082446  0.25000030
   0.50000000  0.99082478  0.74999986
   0.50000000  0.50917648  0.74999998
