 vasp.5.4.4.18Apr17-6-g9f103f2a35 (build Apr 30 2017 20:10:35) complex          
  
 executed on             LinuxIFC date 2017.08.06  09:49:07
 running on   64 total cores
 distrk:  each k-point on   64 cores,    1 groups
 distr:  one band on NCORES_PER_BAND=   8 cores,    8 groups


--------------------------------------------------------------------------------------------------------


 INCAR:
 POTCAR:   PAW_PBE Ti_pv 07Sep2000                
 POTCAR:   PAW_PBE O 08Apr2002                    
 POTCAR:    PAW_PBE F 08Apr2002                   
 POTCAR:   PAW_PBE Ti_pv 07Sep2000                
   VRHFIN =Ti: d3 s1                                                            
   LEXCH  = PE                                                                  
   EATOM  =  1042.3781 eV,   76.6126 Ry                                         
                                                                                
   TITEL  = PAW_PBE Ti_pv 07Sep2000                                             
   LULTRA =        F    use ultrasoft PP ?                                      
   IUNSCR =        1    unscreen: 0-lin 1-nonlin 2-no                           
   RPACOR =    2.200    partial core radius                                     
   POMASS =   47.880; ZVAL   =   10.000    mass and valenz                      
   RCORE  =    2.500    outmost cutoff radius                                   
   RWIGS  =    2.500; RWIGS  =    1.323    wigner-seitz radius (au A)           
   ENMAX  =  222.338; ENMIN  =  166.753 eV                                      
   RCLOC  =    1.701    cutoff for local pot                                    
   LCOR   =        T    correct aug charges                                     
   LPAW   =        T    paw PP                                                  
   EAUG   =  482.848                                                            
   DEXC   =    -.008                                                            
   RMAX   =    3.092    core radius for proj-oper                               
   RAUG   =    1.300    factor for augmentation sphere                          
   RDEP   =    2.538    radius for radial grids                                 
   QCUT   =   -4.042; QGAM   =    8.085    optimization parameters              
                                                                                
   Description                                                                  
     l     E      TYP  RCUT    TYP  RCUT                                        
     1   .000     23  2.300                                                     
     1  -.100     23  2.300                                                     
     2   .000     23  2.500                                                     
     2   .000     23  2.500                                                     
     0   .000     23  2.500                                                     
     0  1.500     23  2.500                                                     
     3   .000      7   .000                                                     
  local pseudopotential read in
  partial core-charges read in
  atomic valenz-charges read in
  non local Contribution for L=           1  read in
    real space projection operators read in
  non local Contribution for L=           1  read in
    real space projection operators read in
  non local Contribution for L=           2  read in
    real space projection operators read in
  non local Contribution for L=           2  read in
    real space projection operators read in
  non local Contribution for L=           0  read in
    real space projection operators read in
  non local Contribution for L=           0  read in
    real space projection operators read in
    PAW grid and wavefunctions read in
 
   number of l-projection  operators is LMAX  =           6
   number of lm-projection operators is LMMAX =          18
 
 POTCAR:   PAW_PBE O 08Apr2002                    
   VRHFIN =O: s2p4                                                              
   LEXCH  = PE                                                                  
   EATOM  =   432.3788 eV,   31.7789 Ry                                         
                                                                                
   TITEL  = PAW_PBE O 08Apr2002                                                 
   LULTRA =        F    use ultrasoft PP ?                                      
   IUNSCR =        0    unscreen: 0-lin 1-nonlin 2-no                           
   RPACOR =     .000    partial core radius                                     
   POMASS =   16.000; ZVAL   =    6.000    mass and valenz                      
   RCORE  =    1.520    outmost cutoff radius                                   
   RWIGS  =    1.550; RWIGS  =     .820    wigner-seitz radius (au A)           
   ENMAX  =  400.000; ENMIN  =  300.000 eV                                      
   ICORE  =        2    local potential                                         
   LCOR   =        T    correct aug charges                                     
   LPAW   =        T    paw PP                                                  
   EAUG   =  605.392                                                            
   DEXC   =     .000                                                            
   RMAX   =    2.264    core radius for proj-oper                               
   RAUG   =    1.300    factor for augmentation sphere                          
   RDEP   =    1.550    radius for radial grids                                 
   QCUT   =   -5.520; QGAM   =   11.041    optimization parameters              
                                                                                
   Description                                                                  
     l     E      TYP  RCUT    TYP  RCUT                                        
     0   .000     23  1.200                                                     
     0  -.700     23  1.200                                                     
     1   .000     23  1.520                                                     
     1   .600     23  1.520                                                     
     2   .000      7  1.500                                                     
  local pseudopotential read in
  atomic valenz-charges read in
  non local Contribution for L=           0  read in
    real space projection operators read in
  non local Contribution for L=           0  read in
    real space projection operators read in
  non local Contribution for L=           1  read in
    real space projection operators read in
  non local Contribution for L=           1  read in
    real space projection operators read in
    PAW grid and wavefunctions read in
 
   number of l-projection  operators is LMAX  =           4
   number of lm-projection operators is LMMAX =           8
 
 POTCAR:    PAW_PBE F 08Apr2002                   
   VRHFIN =F: s2p5                                                              
   LEXCH  = PE                                                                  
   EATOM  =   659.6475 eV,   48.4827 Ry                                         
                                                                                
   TITEL  = PAW_PBE F 08Apr2002                                                 
   LULTRA =        F    use ultrasoft PP ?                                      
   IUNSCR =        1    unscreen: 0-lin 1-nonlin 2-no                           
   RPACOR =    1.200    partial core radius                                     
   POMASS =   18.998; ZVAL   =    7.000    mass and valenz                      
   RCORE  =    1.520    outmost cutoff radius                                   
   RWIGS  =    1.500; RWIGS  =    0.794    wigner-seitz radius (au A)           
   ENMAX  =  400.000; ENMIN  =  300.000 eV                                      
   ICORE  =        2    local potential                                         
   LCOR   =        T    correct aug charges                                     
   LPAW   =        T    paw PP                                                  
   EAUG   =  613.614                                                            
   RMAX   =    1.555    core radius for proj-oper                               
   RAUG   =    1.300    factor for augmentation sphere                          
   RDEP   =    1.539    radius for radial grids                                 
   RDEPT  =    1.299    core radius for aug-charge                              
                                                                                
   Atomic configuration                                                         
    4 entries                                                                   
     n  l   j            E        occ.                                          
     1  0  0.50      -663.3661   2.0000                                         
     2  0  0.50       -29.8995   2.0000                                         
     2  1  0.50       -11.1114   5.0000                                         
     3  2  1.50       -10.8847   0.0000                                         
   Description                                                                  
     l       E           TYP  RCUT    TYP  RCUT                                 
     0    -29.8995018     23  1.200                                             
     0     -9.5240782     23  1.200                                             
     1    -11.1113914     23  1.520                                             
     1      1.3605826     23  1.520                                             
     2    -10.8846608      7  1.500                                             
  local pseudopotential read in
  partial core-charges read in
  partial kinetic energy density read in
  atomic valenz-charges read in
  non local Contribution for L=           0  read in
    real space projection operators read in
  non local Contribution for L=           0  read in
    real space projection operators read in
  non local Contribution for L=           1  read in
    real space projection operators read in
  non local Contribution for L=           1  read in
    real space projection operators read in
    PAW grid and wavefunctions read in
 
   number of l-projection  operators is LMAX  =           4
   number of lm-projection operators is LMMAX =           8
 
 Optimization of the real space projectors (new method)

 maximal supplied QI-value         = 15.12
 optimisation between [QCUT,QGAM] = [ 13.45, 27.06] = [ 50.69,205.06] Ry 
 Optimized for a Real-space Cutoff    1.49 Angstroem

   l    n(q)    QCUT    max X(q) W(low)/X(q) W(high)/X(q)  e(spline) 
   1     12    13.455     4.841    0.13E-05    0.83E-06    0.56E-07
   1     12    13.455     5.701    0.32E-04    0.25E-04    0.17E-06
   2     11    13.455     4.569    0.64E-05    0.34E-05    0.50E-07
   2     11    13.455    32.276    0.49E-04    0.38E-04    0.46E-06
   0     12    13.455    30.046    0.17E-04    0.41E-05    0.51E-07
   0     12    13.455    45.433    0.12E-04    0.27E-04    0.38E-06
 Optimization of the real space projectors (new method)

 maximal supplied QI-value         = 24.76
 optimisation between [QCUT,QGAM] = [ 13.37, 26.98] = [ 50.04,203.89] Ry 
 Optimized for a Real-space Cutoff    1.17 Angstroem

   l    n(q)    QCUT    max X(q) W(low)/X(q) W(high)/X(q)  e(spline) 
   0      9    13.368     4.192    0.20E-04    0.58E-05    0.56E-07
   0      9    13.368     8.473    0.60E-04    0.52E-04    0.21E-06
   1      9    13.368     2.474    0.22E-04    0.17E-04    0.28E-07
   1      9    13.368     3.912    0.94E-04    0.97E-04    0.20E-06
 Optimization of the real space projectors (new method)

 maximal supplied QI-value         = 24.76
 optimisation between [QCUT,QGAM] = [ 13.37, 26.98] = [ 50.04,203.89] Ry 
 Optimized for a Real-space Cutoff    1.17 Angstroem

   l    n(q)    QCUT    max X(q) W(low)/X(q) W(high)/X(q)  e(spline) 
   0      9    13.368    14.049    0.39E-04    0.34E-04    0.16E-06
   0      9    13.368     8.945    0.54E-04    0.47E-04    0.20E-06
   1      9    13.368     7.086    0.99E-04    0.10E-03    0.23E-06
   1      9    13.368     6.747    0.86E-04    0.89E-04    0.21E-06

 ----------------------------------------------------------------------------- 
|                                                                             |
|  ADVICE TO THIS USER RUNNING 'VASP/VAMP'   (HEAR YOUR MASTER'S VOICE ...):  |
|                                                                             |
|      You enforced a specific xc-type in the INCAR file,                     |
|      a different type was found on the POTCAR file                          |
|          I HOPE YOU KNOW, WHAT YOU ARE  DOING                               |
|                                                                             |
 ----------------------------------------------------------------------------- 

 PAW_PBE Ti_pv 07Sep2000                :
 energy of atom  1       EATOM=-1042.3781
 kinetic energy error for atom=    0.0006 (will be added to EATOM!!)
 PAW_PBE O 08Apr2002                    :
 energy of atom  2       EATOM= -432.3788
 kinetic energy error for atom=    0.0091 (will be added to EATOM!!)
  PAW_PBE F 08Apr2002                   :
 energy of atom  3       EATOM= -659.6475
 kinetic energy error for atom=    0.0140 (will be added to EATOM!!)
 
 
 POSCAR: TiOF2 2x2x2 config 0018                 
  positions in direct lattice
  velocities in cartesian coordinates
 exchange correlation table for  LEXCH =       14
   RHO(1)=    0.500       N(1)  =     2000
   RHO(2)=  100.500       N(2)  =     4000

 VTST: version 3.1, (03/28/14)

 CHAIN: initializing optimizer
 
 OPT: Using VASP QUASI-newton optimizer
 CHAIN: Read ICHAIN            0
 
 POSCAR: TiOF2 2x2x2 config 0018                 
  positions in direct lattice
  velocities in cartesian coordinates
 


--------------------------------------------------------------------------------------------------------


 ion  position               nearest neighbor table
   1  1.000  1.000  0.988-  11 1.79  21 1.91  17 1.91  25 1.91  27 1.91  31 1.97
   2  0.000  0.000  0.510-  11 1.82  18 1.89  22 1.89  28 1.91  26 1.91  31 1.97
   3  0.000  0.500  0.001-  12 1.87  13 1.88  27 1.97  25 1.97  19 1.97  23 1.97
   4  1.000  0.500  0.500-  12 1.89  13 1.91  24 1.93  20 1.93  26 1.97  28 1.97
   5  0.500  0.000  0.000-  15 1.82  14 1.84  30 1.97  29 1.97  17 2.05  21 2.05
   6  0.500  1.000  0.498-  14 1.92  15 1.97  10 1.97   9 1.97  22 2.07  18 2.07
   7  0.500  0.500  0.983-  16 1.72  29 1.92  30 1.92  32 1.95  19 1.99  23 1.99
   8  0.500  0.500  0.502-   9 1.91  10 1.91  16 1.91  32 1.97  20 2.03  24 2.03
   9  0.500  0.254  0.499-   8 1.91   6 1.97
  10  0.500  0.746  0.499-   8 1.91   6 1.97
  11  0.000  1.000  0.751-   1 1.79   2 1.82
  12  1.000  0.500  0.249-   3 1.87   4 1.89
  13  0.000  0.500  0.752-   3 1.88   4 1.91
  14  0.500  0.000  0.244-   5 1.84   6 1.92
  15  0.500  0.000  0.759-   5 1.82   6 1.97
  16  0.500  0.500  0.756-   7 1.72   8 1.91
  17  0.241  1.000  0.005-   1 1.91   5 2.05
  18  0.238  0.000  0.495-   2 1.89   6 2.07
  19  0.249  0.500  0.003-   3 1.97   7 1.99
  20  0.243  0.500  0.498-   4 1.93   8 2.03
  21  0.759  1.000  0.005-   1 1.91   5 2.05
  22  0.762  0.000  0.495-   2 1.89   6 2.07
  23  0.751  0.500  0.003-   3 1.97   7 1.99
  24  0.757  0.500  0.498-   4 1.93   8 2.03
  25  0.000  0.246  0.005-   1 1.91   3 1.97
  26  0.000  0.246  0.496-   2 1.91   4 1.97
  27  1.000  0.754  0.005-   1 1.91   3 1.97
  28  1.000  0.754  0.496-   2 1.91   4 1.97
  29  0.500  0.254  0.007-   7 1.92   5 1.97
  30  0.500  0.746  0.007-   7 1.92   5 1.97
  31  1.000  1.000  0.249-   2 1.97   1 1.97
  32  0.500  0.500  0.242-   7 1.95   8 1.97
 

IMPORTANT INFORMATION: All symmetrisations will be switched off!
NOSYMM: (Re-)initialisation of all symmetry stuff for point group C_1.

 
 
 KPOINTS: Title                                   

Automatic generation of k-mesh.
Space group operators:
 irot       det(A)        alpha          n_x          n_y          n_z        tau_x        tau_y        tau_z
    1     1.000000     0.000001     1.000000     0.000000     0.000000     0.000000     0.000000     0.000000
 
 Subroutine IBZKPT returns following result:
 ===========================================
 
 Found     32 irreducible k-points:
 
 Following reciprocal coordinates:
            Coordinates               Weight
  0.125000  0.125000  0.125000      2.000000
  0.375000  0.125000  0.125000      2.000000
 -0.375000  0.125000  0.125000      2.000000
 -0.125000  0.125000  0.125000      2.000000
  0.125000  0.375000  0.125000      2.000000
  0.375000  0.375000  0.125000      2.000000
 -0.375000  0.375000  0.125000      2.000000
 -0.125000  0.375000  0.125000      2.000000
  0.125000 -0.375000  0.125000      2.000000
  0.375000 -0.375000  0.125000      2.000000
 -0.375000 -0.375000  0.125000      2.000000
 -0.125000 -0.375000  0.125000      2.000000
  0.125000 -0.125000  0.125000      2.000000
  0.375000 -0.125000  0.125000      2.000000
 -0.375000 -0.125000  0.125000      2.000000
 -0.125000 -0.125000  0.125000      2.000000
  0.125000  0.125000  0.375000      2.000000
  0.375000  0.125000  0.375000      2.000000
 -0.375000  0.125000  0.375000      2.000000
 -0.125000  0.125000  0.375000      2.000000
  0.125000  0.375000  0.375000      2.000000
  0.375000  0.375000  0.375000      2.000000
 -0.375000  0.375000  0.375000      2.000000
 -0.125000  0.375000  0.375000      2.000000
  0.125000 -0.375000  0.375000      2.000000
  0.375000 -0.375000  0.375000      2.000000
 -0.375000 -0.375000  0.375000      2.000000
 -0.125000 -0.375000  0.375000      2.000000
  0.125000 -0.125000  0.375000      2.000000
  0.375000 -0.125000  0.375000      2.000000
 -0.375000 -0.125000  0.375000      2.000000
 -0.125000 -0.125000  0.375000      2.000000
 
 Following cartesian coordinates:
            Coordinates               Weight
  0.015794  0.016113  0.016566      2.000000
  0.047382  0.016113  0.016566      2.000000
 -0.047382  0.016113  0.016566      2.000000
 -0.015794  0.016113  0.016566      2.000000
  0.015794  0.048339  0.016566      2.000000
  0.047382  0.048339  0.016566      2.000000
 -0.047382  0.048339  0.016566      2.000000
 -0.015794  0.048339  0.016566      2.000000
  0.015794 -0.048339  0.016566      2.000000
  0.047382 -0.048339  0.016566      2.000000
 -0.047382 -0.048339  0.016566      2.000000
 -0.015794 -0.048339  0.016566      2.000000
  0.015794 -0.016113  0.016566      2.000000
  0.047382 -0.016113  0.016566      2.000000
 -0.047382 -0.016113  0.016566      2.000000
 -0.015794 -0.016113  0.016566      2.000000
  0.015794  0.016113  0.049697      2.000000
  0.047382  0.016113  0.049697      2.000000
 -0.047382  0.016113  0.049697      2.000000
 -0.015794  0.016113  0.049697      2.000000
  0.015794  0.048339  0.049697      2.000000
  0.047382  0.048339  0.049697      2.000000
 -0.047382  0.048339  0.049697      2.000000
 -0.015794  0.048339  0.049697      2.000000
  0.015794 -0.048339  0.049697      2.000000
  0.047382 -0.048339  0.049697      2.000000
 -0.047382 -0.048339  0.049697      2.000000
 -0.015794 -0.048339  0.049697      2.000000
  0.015794 -0.016113  0.049697      2.000000
  0.047382 -0.016113  0.049697      2.000000
 -0.047382 -0.016113  0.049697      2.000000
 -0.015794 -0.016113  0.049697      2.000000
 


--------------------------------------------------------------------------------------------------------




 Dimension of arrays:
   k-points           NKPTS =     32   k-points in BZ     NKDIM =     32   number of bands    NBANDS=    160
   number of dos      NEDOS =   3001   number of ions     NIONS =     32
   non local maximal  LDIM  =      6   non local SUM 2l+1 LMDIM =     18
   total plane-waves  NPLWV = 343000
   max r-space proj   IRMAX =  10265   max aug-charges    IRDMAX= 230123
   dimension x,y,z NGX =    70 NGY =   70 NGZ =   70
   dimension x,y,z NGXF=   140 NGYF=  140 NGZF=  140
   support grid    NGXF=   280 NGYF=  280 NGZF=  280
   ions per type =               8   8  16
   NGX,Y,Z   is equivalent  to a cutoff of  14.70, 15.00, 15.42 a.u.
   NGXF,Y,Z  is equivalent  to a cutoff of  29.41, 30.00, 30.84 a.u.

 SYSTEM =  LTO                                     
 POSCAR =  TiOF2 2x2x2 config 0018                 

 Startparameter for this run:
   NWRITE =      2    write-flag & timer
   PREC   = accura    normal or accurate (medium, high low for compatibility)
   ISTART =      1    job   : 0-new  1-cont  2-samecut
   ICHARG =      0    charge: 1-file 2-atom 10-const
   ISPIN  =      2    spin polarized calculation?
   LNONCOLLINEAR =      F non collinear calculations
   LSORBIT =      F    spin-orbit coupling
   INIWAV =      1    electr: 0-lowe 1-rand  2-diag
   LASPH  =      T    aspherical Exc in radial PAW
   METAGGA=      F    non-selfconsistent MetaGGA calc.

 Electronic Relaxation 1
   ENCUT  =  700.0 eV  51.45 Ry    7.17 a.u.  17.07 16.74 16.28*2*pi/ulx,y,z
   ENINI  =  700.0     initial cutoff
   ENAUG  =  613.6 eV  augmentation charge cutoff
   NELM   =     60;   NELMIN=  2; NELMDL=  0     # of ELM steps 
   EDIFF  = 0.1E-05   stopping-criterion for ELM
   LREAL  =      T    real-space projection
   NLSPLINE    = F    spline interpolate recip. space projectors
   LCOMPAT=      F    compatible to vasp.4.4
   GGA_COMPAT  = T    GGA compatible to vasp.4.4-vasp.4.6
   LMAXPAW     = -100 max onsite density
   LMAXMIX     =    4 max onsite mixed and CHGCAR
   VOSKOWN=      0    Vosko Wilk Nusair interpolation
   ROPT   =   -0.00010  -0.00010  -0.00010
 Ionic relaxation
   EDIFFG = -.1E-01   stopping-criterion for IOM
   NSW    =    100    number of steps for IOM
   NBLOCK =      1;   KBLOCK =    100    inner block; outer block 
   IBRION =      1    ionic relax: 0-MD 1-quasi-New 2-CG
   NFREE  =      0    steps in history (QN), initial steepest desc. (CG)
   ISIF   =      3    stress and relaxation
   IWAVPR =     11    prediction:  0-non 1-charg 2-wave 3-comb
   ISYM   =      0    0-nonsym 1-usesym 2-fastsym
   LCORR  =      T    Harris-Foulkes like correction to forces

   POTIM  = 0.5000    time-step for ionic-motion
   TEIN   =    0.0    initial temperature
   TEBEG  =    0.0;   TEEND  =   0.0 temperature during run
   SMASS  =  -3.00    Nose mass-parameter (am)
   estimated Nose-frequenzy (Omega)   =  0.10E-29 period in steps =****** mass=  -0.143E-26a.u.
   SCALEE = 1.0000    scale energy and forces
   NPACO  =    256;   APACO  = 16.0  distance and # of slots for P.C.
   PSTRESS=    0.0 pullay stress

  Mass of Ions in am
   POMASS =  47.88 16.00 19.00
  Ionic Valenz
   ZVAL   =  10.00  6.00  7.00
  Atomic Wigner-Seitz radii
   RWIGS  =  -1.00 -1.00 -1.00
  virtual crystal weights 
   VCA    =   1.00  1.00  1.00
   NELECT =     240.0000    total number of electrons
   NUPDOWN=      -1.0000    fix difference up-down

 DOS related values:
   EMIN   =  10.00;   EMAX   =-10.00  energy-range for DOS
   EFERMI =   0.00
   ISMEAR =     0;   SIGMA  =   0.01  broadening in eV -4-tet -1-fermi 0-gaus

 Electronic relaxation 2 (details)
   IALGO  =     38    algorithm
   LDIAG  =      T    sub-space diagonalisation (order eigenvalues)
   LSUBROT=      F    optimize rotation matrix (better conditioning)
   TURBO    =      0    0=normal 1=particle mesh
   IRESTART =      0    0=no restart 2=restart with 2 vectors
   NREBOOT  =      0    no. of reboots
   NMIN     =      0    reboot dimension
   EREF     =   0.00    reference energy to select bands
   IMIX   =      4    mixing-type and parameters
     AMIX     =   0.40;   BMIX     =  1.00
     AMIX_MAG =   1.60;   BMIX_MAG =  1.00
     AMIN     =   0.10
     WC   =   100.;   INIMIX=   1;  MIXPRE=   1;  MAXMIX= -45

 Intra band minimization:
   WEIMIN = 0.0010     energy-eigenvalue tresh-hold
   EBREAK =  0.16E-08  absolut break condition
   DEPER  =   0.30     relativ break condition  

   TIME   =   0.40     timestep for ELM

  volume/ion in A,a.u.               =      14.48        97.70
  Fermi-wavevector in a.u.,A,eV,Ry     =   1.314803  2.484618 23.520496  1.728708
  Thomas-Fermi vector in A             =   2.445031
 
 Write flags
   LWAVE        =      T    write WAVECAR
   LDOWNSAMPLE  =      F    k-point downsampling of WAVECAR
   LCHARG       =      T    write CHGCAR
   LVTOT        =      F    write LOCPOT, total local potential
   LVHAR        =      F    write LOCPOT, Hartree potential only
   LELF         =      F    write electronic localiz. function (ELF)
   LORBIT       =     11    0 simple, 1 ext, 2 COOP (PROOUT), +10 PAW based schemes


 Dipole corrections
   LMONO  =      F    monopole corrections only (constant potential shift)
   LDIPOL =      F    correct potential (dipole corrections)
   IDIPOL =      0    1-x, 2-y, 3-z, 4-all directions 
   EPSILON=  1.0000000 bulk dielectric constant

 LDA+U is selected, type is set to LDAUTYPE =  2
   angular momentum for each species LDAUL =     2   -1   -1
   U (eV)           for each species LDAUU =   4.2  0.0  0.0
   J (eV)           for each species LDAUJ =   0.0  0.0  0.0
 Exchange correlation treatment:
   GGA     =    PS    GGA type
   LEXCH   =    14    internal setting for exchange type
   VOSKOWN=      0    Vosko Wilk Nusair interpolation
   LHFCALC =     F    Hartree Fock is set to
   LHFONE  =     F    Hartree Fock one center treatment
   AEXX    =    0.0000 exact exchange contribution

 Linear response parameters
   LEPSILON=     F    determine dielectric tensor
   LRPA    =     F    only Hartree local field effects (RPA)
   LNABLA  =     F    use nabla operator in PAW spheres
   LVEL    =     F    velocity operator in full k-point grid
   LINTERFAST=   F  fast interpolation
   KINTER  =     0    interpolate to denser k-point grid
   CSHIFT  =0.1000    complex shift for real part using Kramers Kronig
   OMEGAMAX=  -1.0    maximum frequency
   DEG_THRESHOLD= 0.2000000E-02 threshold for treating states as degnerate
   RTIME   =   -0.100 relaxation time in fs
  (WPLASMAI=    0.000 imaginary part of plasma frequency in eV, 0.658/RTIME)
   DFIELD  = 0.0000000 0.0000000 0.0000000 field for delta impulse in time
 
 Orbital magnetization related:
   ORBITALMAG=     F  switch on orbital magnetization
   LCHIMAG   =     F  perturbation theory with respect to B field
   DQ        =  0.001000  dq finite difference perturbation B field
   LLRAUG    =     F  two centre corrections for induced B field



--------------------------------------------------------------------------------------------------------


 quasi-Newton-method for relaxation of ions
 charge density and potential will be updated during run
 spin polarized calculation
 Variant of blocked Davidson
 Davidson routine will perform the subspace rotation
 perform sub-space diagonalisation
    after iterative eigenvector-optimisation
 modified Broyden-mixing scheme, WC =      100.0
 initial mixing is a Kerker type mixing with AMIX =  0.4000 and BMIX =      1.0000
 Hartree-type preconditioning will be used
 using additional bands           40
 real space projection scheme for non local part
 use partial core corrections
 calculate Harris-corrections to forces 
   (improved forces if not selfconsistent)
 use gradient corrections 
 use of overlap-Matrix (Vanderbilt PP)
 Gauss-broadening in eV      SIGMA  =   0.01


--------------------------------------------------------------------------------------------------------


  energy-cutoff  :      700.00
  volume of cell :      463.29
      direct lattice vectors                 reciprocal lattice vectors
     7.914424960  0.000004383  0.000001351     0.126351568 -0.000000070 -0.000000022
     0.000004323  7.757681202 -0.000006293    -0.000000071  0.128904498  0.000000104
     0.000001287 -0.000006112  7.545744338    -0.000000023  0.000000107  0.132525031

  length of vectors
     7.914424960  7.757681202  7.545744338     0.126351568  0.128904498  0.132525031


 
 old parameters found on file WAVECAR:
  energy-cutoff  :      700.00
  volume of cell :      463.07
      direct lattice vectors                 reciprocal lattice vectors
     7.913264010 -0.000000013 -0.000000004     0.126370105 -0.000000000  0.000000000
     0.000000014  7.756728897 -0.000004028     0.000000000  0.128920324  0.000000067
    -0.000000005 -0.000003910  7.544109213     0.000000000  0.000000069  0.132553754

  length of vectors

 
 k-points in units of 2pi/SCALE and weight: Title                                   
   0.01579393  0.01611307  0.01656564       0.031
   0.04738183  0.01611305  0.01656563       0.031
  -0.04738185  0.01611310  0.01656565       0.031
  -0.01579396  0.01611308  0.01656564       0.031
   0.01579392  0.04833919  0.01656567       0.031
   0.04738181  0.04833917  0.01656566       0.031
  -0.04738187  0.04833923  0.01656568       0.031
  -0.01579398  0.04833921  0.01656567       0.031
   0.01579397 -0.04833918  0.01656559       0.031
   0.04738186 -0.04833920  0.01656558       0.031
  -0.04738181 -0.04833915  0.01656560       0.031
  -0.01579392 -0.04833916  0.01656559       0.031
   0.01579395 -0.01611306  0.01656561       0.031
   0.04738184 -0.01611308  0.01656561       0.031
  -0.04738183 -0.01611302  0.01656562       0.031
  -0.01579394 -0.01611304  0.01656562       0.031
   0.01579393  0.01611309  0.04969690       0.031
   0.04738182  0.01611308  0.04969689       0.031
  -0.04738186  0.01611313  0.04969691       0.031
  -0.01579396  0.01611311  0.04969690       0.031
   0.01579391  0.04833922  0.04969692       0.031
   0.04738180  0.04833920  0.04969692       0.031
  -0.04738187  0.04833925  0.04969693       0.031
  -0.01579398  0.04833924  0.04969693       0.031
   0.01579396 -0.04833916  0.04969684       0.031
   0.04738186 -0.04833917  0.04969684       0.031
  -0.04738182 -0.04833912  0.04969686       0.031
  -0.01579393 -0.04833914  0.04969685       0.031
   0.01579395 -0.01611303  0.04969687       0.031
   0.04738184 -0.01611305  0.04969687       0.031
  -0.04738184 -0.01611300  0.04969688       0.031
  -0.01579395 -0.01611301  0.04969688       0.031
 
 k-points in reciprocal lattice and weights: Title                                   
   0.12500000  0.12500000  0.12500000       0.031
   0.37500000  0.12500000  0.12500000       0.031
  -0.37500000  0.12500000  0.12500000       0.031
  -0.12500000  0.12500000  0.12500000       0.031
   0.12500000  0.37500000  0.12500000       0.031
   0.37500000  0.37500000  0.12500000       0.031
  -0.37500000  0.37500000  0.12500000       0.031
  -0.12500000  0.37500000  0.12500000       0.031
   0.12500000 -0.37500000  0.12500000       0.031
   0.37500000 -0.37500000  0.12500000       0.031
  -0.37500000 -0.37500000  0.12500000       0.031
  -0.12500000 -0.37500000  0.12500000       0.031
   0.12500000 -0.12500000  0.12500000       0.031
   0.37500000 -0.12500000  0.12500000       0.031
  -0.37500000 -0.12500000  0.12500000       0.031
  -0.12500000 -0.12500000  0.12500000       0.031
   0.12500000  0.12500000  0.37500000       0.031
   0.37500000  0.12500000  0.37500000       0.031
  -0.37500000  0.12500000  0.37500000       0.031
  -0.12500000  0.12500000  0.37500000       0.031
   0.12500000  0.37500000  0.37500000       0.031
   0.37500000  0.37500000  0.37500000       0.031
  -0.37500000  0.37500000  0.37500000       0.031
  -0.12500000  0.37500000  0.37500000       0.031
   0.12500000 -0.37500000  0.37500000       0.031
   0.37500000 -0.37500000  0.37500000       0.031
  -0.37500000 -0.37500000  0.37500000       0.031
  -0.12500000 -0.37500000  0.37500000       0.031
   0.12500000 -0.12500000  0.37500000       0.031
   0.37500000 -0.12500000  0.37500000       0.031
  -0.37500000 -0.12500000  0.37500000       0.031
  -0.12500000 -0.12500000  0.37500000       0.031
 
 position of ions in fractional coordinates (direct lattice) 
   0.99999999  0.99999992  0.98785556
   0.00000001  0.00000064  0.50980973
   0.00000001  0.49999992  0.00099548
   0.99999998  0.50000070  0.49970495
   0.49999998  0.00000325  0.00038284
   0.50000002  0.99990008  0.49823651
   0.49999999  0.50000303  0.98314697
   0.49999998  0.49992259  0.50234869
   0.50000002  0.25408016  0.49883460
   0.49999997  0.74601457  0.49883549
   0.00000004  0.99999977  0.75075025
   0.99999999  0.49999981  0.24877893
   0.00000002  0.49999981  0.75226616
   0.50000002  0.00001358  0.24395619
   0.49999998  0.00001181  0.75869126
   0.49999998  0.50000928  0.75554307
   0.24076293  0.99999989  0.00494937
   0.23808354  0.00000374  0.49525383
   0.24927700  0.50000008  0.00337576
   0.24348748  0.50000607  0.49774896
   0.75923706  0.99999985  0.00494932
   0.76191647  0.00000352  0.49525386
   0.75072300  0.50000005  0.00337575
   0.75651251  0.50000593  0.49774898
   0.00000003  0.24595670  0.00526284
   0.00000002  0.24609476  0.49555570
   0.99999999  0.75404312  0.00526280
   0.99999999  0.75390723  0.49555571
   0.50000002  0.25360378  0.00730618
   0.49999999  0.74640442  0.00730810
   0.99999997  0.99999989  0.24904993
   0.50000003  0.50001204  0.24190622
 
 position of ions in cartesian coordinates  (Angst):
   7.91443051  7.75767890  7.45410053
   0.00000071  0.00000187  3.84689386
   0.00000228  3.87883998  0.00750850
   7.91442760  3.87884735  3.77064402
   3.95721235  0.00002736  0.00288950
   3.95721761  7.75690519  3.75955974
   3.95721585  3.87886027  7.41857322
   3.95721510  3.87823917  3.79059235
   3.95721435  1.97107199  3.76407746
   3.95721612  5.78734234  3.76408104
   0.00000558  7.75767485  5.66496315
   7.91442736  3.87884201  1.87722044
   0.00000326  3.87883455  5.67640498
   3.95721294  0.00010607  1.84083170
   3.95721329  0.00008917  5.72489092
   3.95721548  3.87891014  5.70113235
   1.90550446  7.75768139  0.03734071
   1.88429499  0.00002702  3.73705908
   1.97288628  3.87884230  0.02546981
   1.92706617  3.87888574  3.75588356
   6.00892907  7.75768333  0.03734105
   6.03013133  0.00002762  3.73706006
   5.94154299  3.87884430  0.02547045
   5.98736430  3.87888687  3.75588441
   0.00000134  1.90805363  0.03971052
   0.00000183  1.90912170  3.73933510
   7.91442819  5.84963052  0.03970838
   7.91442874  5.84857334  3.73933327
   3.95721371  1.96737940  0.05512966
   3.95721562  5.79036970  0.05514101
   7.91442937  7.75768322  1.87926216
   3.95721520  3.87893472  1.82536000
 


--------------------------------------------------------------------------------------------------------


 k-point  1 :   0.1250 0.1250 0.1250  plane waves:   19485
 k-point  2 :   0.3750 0.1250 0.1250  plane waves:   19502
 k-point  3 :  -0.3750 0.1250 0.1250  plane waves:   19502
 k-point  4 :  -0.1250 0.1250 0.1250  plane waves:   19485
 k-point  5 :   0.1250 0.3750 0.1250  plane waves:   19491
 k-point  6 :   0.3750 0.3750 0.1250  plane waves:   19475
 k-point  7 :  -0.3750 0.3750 0.1250  plane waves:   19475
 k-point  8 :  -0.1250 0.3750 0.1250  plane waves:   19491
 k-point  9 :   0.1250-0.3750 0.1250  plane waves:   19491
 k-point 10 :   0.3750-0.3750 0.1250  plane waves:   19475
 k-point 11 :  -0.3750-0.3750 0.1250  plane waves:   19475
 k-point 12 :  -0.1250-0.3750 0.1250  plane waves:   19491
 k-point 13 :   0.1250-0.1250 0.1250  plane waves:   19485
 k-point 14 :   0.3750-0.1250 0.1250  plane waves:   19502
 k-point 15 :  -0.3750-0.1250 0.1250  plane waves:   19502
 k-point 16 :  -0.1250-0.1250 0.1250  plane waves:   19485
 k-point 17 :   0.1250 0.1250 0.3750  plane waves:   19473
 k-point 18 :   0.3750 0.1250 0.3750  plane waves:   19488
 k-point 19 :  -0.3750 0.1250 0.3750  plane waves:   19488
 k-point 20 :  -0.1250 0.1250 0.3750  plane waves:   19473
 k-point 21 :   0.1250 0.3750 0.3750  plane waves:   19465
 k-point 22 :   0.3750 0.3750 0.3750  plane waves:   19507
 k-point 23 :  -0.3750 0.3750 0.3750  plane waves:   19507
 k-point 24 :  -0.1250 0.3750 0.3750  plane waves:   19465
 k-point 25 :   0.1250-0.3750 0.3750  plane waves:   19465
 k-point 26 :   0.3750-0.3750 0.3750  plane waves:   19507
 k-point 27 :  -0.3750-0.3750 0.3750  plane waves:   19507
 k-point 28 :  -0.1250-0.3750 0.3750  plane waves:   19465
 k-point 29 :   0.1250-0.1250 0.3750  plane waves:   19473
 k-point 30 :   0.3750-0.1250 0.3750  plane waves:   19488
 k-point 31 :  -0.3750-0.1250 0.3750  plane waves:   19488
 k-point 32 :  -0.1250-0.1250 0.3750  plane waves:   19473

 maximum and minimum number of plane-waves per node :      2456     2403

 maximum number of plane-waves:     19507
 maximum index in each direction: 
   IXMAX=   17   IYMAX=   17   IZMAX=   16
   IXMIN=  -17   IYMIN=  -17   IZMIN=  -16


 real space projection operators:
  total allocation   :      18477.39 KBytes
  max/ min on nodes  :       2456.17       1917.41


 parallel 3D FFT for wavefunctions:
    minimum data exchange during FFTs selected (reduces bandwidth)
 parallel 3D FFT for charge:
    minimum data exchange during FFTs selected (reduces bandwidth)


 total amount of memory used by VASP MPI-rank0   107173. kBytes
=======================================================================

   base      :      30000. kBytes
   nonlr-proj:       8562. kBytes
   fftplans  :       8423. kBytes
   grid      :       8783. kBytes
   one-center:        124. kBytes
   wavefun   :      51281. kBytes
 
     INWAV:  cpu time   29.8815: real time   31.9844
 Broyden mixing: mesh for mixing (old mesh)
   NGX = 35   NGY = 33   NGZ = 33
  (NGX  =140   NGY  =140   NGZ  =140)
  gives a total of  38115 points

 charge density for first step will be calculated from the start-wavefunctions


--------------------------------------------------------------------------------------------------------


 Maximum index for non-local projection operator         1379
 Maximum index for augmentation-charges         7165 (set IRDMAX)


--------------------------------------------------------------------------------------------------------


 initial charge from wavefunction
 First call to EWALD:  gamma=   0.229
 Maximum number of real-space cells 3x 3x 3
 Maximum number of reciprocal cells 3x 3x 3

    FEWALD:  cpu time    0.0040: real time    0.0035


--------------------------------------- Iteration      1(   1)  ---------------------------------------


    POTLOK:  cpu time    0.1820: real time    0.1928
    SETDIJ:  cpu time    0.8389: real time    0.8382
     EDDAV:  cpu time   28.6127: real time   28.7006
       DOS:  cpu time    0.0030: real time    0.0033
    CHARGE:  cpu time    1.1548: real time    1.1538
    MIXING:  cpu time    0.0100: real time    0.0099
    --------------------------------------------
      LOOP:  cpu time   30.8013: real time   30.8986

 eigenvalue-minimisations  : 20736
 total energy-change (2. order) :-0.2105046E+03  (-0.4676797E-03)
 number of electron     240.0000003 magnetization      -0.0000000
 augmentation part       61.9485159 magnetization      -0.0000000

 Broyden mixing:
  rms(total) = 0.28629E-03    rms(broyden)= 0.28506E-03
  rms(prec ) = 0.49155E-03
  weight for this iteration     100.00

 Free energy of the ion-electron system (eV)
  ---------------------------------------------------
  alpha Z        PSCENC =       755.82407820
  Ewald energy   TEWEN  =    -12736.42544435
  -Hartree energ DENC   =     -8283.91544518
  -exchange      EXHF   =         0.00000000
  -V(xc)+E(xc)   XCENC  =      1119.37190953
  PAW double counting   =     17995.30049062   -18118.53952973
  entropy T*S    EENTRO =        -0.00000000
  eigenvalues    EBANDS =     -3244.47387196
  atomic energy  EATOM  =     22302.35321627
  Solvation  Ediel_sol  =         0.00000000
  ---------------------------------------------------
  free energy    TOTEN  =      -210.50459662 eV

  energy without entropy =     -210.50459662  energy(sigma->0) =     -210.50459662


--------------------------------------------------------------------------------------------------------




--------------------------------------- Iteration      1(   2)  ---------------------------------------


    POTLOK:  cpu time    0.1660: real time    0.1799
    SETDIJ:  cpu time    0.8549: real time    0.8530
     EDDAV:  cpu time   21.5407: real time   21.5868
       DOS:  cpu time    0.0030: real time    0.0033
    --------------------------------------------
      LOOP:  cpu time   22.5646: real time   22.6230

 eigenvalue-minimisations  : 13760
 total energy-change (2. order) : 0.1827466E-06  (-0.8457009E-07)
 number of electron     240.0000003 magnetization      -0.0000000
 augmentation part       61.9485159 magnetization      -0.0000000

 Free energy of the ion-electron system (eV)
  ---------------------------------------------------
  alpha Z        PSCENC =       755.82407820
  Ewald energy   TEWEN  =    -12736.42544435
  -Hartree energ DENC   =     -8283.90718274
  -exchange      EXHF   =         0.00000000
  -V(xc)+E(xc)   XCENC  =      1119.37147079
  PAW double counting   =     17995.29805626   -18118.53581285
  entropy T*S    EENTRO =        -0.00000000
  eigenvalues    EBANDS =     -3244.48297801
  atomic energy  EATOM  =     22302.35321627
  Solvation  Ediel_sol  =         0.00000000
  ---------------------------------------------------
  free energy    TOTEN  =      -210.50459644 eV

  energy without entropy =     -210.50459644  energy(sigma->0) =     -210.50459644


--------------------------------------------------------------------------------------------------------




 average (electrostatic) potential at core
  the test charge radii are     1.0397  0.7215  0.7167
  (the norm of the test charge is              1.0000)
       1 -60.0391       2 -59.9619       3 -59.2588       4 -59.2169       5 -58.1978
       6 -57.7839       7 -58.7847       8 -57.8847       9 -72.3972      10 -72.3960
      11 -75.1550      12 -73.7618      13 -73.7557      14 -72.8522      15 -72.8686
      16 -74.0556      17 -79.6441      18 -79.3971      19 -79.3933      20 -79.0170
      21 -79.6441      22 -79.3971      23 -79.3933      24 -79.0170      25 -80.1419
      26 -79.9832      27 -80.1419      28 -79.9832      29 -79.2581      30 -79.2582
      31 -79.7182      32 -78.6377
 
 
 
 E-fermi :   0.7095     XC(G=0):  -8.9702     alpha+bet : -7.6271


 spin component 1

 k-point     1 :       0.1250    0.1250    0.1250
  band No.  band energies     occupation 
      1     -36.0469      1.00000
      2     -35.9735      1.00000
      3     -35.9461      1.00000
      4     -35.8989      1.00000
      5     -35.8772      1.00000
      6     -35.7809      1.00000
      7     -35.3264      1.00000
      8     -35.2501      1.00000
      9     -35.2483      1.00000
     10     -35.1777      1.00000
     11     -34.8559      1.00000
     12     -34.8552      1.00000
     13     -34.8275      1.00000
     14     -34.7850      1.00000
     15     -34.6509      1.00000
     16     -34.3432      1.00000
     17     -34.2844      1.00000
     18     -33.9743      1.00000
     19     -33.8626      1.00000
     20     -33.8609      1.00000
     21     -33.7763      1.00000
     22     -33.5044      1.00000
     23     -33.4505      1.00000
     24     -33.3925      1.00000
     25     -24.0543      1.00000
     26     -23.8873      1.00000
     27     -23.5458      1.00000
     28     -23.4972      1.00000
     29     -23.3884      1.00000
     30     -23.3589      1.00000
     31     -23.2732      1.00000
     32     -23.1775      1.00000
     33     -23.0823      1.00000
     34     -23.0406      1.00000
     35     -22.8387      1.00000
     36     -22.8364      1.00000
     37     -22.7636      1.00000
     38     -22.6600      1.00000
     39     -22.4307      1.00000
     40     -22.3187      1.00000
     41     -17.6223      1.00000
     42     -16.6960      1.00000
     43     -16.4396      1.00000
     44     -15.8809      1.00000
     45     -15.8409      1.00000
     46     -15.1486      1.00000
     47     -14.9379      1.00000
     48     -14.5360      1.00000
     49      -7.6857      1.00000
     50      -7.5403      1.00000
     51      -7.1526      1.00000
     52      -7.0663      1.00000
     53      -6.8490      1.00000
     54      -6.7762      1.00000
     55      -6.6503      1.00000
     56      -6.4298      1.00000
     57      -6.2847      1.00000
     58      -6.0989      1.00000
     59      -6.0448      1.00000
     60      -5.9565      1.00000
     61      -5.9458      1.00000
     62      -5.9419      1.00000
     63      -5.8094      1.00000
     64      -5.6745      1.00000
     65      -5.4849      1.00000
     66      -5.4155      1.00000
     67      -5.3654      1.00000
     68      -5.1955      1.00000
     69      -5.1895      1.00000
     70      -5.1327      1.00000
     71      -5.0505      1.00000
     72      -5.0446      1.00000
     73      -5.0268      1.00000
     74      -4.9184      1.00000
     75      -4.9077      1.00000
     76      -4.8822      1.00000
     77      -4.6541      1.00000
     78      -4.6205      1.00000
     79      -4.5287      1.00000
     80      -4.4797      1.00000
     81      -4.4295      1.00000
     82      -4.3429      1.00000
     83      -4.2775      1.00000
     84      -4.2727      1.00000
     85      -4.2575      1.00000
     86      -4.1951      1.00000
     87      -4.1344      1.00000
     88      -4.1106      1.00000
     89      -4.0417      1.00000
     90      -4.0118      1.00000
     91      -3.9511      1.00000
     92      -3.9241      1.00000
     93      -3.8728      1.00000
     94      -3.8424      1.00000
     95      -3.7727      1.00000
     96      -3.7171      1.00000
     97      -3.5132      1.00000
     98      -3.4042      1.00000
     99      -3.3673      1.00000
    100      -3.2559      1.00000
    101      -3.0447      1.00000
    102      -2.9070      1.00000
    103      -2.8133      1.00000
    104      -2.2184      1.00000
    105      -2.2047      1.00000
    106      -1.8151      1.00000
    107      -1.7450      1.00000
    108      -1.6456      1.00000
    109      -1.4444      1.00000
    110      -1.3467      1.00000
    111      -1.2302      1.00000
    112      -1.2071      1.00000
    113      -1.0088      1.00000
    114      -0.9056      1.00000
    115      -0.6773      1.00000
    116      -0.6012      1.00000
    117      -0.0928      1.00000
    118       0.0436      1.00000
    119       0.2355      1.00000
    120       0.3918      1.00000
    121       1.2109      0.00000
    122       1.4507      0.00000
    123       1.5373      0.00000
    124       1.7481      0.00000
    125       1.9834      0.00000
    126       2.1925      0.00000
    127       2.3644      0.00000
    128       2.4826      0.00000
    129       2.6394      0.00000
    130       2.6775      0.00000
    131       2.7139      0.00000
    132       2.7246      0.00000
    133       2.7678      0.00000
    134       2.8209      0.00000
    135       2.8989      0.00000
    136       2.9130      0.00000
    137       3.0857      0.00000
    138       3.2138      0.00000
    139       3.3089      0.00000
    140       3.4118      0.00000
    141       3.6714      0.00000
    142       3.6905      0.00000
    143       3.7191      0.00000
    144       3.7381      0.00000
    145       3.7983      0.00000
    146       4.1400      0.00000
    147       4.2179      0.00000
    148       4.3516      0.00000
    149       4.4507      0.00000
    150       4.7213      0.00000
    151       4.7360      0.00000
    152       4.7964      0.00000
    153       5.0816      0.00000
    154       5.1491      0.00000
    155       5.3531      0.00000
    156       5.4626      0.00000
    157       6.0257      0.00000
    158       6.1079      0.00000
    159       6.5724      0.00000
    160       6.7739      0.00000

 k-point     2 :       0.3750    0.1250    0.1250
  band No.  band energies     occupation 
      1     -36.0469      1.00000
      2     -35.9728      1.00000
      3     -35.9461      1.00000
      4     -35.8989      1.00000
      5     -35.8767      1.00000
      6     -35.7809      1.00000
      7     -35.3264      1.00000
      8     -35.2483      1.00000
      9     -35.2467      1.00000
     10     -35.1767      1.00000
     11     -34.8592      1.00000
     12     -34.8559      1.00000
     13     -34.8275      1.00000
     14     -34.7850      1.00000
     15     -34.6509      1.00000
     16     -34.3444      1.00000
     17     -34.2844      1.00000
     18     -33.9759      1.00000
     19     -33.8626      1.00000
     20     -33.8619      1.00000
     21     -33.7763      1.00000
     22     -33.5044      1.00000
     23     -33.4505      1.00000
     24     -33.3925      1.00000
     25     -24.0504      1.00000
     26     -23.8850      1.00000
     27     -23.5394      1.00000
     28     -23.4551      1.00000
     29     -23.3720      1.00000
     30     -23.3264      1.00000
     31     -23.2314      1.00000
     32     -23.1297      1.00000
     33     -23.1039      1.00000
     34     -23.0450      1.00000
     35     -22.9335      1.00000
     36     -22.8480      1.00000
     37     -22.7372      1.00000
     38     -22.6596      1.00000
     39     -22.5417      1.00000
     40     -22.3127      1.00000
     41     -17.6222      1.00000
     42     -16.6957      1.00000
     43     -16.4393      1.00000
     44     -15.8811      1.00000
     45     -15.8403      1.00000
     46     -15.1483      1.00000
     47     -14.9380      1.00000
     48     -14.5361      1.00000
     49      -7.6814      1.00000
     50      -7.5386      1.00000
     51      -7.1459      1.00000
     52      -6.8151      1.00000
     53      -6.6823      1.00000
     54      -6.4788      1.00000
     55      -6.4351      1.00000
     56      -6.2846      1.00000
     57      -6.1471      1.00000
     58      -6.1066      1.00000
     59      -6.0445      1.00000
     60      -6.0059      1.00000
     61      -5.9587      1.00000
     62      -5.9413      1.00000
     63      -5.8908      1.00000
     64      -5.8038      1.00000
     65      -5.7624      1.00000
     66      -5.5439      1.00000
     67      -5.4091      1.00000
     68      -5.3921      1.00000
     69      -5.2856      1.00000
     70      -5.1890      1.00000
     71      -5.1647      1.00000
     72      -5.0651      1.00000
     73      -4.9700      1.00000
     74      -4.9480      1.00000
     75      -4.9068      1.00000
     76      -4.8884      1.00000
     77      -4.7154      1.00000
     78      -4.6407      1.00000
     79      -4.6007      1.00000
     80      -4.5868      1.00000
     81      -4.4772      1.00000
     82      -4.4228      1.00000
     83      -4.3698      1.00000
     84      -4.2988      1.00000
     85      -4.2301      1.00000
     86      -4.1924      1.00000
     87      -4.1801      1.00000
     88      -4.0894      1.00000
     89      -4.0580      1.00000
     90      -3.9997      1.00000
     91      -3.9863      1.00000
     92      -3.9177      1.00000
     93      -3.9044      1.00000
     94      -3.8713      1.00000
     95      -3.7992      1.00000
     96      -3.6302      1.00000
     97      -3.5925      1.00000
     98      -3.3618      1.00000
     99      -3.2677      1.00000
    100      -3.2503      1.00000
    101      -3.0456      1.00000
    102      -2.9206      1.00000
    103      -2.6902      1.00000
    104      -2.2069      1.00000
    105      -2.0312      1.00000
    106      -1.8158      1.00000
    107      -1.7537      1.00000
    108      -1.6463      1.00000
    109      -1.5645      1.00000
    110      -1.3505      1.00000
    111      -1.2759      1.00000
    112      -1.2335      1.00000
    113      -1.0205      1.00000
    114      -0.9167      1.00000
    115      -0.6965      1.00000
    116      -0.5927      1.00000
    117      -0.0965      1.00000
    118       0.0308      1.00000
    119       0.2349      1.00000
    120       0.3912      1.00000
    121       1.2109      0.00000
    122       1.5082      0.00000
    123       1.6431      0.00000
    124       1.8201      0.00000
    125       2.1097      0.00000
    126       2.1924      0.00000
    127       2.4422      0.00000
    128       2.4967      0.00000
    129       2.5876      0.00000
    130       2.6365      0.00000
    131       2.7084      0.00000
    132       2.7537      0.00000
    133       2.7685      0.00000
    134       2.7991      0.00000
    135       2.9185      0.00000
    136       3.0197      0.00000
    137       3.2045      0.00000
    138       3.2298      0.00000
    139       3.3502      0.00000
    140       3.6372      0.00000
    141       3.6735      0.00000
    142       3.7095      0.00000
    143       3.7395      0.00000
    144       3.8253      0.00000
    145       4.1664      0.00000
    146       4.1957      0.00000
    147       4.3048      0.00000
    148       4.4404      0.00000
    149       4.4846      0.00000
    150       4.6838      0.00000
    151       4.7066      0.00000
    152       4.7185      0.00000
    153       4.8108      0.00000
    154       5.1352      0.00000
    155       5.1711      0.00000
    156       5.3170      0.00000
    157       6.0496      0.00000
    158       6.1821      0.00000
    159       6.4011      0.00000
    160       6.5423      0.00000

 k-point     3 :      -0.3750    0.1250    0.1250
  band No.  band energies     occupation 
      1     -36.0469      1.00000
      2     -35.9728      1.00000
      3     -35.9461      1.00000
      4     -35.8989      1.00000
      5     -35.8767      1.00000
      6     -35.7809      1.00000
      7     -35.3264      1.00000
      8     -35.2483      1.00000
      9     -35.2467      1.00000
     10     -35.1767      1.00000
     11     -34.8592      1.00000
     12     -34.8559      1.00000
     13     -34.8275      1.00000
     14     -34.7850      1.00000
     15     -34.6509      1.00000
     16     -34.3444      1.00000
     17     -34.2844      1.00000
     18     -33.9759      1.00000
     19     -33.8626      1.00000
     20     -33.8619      1.00000
     21     -33.7763      1.00000
     22     -33.5044      1.00000
     23     -33.4505      1.00000
     24     -33.3925      1.00000
     25     -24.0504      1.00000
     26     -23.8850      1.00000
     27     -23.5394      1.00000
     28     -23.4551      1.00000
     29     -23.3720      1.00000
     30     -23.3264      1.00000
     31     -23.2314      1.00000
     32     -23.1297      1.00000
     33     -23.1039      1.00000
     34     -23.0450      1.00000
     35     -22.9335      1.00000
     36     -22.8480      1.00000
     37     -22.7372      1.00000
     38     -22.6596      1.00000
     39     -22.5417      1.00000
     40     -22.3127      1.00000
     41     -17.6222      1.00000
     42     -16.6957      1.00000
     43     -16.4393      1.00000
     44     -15.8811      1.00000
     45     -15.8403      1.00000
     46     -15.1483      1.00000
     47     -14.9380      1.00000
     48     -14.5361      1.00000
     49      -7.6814      1.00000
     50      -7.5386      1.00000
     51      -7.1459      1.00000
     52      -6.8151      1.00000
     53      -6.6823      1.00000
     54      -6.4788      1.00000
     55      -6.4351      1.00000
     56      -6.2846      1.00000
     57      -6.1471      1.00000
     58      -6.1066      1.00000
     59      -6.0445      1.00000
     60      -6.0059      1.00000
     61      -5.9587      1.00000
     62      -5.9413      1.00000
     63      -5.8908      1.00000
     64      -5.8038      1.00000
     65      -5.7624      1.00000
     66      -5.5439      1.00000
     67      -5.4091      1.00000
     68      -5.3921      1.00000
     69      -5.2856      1.00000
     70      -5.1890      1.00000
     71      -5.1647      1.00000
     72      -5.0651      1.00000
     73      -4.9700      1.00000
     74      -4.9480      1.00000
     75      -4.9068      1.00000
     76      -4.8884      1.00000
     77      -4.7154      1.00000
     78      -4.6407      1.00000
     79      -4.6007      1.00000
     80      -4.5868      1.00000
     81      -4.4772      1.00000
     82      -4.4228      1.00000
     83      -4.3698      1.00000
     84      -4.2988      1.00000
     85      -4.2301      1.00000
     86      -4.1924      1.00000
     87      -4.1801      1.00000
     88      -4.0894      1.00000
     89      -4.0580      1.00000
     90      -3.9997      1.00000
     91      -3.9863      1.00000
     92      -3.9177      1.00000
     93      -3.9044      1.00000
     94      -3.8713      1.00000
     95      -3.7992      1.00000
     96      -3.6302      1.00000
     97      -3.5925      1.00000
     98      -3.3618      1.00000
     99      -3.2677      1.00000
    100      -3.2503      1.00000
    101      -3.0456      1.00000
    102      -2.9206      1.00000
    103      -2.6902      1.00000
    104      -2.2069      1.00000
    105      -2.0312      1.00000
    106      -1.8158      1.00000
    107      -1.7537      1.00000
    108      -1.6463      1.00000
    109      -1.5645      1.00000
    110      -1.3505      1.00000
    111      -1.2759      1.00000
    112      -1.2335      1.00000
    113      -1.0205      1.00000
    114      -0.9167      1.00000
    115      -0.6965      1.00000
    116      -0.5927      1.00000
    117      -0.0965      1.00000
    118       0.0308      1.00000
    119       0.2349      1.00000
    120       0.3912      1.00000
    121       1.2109      0.00000
    122       1.5082      0.00000
    123       1.6431      0.00000
    124       1.8201      0.00000
    125       2.1097      0.00000
    126       2.1924      0.00000
    127       2.4422      0.00000
    128       2.4967      0.00000
    129       2.5876      0.00000
    130       2.6365      0.00000
    131       2.7084      0.00000
    132       2.7537      0.00000
    133       2.7685      0.00000
    134       2.7991      0.00000
    135       2.9185      0.00000
    136       3.0197      0.00000
    137       3.2045      0.00000
    138       3.2298      0.00000
    139       3.3502      0.00000
    140       3.6372      0.00000
    141       3.6735      0.00000
    142       3.7095      0.00000
    143       3.7395      0.00000
    144       3.8253      0.00000
    145       4.1664      0.00000
    146       4.1957      0.00000
    147       4.3048      0.00000
    148       4.4404      0.00000
    149       4.4846      0.00000
    150       4.6838      0.00000
    151       4.7066      0.00000
    152       4.7185      0.00000
    153       4.8108      0.00000
    154       5.1352      0.00000
    155       5.1711      0.00000
    156       5.3170      0.00000
    157       6.0496      0.00000
    158       6.1821      0.00000
    159       6.4011      0.00000
    160       6.5423      0.00000

 k-point     4 :      -0.1250    0.1250    0.1250
  band No.  band energies     occupation 
      1     -36.0469      1.00000
      2     -35.9735      1.00000
      3     -35.9461      1.00000
      4     -35.8989      1.00000
      5     -35.8772      1.00000
      6     -35.7809      1.00000
      7     -35.3264      1.00000
      8     -35.2501      1.00000
      9     -35.2483      1.00000
     10     -35.1777      1.00000
     11     -34.8559      1.00000
     12     -34.8552      1.00000
     13     -34.8275      1.00000
     14     -34.7850      1.00000
     15     -34.6509      1.00000
     16     -34.3432      1.00000
     17     -34.2844      1.00000
     18     -33.9743      1.00000
     19     -33.8626      1.00000
     20     -33.8609      1.00000
     21     -33.7763      1.00000
     22     -33.5044      1.00000
     23     -33.4505      1.00000
     24     -33.3925      1.00000
     25     -24.0543      1.00000
     26     -23.8873      1.00000
     27     -23.5458      1.00000
     28     -23.4972      1.00000
     29     -23.3884      1.00000
     30     -23.3589      1.00000
     31     -23.2732      1.00000
     32     -23.1775      1.00000
     33     -23.0823      1.00000
     34     -23.0406      1.00000
     35     -22.8387      1.00000
     36     -22.8364      1.00000
     37     -22.7636      1.00000
     38     -22.6600      1.00000
     39     -22.4307      1.00000
     40     -22.3187      1.00000
     41     -17.6223      1.00000
     42     -16.6960      1.00000
     43     -16.4396      1.00000
     44     -15.8809      1.00000
     45     -15.8409      1.00000
     46     -15.1486      1.00000
     47     -14.9379      1.00000
     48     -14.5360      1.00000
     49      -7.6857      1.00000
     50      -7.5403      1.00000
     51      -7.1526      1.00000
     52      -7.0663      1.00000
     53      -6.8490      1.00000
     54      -6.7762      1.00000
     55      -6.6503      1.00000
     56      -6.4298      1.00000
     57      -6.2847      1.00000
     58      -6.0989      1.00000
     59      -6.0448      1.00000
     60      -5.9565      1.00000
     61      -5.9458      1.00000
     62      -5.9419      1.00000
     63      -5.8094      1.00000
     64      -5.6745      1.00000
     65      -5.4849      1.00000
     66      -5.4155      1.00000
     67      -5.3654      1.00000
     68      -5.1955      1.00000
     69      -5.1895      1.00000
     70      -5.1327      1.00000
     71      -5.0505      1.00000
     72      -5.0446      1.00000
     73      -5.0268      1.00000
     74      -4.9184      1.00000
     75      -4.9077      1.00000
     76      -4.8822      1.00000
     77      -4.6541      1.00000
     78      -4.6205      1.00000
     79      -4.5287      1.00000
     80      -4.4797      1.00000
     81      -4.4295      1.00000
     82      -4.3429      1.00000
     83      -4.2775      1.00000
     84      -4.2727      1.00000
     85      -4.2575      1.00000
     86      -4.1951      1.00000
     87      -4.1344      1.00000
     88      -4.1106      1.00000
     89      -4.0417      1.00000
     90      -4.0118      1.00000
     91      -3.9511      1.00000
     92      -3.9241      1.00000
     93      -3.8728      1.00000
     94      -3.8424      1.00000
     95      -3.7727      1.00000
     96      -3.7171      1.00000
     97      -3.5132      1.00000
     98      -3.4042      1.00000
     99      -3.3673      1.00000
    100      -3.2559      1.00000
    101      -3.0447      1.00000
    102      -2.9070      1.00000
    103      -2.8133      1.00000
    104      -2.2184      1.00000
    105      -2.2047      1.00000
    106      -1.8151      1.00000
    107      -1.7450      1.00000
    108      -1.6456      1.00000
    109      -1.4444      1.00000
    110      -1.3467      1.00000
    111      -1.2302      1.00000
    112      -1.2071      1.00000
    113      -1.0088      1.00000
    114      -0.9056      1.00000
    115      -0.6773      1.00000
    116      -0.6012      1.00000
    117      -0.0928      1.00000
    118       0.0436      1.00000
    119       0.2355      1.00000
    120       0.3918      1.00000
    121       1.2109      0.00000
    122       1.4507      0.00000
    123       1.5373      0.00000
    124       1.7481      0.00000
    125       1.9834      0.00000
    126       2.1925      0.00000
    127       2.3644      0.00000
    128       2.4826      0.00000
    129       2.6394      0.00000
    130       2.6775      0.00000
    131       2.7139      0.00000
    132       2.7246      0.00000
    133       2.7678      0.00000
    134       2.8209      0.00000
    135       2.8989      0.00000
    136       2.9130      0.00000
    137       3.0857      0.00000
    138       3.2138      0.00000
    139       3.3089      0.00000
    140       3.4118      0.00000
    141       3.6714      0.00000
    142       3.6905      0.00000
    143       3.7191      0.00000
    144       3.7381      0.00000
    145       3.7983      0.00000
    146       4.1400      0.00000
    147       4.2179      0.00000
    148       4.3516      0.00000
    149       4.4507      0.00000
    150       4.7213      0.00000
    151       4.7360      0.00000
    152       4.7964      0.00000
    153       5.0816      0.00000
    154       5.1491      0.00000
    155       5.3531      0.00000
    156       5.4626      0.00000
    157       6.0257      0.00000
    158       6.1079      0.00000
    159       6.5724      0.00000
    160       6.7739      0.00000

 k-point     5 :       0.1250    0.3750    0.1250
  band No.  band energies     occupation 
      1     -36.0439      1.00000
      2     -35.9735      1.00000
      3     -35.9430      1.00000
      4     -35.8990      1.00000
      5     -35.8772      1.00000
      6     -35.7809      1.00000
      7     -35.3303      1.00000
      8     -35.2522      1.00000
      9     -35.2501      1.00000
     10     -35.1777      1.00000
     11     -34.8559      1.00000
     12     -34.8552      1.00000
     13     -34.8230      1.00000
     14     -34.7850      1.00000
     15     -34.6509      1.00000
     16     -34.3432      1.00000
     17     -34.2898      1.00000
     18     -33.9743      1.00000
     19     -33.8626      1.00000
     20     -33.8609      1.00000
     21     -33.7763      1.00000
     22     -33.5044      1.00000
     23     -33.4393      1.00000
     24     -33.4040      1.00000
     25     -23.9276      1.00000
     26     -23.7610      1.00000
     27     -23.6893      1.00000
     28     -23.5292      1.00000
     29     -23.4784      1.00000
     30     -23.3600      1.00000
     31     -23.2473      1.00000
     32     -23.1751      1.00000
     33     -23.0515      1.00000
     34     -22.9770      1.00000
     35     -22.8382      1.00000
     36     -22.8355      1.00000
     37     -22.7913      1.00000
     38     -22.7635      1.00000
     39     -22.4306      1.00000
     40     -22.3164      1.00000
     41     -17.6221      1.00000
     42     -16.6955      1.00000
     43     -16.4380      1.00000
     44     -15.8810      1.00000
     45     -15.8330      1.00000
     46     -15.0092      1.00000
     47     -14.9354      1.00000
     48     -14.7102      1.00000
     49      -7.2910      1.00000
     50      -7.1756      1.00000
     51      -7.1055      1.00000
     52      -7.0433      1.00000
     53      -6.8269      1.00000
     54      -6.7749      1.00000
     55      -6.6433      1.00000
     56      -6.4881      1.00000
     57      -6.4068      1.00000
     58      -6.3282      1.00000
     59      -5.9644      1.00000
     60      -5.9489      1.00000
     61      -5.9259      1.00000
     62      -5.9225      1.00000
     63      -5.7646      1.00000
     64      -5.6856      1.00000
     65      -5.6496      1.00000
     66      -5.5393      1.00000
     67      -5.4617      1.00000
     68      -5.4192      1.00000
     69      -5.3564      1.00000
     70      -5.1710      1.00000
     71      -5.1505      1.00000
     72      -5.1006      1.00000
     73      -5.0642      1.00000
     74      -4.9281      1.00000
     75      -4.9086      1.00000
     76      -4.7983      1.00000
     77      -4.7441      1.00000
     78      -4.6416      1.00000
     79      -4.5246      1.00000
     80      -4.4801      1.00000
     81      -4.3897      1.00000
     82      -4.3438      1.00000
     83      -4.3273      1.00000
     84      -4.2657      1.00000
     85      -4.2484      1.00000
     86      -4.1818      1.00000
     87      -4.1399      1.00000
     88      -4.0559      1.00000
     89      -3.9891      1.00000
     90      -3.9377      1.00000
     91      -3.9320      1.00000
     92      -3.9153      1.00000
     93      -3.8974      1.00000
     94      -3.8906      1.00000
     95      -3.7897      1.00000
     96      -3.7547      1.00000
     97      -3.6287      1.00000
     98      -3.4027      1.00000
     99      -3.3262      1.00000
    100      -2.9316      1.00000
    101      -2.8914      1.00000
    102      -2.8136      1.00000
    103      -2.6370      1.00000
    104      -2.2195      1.00000
    105      -2.1734      1.00000
    106      -1.8737      1.00000
    107      -1.7559      1.00000
    108      -1.5954      1.00000
    109      -1.5088      1.00000
    110      -1.4450      1.00000
    111      -1.3758      1.00000
    112      -1.2324      1.00000
    113      -1.2085      1.00000
    114      -0.9552      1.00000
    115      -0.7041      1.00000
    116      -0.4510      1.00000
    117      -0.3671      1.00000
    118      -0.1942      1.00000
    119       0.0482      1.00000
    120       0.4194      1.00000
    121       1.3644      0.00000
    122       1.4505      0.00000
    123       1.7197      0.00000
    124       1.9387      0.00000
    125       1.9854      0.00000
    126       2.0292      0.00000
    127       2.2041      0.00000
    128       2.4930      0.00000
    129       2.6970      0.00000
    130       2.7416      0.00000
    131       2.8315      0.00000
    132       2.8697      0.00000
    133       2.9000      0.00000
    134       3.0015      0.00000
    135       3.0581      0.00000
    136       3.0869      0.00000
    137       3.2079      0.00000
    138       3.2292      0.00000
    139       3.2822      0.00000
    140       3.5521      0.00000
    141       3.6290      0.00000
    142       3.6487      0.00000
    143       3.6932      0.00000
    144       3.7247      0.00000
    145       3.9268      0.00000
    146       4.2150      0.00000
    147       4.2859      0.00000
    148       4.3221      0.00000
    149       4.4718      0.00000
    150       4.6187      0.00000
    151       4.7280      0.00000
    152       4.9304      0.00000
    153       4.9629      0.00000
    154       4.9784      0.00000
    155       5.1326      0.00000
    156       5.6230      0.00000
    157       5.8523      0.00000
    158       6.2963      0.00000
    159       6.5955      0.00000
    160       6.9573      0.00000

 k-point     6 :       0.3750    0.3750    0.1250
  band No.  band energies     occupation 
      1     -36.0439      1.00000
      2     -35.9728      1.00000
      3     -35.9430      1.00000
      4     -35.8990      1.00000
      5     -35.8767      1.00000
      6     -35.7809      1.00000
      7     -35.3303      1.00000
      8     -35.2522      1.00000
      9     -35.2467      1.00000
     10     -35.1767      1.00000
     11     -34.8592      1.00000
     12     -34.8559      1.00000
     13     -34.8230      1.00000
     14     -34.7850      1.00000
     15     -34.6509      1.00000
     16     -34.3445      1.00000
     17     -34.2898      1.00000
     18     -33.9758      1.00000
     19     -33.8626      1.00000
     20     -33.8620      1.00000
     21     -33.7763      1.00000
     22     -33.5044      1.00000
     23     -33.4393      1.00000
     24     -33.4040      1.00000
     25     -23.9226      1.00000
     26     -23.7580      1.00000
     27     -23.6852      1.00000
     28     -23.5257      1.00000
     29     -23.4317      1.00000
     30     -23.3181      1.00000
     31     -23.1719      1.00000
     32     -23.1369      1.00000
     33     -23.1015      1.00000
     34     -23.0021      1.00000
     35     -22.9132      1.00000
     36     -22.8479      1.00000
     37     -22.7872      1.00000
     38     -22.7352      1.00000
     39     -22.5415      1.00000
     40     -22.3106      1.00000
     41     -17.6220      1.00000
     42     -16.6952      1.00000
     43     -16.4377      1.00000
     44     -15.8812      1.00000
     45     -15.8324      1.00000
     46     -15.0089      1.00000
     47     -14.9354      1.00000
     48     -14.7101      1.00000
     49      -7.2844      1.00000
     50      -7.1721      1.00000
     51      -7.1026      1.00000
     52      -6.7392      1.00000
     53      -6.6661      1.00000
     54      -6.4929      1.00000
     55      -6.4789      1.00000
     56      -6.4637      1.00000
     57      -6.3381      1.00000
     58      -6.1455      1.00000
     59      -6.1062      1.00000
     60      -5.9840      1.00000
     61      -5.9432      1.00000
     62      -5.9269      1.00000
     63      -5.8221      1.00000
     64      -5.7682      1.00000
     65      -5.7301      1.00000
     66      -5.6757      1.00000
     67      -5.5467      1.00000
     68      -5.3641      1.00000
     69      -5.3309      1.00000
     70      -5.3265      1.00000
     71      -5.1576      1.00000
     72      -5.1068      1.00000
     73      -5.0786      1.00000
     74      -5.0564      1.00000
     75      -4.9936      1.00000
     76      -4.9094      1.00000
     77      -4.7976      1.00000
     78      -4.7711      1.00000
     79      -4.6639      1.00000
     80      -4.6152      1.00000
     81      -4.5803      1.00000
     82      -4.3828      1.00000
     83      -4.3567      1.00000
     84      -4.3211      1.00000
     85      -4.1761      1.00000
     86      -4.1503      1.00000
     87      -4.1097      1.00000
     88      -4.0357      1.00000
     89      -4.0219      1.00000
     90      -4.0122      1.00000
     91      -3.9528      1.00000
     92      -3.9101      1.00000
     93      -3.8882      1.00000
     94      -3.8747      1.00000
     95      -3.8102      1.00000
     96      -3.6793      1.00000
     97      -3.6776      1.00000
     98      -3.3256      1.00000
     99      -3.2677      1.00000
    100      -2.9425      1.00000
    101      -2.8944      1.00000
    102      -2.6910      1.00000
    103      -2.6346      1.00000
    104      -2.1765      1.00000
    105      -2.0312      1.00000
    106      -1.8751      1.00000
    107      -1.7647      1.00000
    108      -1.5976      1.00000
    109      -1.5633      1.00000
    110      -1.5113      1.00000
    111      -1.3822      1.00000
    112      -1.2783      1.00000
    113      -1.2338      1.00000
    114      -0.9664      1.00000
    115      -0.7265      1.00000
    116      -0.4274      1.00000
    117      -0.3685      1.00000
    118      -0.1749      1.00000
    119       0.0478      1.00000
    120       0.4190      1.00000
    121       1.3645      0.00000
    122       1.5081      0.00000
    123       1.7871      0.00000
    124       1.9502      0.00000
    125       2.0292      0.00000
    126       2.1105      0.00000
    127       2.3050      0.00000
    128       2.4943      0.00000
    129       2.7010      0.00000
    130       2.7372      0.00000
    131       2.7658      0.00000
    132       2.7985      0.00000
    133       2.8624      0.00000
    134       3.0051      0.00000
    135       3.0353      0.00000
    136       3.1609      0.00000
    137       3.3698      0.00000
    138       3.5302      0.00000
    139       3.5544      0.00000
    140       3.6347      0.00000
    141       3.6446      0.00000
    142       3.6949      0.00000
    143       3.7688      0.00000
    144       3.9678      0.00000
    145       4.1285      0.00000
    146       4.1769      0.00000
    147       4.2517      0.00000
    148       4.3024      0.00000
    149       4.4479      0.00000
    150       4.4849      0.00000
    151       4.6396      0.00000
    152       4.7234      0.00000
    153       4.8559      0.00000
    154       4.9763      0.00000
    155       5.1579      0.00000
    156       5.4620      0.00000
    157       5.7648      0.00000
    158       6.1678      0.00000
    159       6.5593      0.00000
    160       6.9282      0.00000

 k-point     7 :      -0.3750    0.3750    0.1250
  band No.  band energies     occupation 
      1     -36.0439      1.00000
      2     -35.9728      1.00000
      3     -35.9430      1.00000
      4     -35.8990      1.00000
      5     -35.8767      1.00000
      6     -35.7809      1.00000
      7     -35.3303      1.00000
      8     -35.2522      1.00000
      9     -35.2467      1.00000
     10     -35.1767      1.00000
     11     -34.8592      1.00000
     12     -34.8559      1.00000
     13     -34.8230      1.00000
     14     -34.7850      1.00000
     15     -34.6509      1.00000
     16     -34.3445      1.00000
     17     -34.2898      1.00000
     18     -33.9758      1.00000
     19     -33.8626      1.00000
     20     -33.8620      1.00000
     21     -33.7763      1.00000
     22     -33.5044      1.00000
     23     -33.4393      1.00000
     24     -33.4040      1.00000
     25     -23.9226      1.00000
     26     -23.7580      1.00000
     27     -23.6852      1.00000
     28     -23.5257      1.00000
     29     -23.4317      1.00000
     30     -23.3181      1.00000
     31     -23.1719      1.00000
     32     -23.1369      1.00000
     33     -23.1015      1.00000
     34     -23.0021      1.00000
     35     -22.9132      1.00000
     36     -22.8479      1.00000
     37     -22.7872      1.00000
     38     -22.7352      1.00000
     39     -22.5415      1.00000
     40     -22.3106      1.00000
     41     -17.6220      1.00000
     42     -16.6952      1.00000
     43     -16.4377      1.00000
     44     -15.8812      1.00000
     45     -15.8324      1.00000
     46     -15.0089      1.00000
     47     -14.9354      1.00000
     48     -14.7101      1.00000
     49      -7.2844      1.00000
     50      -7.1721      1.00000
     51      -7.1026      1.00000
     52      -6.7392      1.00000
     53      -6.6661      1.00000
     54      -6.4929      1.00000
     55      -6.4789      1.00000
     56      -6.4637      1.00000
     57      -6.3381      1.00000
     58      -6.1455      1.00000
     59      -6.1062      1.00000
     60      -5.9840      1.00000
     61      -5.9432      1.00000
     62      -5.9269      1.00000
     63      -5.8221      1.00000
     64      -5.7682      1.00000
     65      -5.7301      1.00000
     66      -5.6757      1.00000
     67      -5.5467      1.00000
     68      -5.3641      1.00000
     69      -5.3309      1.00000
     70      -5.3265      1.00000
     71      -5.1576      1.00000
     72      -5.1068      1.00000
     73      -5.0786      1.00000
     74      -5.0564      1.00000
     75      -4.9936      1.00000
     76      -4.9094      1.00000
     77      -4.7976      1.00000
     78      -4.7711      1.00000
     79      -4.6639      1.00000
     80      -4.6152      1.00000
     81      -4.5803      1.00000
     82      -4.3828      1.00000
     83      -4.3567      1.00000
     84      -4.3211      1.00000
     85      -4.1761      1.00000
     86      -4.1503      1.00000
     87      -4.1097      1.00000
     88      -4.0357      1.00000
     89      -4.0219      1.00000
     90      -4.0122      1.00000
     91      -3.9528      1.00000
     92      -3.9101      1.00000
     93      -3.8882      1.00000
     94      -3.8747      1.00000
     95      -3.8102      1.00000
     96      -3.6793      1.00000
     97      -3.6776      1.00000
     98      -3.3256      1.00000
     99      -3.2677      1.00000
    100      -2.9425      1.00000
    101      -2.8944      1.00000
    102      -2.6910      1.00000
    103      -2.6346      1.00000
    104      -2.1765      1.00000
    105      -2.0312      1.00000
    106      -1.8751      1.00000
    107      -1.7647      1.00000
    108      -1.5976      1.00000
    109      -1.5633      1.00000
    110      -1.5113      1.00000
    111      -1.3822      1.00000
    112      -1.2783      1.00000
    113      -1.2338      1.00000
    114      -0.9664      1.00000
    115      -0.7265      1.00000
    116      -0.4274      1.00000
    117      -0.3685      1.00000
    118      -0.1749      1.00000
    119       0.0478      1.00000
    120       0.4190      1.00000
    121       1.3645      0.00000
    122       1.5081      0.00000
    123       1.7871      0.00000
    124       1.9502      0.00000
    125       2.0292      0.00000
    126       2.1105      0.00000
    127       2.3050      0.00000
[...]
 -0.000   0.000   0.000   0.000   0.000  -0.000  -0.000   0.000   0.000  -0.000   0.000   0.000  -0.000  -0.000  -0.000  -0.000
  0.000   0.000  -0.000  -0.000  -0.000  -0.000   0.000  -0.000  -0.000   0.000  -0.000  -0.000   0.000   0.000  -0.000   0.000
 -0.000   0.000   0.000  -0.000   0.000  -0.000   0.000  -0.000   0.000   0.000  -0.000  -0.000   0.000  -0.000  -0.000   0.000
  0.000  -0.000  -0.000  -0.000   0.000   0.000  -0.000   0.000  -0.000  -0.000   0.000   0.000  -0.000   0.000  -0.000  -0.000
  0.000  -0.000  -0.000  -0.000   0.000   0.000   0.000  -0.000  -0.000  -0.000   0.000  -0.000   0.000   0.000   0.000  -0.000
  0.000  -0.000  -0.000  -0.000  -0.000   0.000   0.000   0.000  -0.000  -0.000  -0.000  -0.000  -0.000   0.000   0.000   0.000
 -0.000  -0.000   0.000   0.000   0.000   0.000  -0.000  -0.000   0.000  -0.000   0.000   0.000  -0.000  -0.000   0.000  -0.000
 -0.000   0.000  -0.000   0.000  -0.000  -0.000   0.000   0.000  -0.000   0.000  -0.000  -0.000   0.000   0.000  -0.000   0.000
 -0.000   0.000  -0.000  -0.000   0.000  -0.000   0.000  -0.000  -0.000  -0.000  -0.000  -0.000   0.000   0.000   0.000   0.000


------------------------ aborting loop because EDIFF is reached ----------------------------------------


 


 total charge     
 
# of ion       s       p       d       tot
------------------------------------------
    1        0.325   6.495   1.760   8.580
    2        0.325   6.498   1.747   8.570
    3        0.300   6.461   1.716   8.476
    4        0.305   6.464   1.701   8.470
    5        0.294   6.471   1.784   8.549
    6        0.290   6.422   1.664   8.376
    7        0.318   6.490   1.843   8.651
    8        0.300   6.448   1.724   8.472
    9        1.563   3.409   0.000   4.972
   10        1.563   3.409   0.000   4.972
   11        1.574   3.485   0.000   5.058
   12        1.568   3.442   0.000   5.011
   13        1.567   3.438   0.000   5.005
   14        1.569   3.445   0.000   5.014
   15        1.568   3.437   0.000   5.005
   16        1.577   3.474   0.000   5.051
   17        1.730   4.378   0.000   6.108
   18        1.731   4.373   0.000   6.104
   19        1.729   4.382   0.000   6.111
   20        1.730   4.378   0.000   6.108
   21        1.730   4.378   0.000   6.108
   22        1.731   4.373   0.000   6.104
   23        1.729   4.382   0.000   6.111
   24        1.730   4.378   0.000   6.108
   25        1.731   4.392   0.000   6.122
   26        1.731   4.390   0.000   6.121
   27        1.731   4.392   0.000   6.122
   28        1.731   4.390   0.000   6.121
   29        1.731   4.394   0.000   6.125
   30        1.731   4.394   0.000   6.125
   31        1.731   4.390   0.000   6.121
   32        1.732   4.394   0.000   6.126
--------------------------------------------------
tot         42.691 149.448  13.939 206.078
 


 magnetization (x)
 
# of ion       s       p       d       tot
------------------------------------------
    1       -0.000  -0.000  -0.000  -0.000
    2       -0.000  -0.000   0.000  -0.000
    3       -0.000  -0.000   0.000   0.000
    4       -0.000   0.000   0.000   0.000
    5       -0.000   0.000  -0.000  -0.000
    6       -0.000   0.000  -0.000  -0.000
    7       -0.000   0.000   0.000   0.000
    8       -0.000   0.000  -0.000  -0.000
    9       -0.000  -0.000   0.000  -0.000
   10       -0.000  -0.000   0.000  -0.000
   11       -0.000   0.000   0.000   0.000
   12        0.000  -0.000   0.000  -0.000
   13        0.000  -0.000   0.000  -0.000
   14        0.000   0.000   0.000   0.000
   15       -0.000   0.000   0.000   0.000
   16        0.000  -0.000   0.000  -0.000
   17        0.000   0.000   0.000   0.000
   18        0.000   0.000   0.000   0.000
   19        0.000   0.000   0.000   0.000
   20       -0.000   0.000   0.000   0.000
   21       -0.000   0.000   0.000   0.000
   22        0.000  -0.000   0.000  -0.000
   23        0.000   0.000   0.000   0.000
   24        0.000   0.000   0.000   0.000
   25        0.000  -0.000   0.000   0.000
   26       -0.000  -0.000   0.000  -0.000
   27       -0.000   0.000   0.000   0.000
   28       -0.000   0.000   0.000   0.000
   29       -0.000  -0.000   0.000  -0.000
   30        0.000  -0.000   0.000  -0.000
   31       -0.000   0.000   0.000   0.000
   32        0.000   0.000   0.000   0.000
--------------------------------------------------
tot         -0.000   0.000  -0.000  -0.000
 
    CHARGE:  cpu time    1.1728: real time    1.1722
    FORLOC:  cpu time    0.0100: real time    0.0101
    FORNL :  cpu time    6.9429: real time    6.9783
    STRESS:  cpu time   20.8648: real time   20.8605
    FORCOR:  cpu time    0.1300: real time    0.1295
    FORHAR:  cpu time    0.0200: real time    0.0213
    MIXING:  cpu time    0.0020: real time    0.0016
    OFIELD:  cpu time    0.0000: real time    0.0000

  FORCE on cell =-STRESS in cart. coord.  units (eV):
  Direction    XX          YY          ZZ          XY          YZ          ZX
  --------------------------------------------------------------------------------------
  Alpha Z   755.82408   755.82408   755.82408
  Ewald   -4394.12029 -4205.47790 -4136.88273     0.00540    -0.02400     0.00163
  Hartree  2668.45192  2795.29060  2820.14414     0.00285    -0.01608     0.00086
  E(xc)   -1231.55187 -1231.68167 -1232.22040     0.00000    -0.00003     0.00000
  Local   -1910.89024 -2255.91727 -2409.09465    -0.00816     0.03851    -0.00247
  n-local  -973.82050  -967.76774  -958.03061     0.00004     0.00037     0.00001
  augment   743.47576   753.34730   774.20282    -0.00000     0.00060     0.00000
  Kinetic  4342.64298  4356.38535  4386.07257    -0.00022     0.00026    -0.00008
  Fock        0.00000     0.00000     0.00000     0.00000     0.00000     0.00000
  -------------------------------------------------------------------------------------
  Total       0.01184     0.00274     0.01522    -0.00009    -0.00038    -0.00004
  in kB       0.04095     0.00949     0.05263    -0.00031    -0.00130    -0.00013
  external pressure =        0.03 kB  Pullay stress =        0.00 kB


 VOLUME and BASIS-vectors are now :
 -----------------------------------------------------------------------------
  energy-cutoff  :      700.00
  volume of cell :      463.29
      direct lattice vectors                 reciprocal lattice vectors
     7.914424960  0.000004383  0.000001351     0.126351568 -0.000000070 -0.000000022
     0.000004323  7.757681202 -0.000006293    -0.000000071  0.128904498  0.000000104
     0.000001287 -0.000006112  7.545744338    -0.000000023  0.000000107  0.132525031

  length of vectors
     7.914424960  7.757681202  7.545744338     0.126351568  0.128904498  0.132525031


 FORCES acting on ions
    electron-ion (+dipol)            ewald-force                    non-local-force                 convergence-correction
 -----------------------------------------------------------------------------------------------
   0.316E-04 -.325E-02 0.307E+02   -.304E-04 0.326E-02 -.311E+02   -.418E-06 -.236E-05 0.423E+00   -.861E-06 -.110E-06 -.510E-03
   0.221E-04 -.102E-01 -.323E+02   -.206E-04 0.102E-01 0.329E+02   -.281E-06 0.739E-04 -.595E+00   -.166E-06 -.313E-04 0.628E-03
   0.655E-04 0.287E-02 0.225E+02   -.692E-04 -.286E-02 -.225E+02   -.172E-06 -.376E-05 -.269E-01   0.109E-05 -.186E-05 0.214E-03
   0.141E-04 0.637E-02 -.240E+02   -.128E-04 -.633E-02 0.239E+02   0.644E-07 -.324E-05 0.578E-01   0.829E-07 0.140E-04 -.500E-03
   -.187E-04 -.626E-02 0.230E+02   0.179E-04 0.674E-02 -.229E+02   0.177E-06 -.287E-03 -.984E-01   0.125E-05 -.189E-04 0.807E-03
   0.281E-05 -.322E+00 -.285E+02   -.465E-05 0.310E+00 0.283E+02   0.295E-06 0.598E-02 0.167E+00   -.152E-06 -.609E-03 -.102E-02
   -.518E-04 0.934E-03 0.232E+02   0.558E-04 -.882E-03 -.228E+02   -.582E-06 0.746E-04 -.409E+00   -.122E-05 0.113E-04 0.140E-02
   -.350E-05 -.264E+00 -.248E+02   0.362E-05 0.259E+00 0.258E+02   0.633E-06 -.307E-04 -.101E+01   0.108E-06 0.337E-03 -.101E-02
   -.198E-04 0.312E+02 -.949E+01   0.200E-04 -.325E+02 0.935E+01   0.753E-08 0.129E+01 0.134E+00   0.167E-06 0.105E-02 -.162E-03
   0.218E-04 -.301E+02 -.950E+01   -.235E-04 0.313E+02 0.937E+01   0.185E-05 -.118E+01 0.133E+00   -.191E-06 -.497E-03 -.152E-03
   -.582E-04 -.292E-02 0.117E+02   0.665E-04 0.286E-02 -.127E+02   -.871E-05 0.688E-04 0.101E+01   -.160E-06 -.663E-05 -.144E-02
   0.245E-04 0.290E-02 -.915E+01   -.267E-04 -.293E-02 0.965E+01   0.216E-05 0.215E-04 -.503E+00   0.251E-06 -.790E-07 -.709E-03
   -.935E-05 0.260E-02 0.110E+02   0.122E-04 -.261E-02 -.116E+02   -.387E-05 -.107E-05 0.641E+00   0.423E-06 0.112E-05 0.125E-02
   -.378E-04 -.912E-01 -.499E+02   0.398E-04 0.974E-01 0.518E+02   -.275E-05 -.515E-02 -.187E+01   0.477E-06 -.972E-04 0.717E-03
   0.262E-04 -.812E-01 0.640E+02   -.302E-04 0.864E-01 -.675E+02   0.435E-05 -.424E-02 0.354E+01   0.213E-06 -.948E-04 -.535E-03
   0.265E-05 -.624E-01 0.802E+02   -.403E-05 0.684E-01 -.872E+02   0.253E-05 -.539E-02 0.707E+01   -.439E-06 0.485E-04 0.154E-02
   -.703E+02 -.238E-02 0.236E+01   0.776E+02 0.227E-02 -.189E+00   -.732E+01 0.100E-03 -.217E+01   -.122E-02 -.284E-05 0.335E-05
   -.105E+03 -.696E-01 -.442E+01   0.115E+03 0.764E-01 0.264E+01   -.978E+01 -.646E-02 0.178E+01   -.202E-02 -.121E-03 0.125E-03
   0.107E+01 0.333E-02 0.229E+01   -.137E+00 -.356E-02 -.251E+00   -.931E+00 0.243E-03 -.204E+01   -.364E-03 -.616E-06 -.148E-03
   -.493E+02 -.493E-01 -.847E+01   0.548E+02 0.554E-01 0.801E+01   -.541E+01 -.570E-02 0.455E+00   -.810E-03 0.299E-04 -.164E-03
   0.703E+02 -.236E-02 0.236E+01   -.776E+02 0.223E-02 -.189E+00   0.732E+01 0.124E-03 -.217E+01   0.122E-02 -.241E-05 0.366E-05
   0.105E+03 -.694E-01 -.442E+01   -.115E+03 0.762E-01 0.264E+01   0.978E+01 -.641E-02 0.178E+01   0.202E-02 -.120E-03 0.125E-03
   -.107E+01 0.332E-02 0.229E+01   0.137E+00 -.355E-02 -.251E+00   0.931E+00 0.244E-03 -.204E+01   0.364E-03 -.101E-05 -.147E-03
   0.493E+02 -.493E-01 -.847E+01   -.548E+02 0.553E-01 0.801E+01   0.541E+01 -.567E-02 0.455E+00   0.809E-03 0.295E-04 -.164E-03
   -.130E-04 -.360E+02 0.167E+01   0.241E-04 0.393E+02 0.626E+00   -.126E-04 -.334E+01 -.229E+01   -.173E-06 0.978E-03 -.992E-05
   0.522E-05 -.347E+02 -.361E+01   0.494E-05 0.381E+02 0.170E+01   -.118E-04 -.332E+01 0.190E+01   -.278E-06 -.886E-03 0.789E-04
   0.253E-04 0.360E+02 0.167E+01   -.314E-04 -.393E+02 0.626E+00   0.726E-05 0.334E+01 -.229E+01   0.210E-06 -.976E-03 -.108E-04
   -.631E-05 0.347E+02 -.361E+01   -.238E-06 -.381E+02 0.170E+01   0.801E-05 0.332E+01 0.190E+01   0.294E-06 0.903E-03 0.799E-04
   -.371E-04 0.319E+02 -.315E+01   0.409E-04 -.346E+02 0.655E+01   -.359E-05 0.269E+01 -.339E+01   0.185E-06 0.218E-02 0.699E-04
   -.172E-04 -.319E+02 -.315E+01   0.221E-04 0.346E+02 0.655E+01   -.565E-05 -.269E+01 -.339E+01   -.188E-06 -.217E-02 0.730E-04
   0.678E-04 -.398E-02 -.443E+01   -.741E-04 0.396E-02 0.432E+01   0.693E-05 0.219E-04 0.110E+00   -.445E-06 -.696E-05 0.877E-03
   -.488E-04 -.627E-01 -.438E+02   0.597E-04 0.702E-01 0.448E+02   -.111E-04 -.658E-02 -.984E+00   -.325E-06 0.418E-04 -.127E-02
 -----------------------------------------------------------------------------------------------
   0.957E-05 -.736E-01 0.373E+01   -.381E-15 0.126E-13 0.568E-13   -.850E-05 0.737E-01 -.373E+01   -.727E-06 -.245E-04 0.326E-04
 
 
 POSITION                                       TOTAL-FORCE (eV/Angst)
 -----------------------------------------------------------------------------------
      7.91443      7.75768      7.45410        -0.000000      0.000003      0.001974
      0.00000      0.00000      3.84689         0.000001      0.000047     -0.000919
      0.00000      3.87884      0.00751        -0.000003      0.000000     -0.008574
      7.91443      3.87885      3.77064         0.000001      0.000048     -0.008182
      3.95721      0.00003      0.00289         0.000001      0.000167     -0.000605
      3.95722      7.75691      3.75956        -0.000002     -0.007117      0.000695
      3.95722      3.87886      7.41857         0.000002      0.000134      0.004229
      3.95722      3.87824      3.79059         0.000001     -0.005292      0.000078
      3.95721      1.97107      3.76408         0.000000      0.002860     -0.001283
      3.95722      5.78734      3.76408        -0.000000      0.003885     -0.001140
      0.00001      7.75767      5.66496        -0.000001     -0.000007      0.002150
      7.91443      3.87884      1.87722         0.000000     -0.000006      0.000572
      0.00000      3.87883      5.67640        -0.000001     -0.000014     -0.000824
      3.95721      0.00011      1.84083        -0.000000      0.000941      0.007188
      3.95721      0.00009      5.72489         0.000001      0.000879      0.000712
      3.95722      3.87891      5.70113         0.000001      0.000663     -0.004009
      1.90550      7.75768      0.03734        -0.000631     -0.000022      0.004091
      1.88429      0.00003      3.73706         0.001217      0.000245     -0.002423
      1.97289      3.87884      0.02547        -0.000058      0.000009     -0.003858
      1.92707      3.87889      3.75588         0.000490      0.000431     -0.002409
      6.00893      7.75768      0.03734         0.000631     -0.000018      0.004090
      6.03013      0.00003      3.73706        -0.001217      0.000251     -0.002420
      5.94154      3.87884      0.02547         0.000059      0.000009     -0.003859
      5.98736      3.87889      3.75588        -0.000491      0.000432     -0.002407
      0.00000      1.90805      0.03971        -0.000002      0.000227      0.005848
      0.00000      1.90912      3.73934        -0.000002      0.000916     -0.002941
      7.91443      5.84963      0.03971         0.000001     -0.000234      0.005852
      7.91443      5.84857      3.73933         0.000002     -0.000785     -0.002949
      3.95721      1.96738      0.05513         0.000000      0.001318      0.004763
      3.95722      5.79037      0.05514        -0.000001     -0.000858      0.004847
      7.91443      7.75768      1.87926         0.000000     -0.000008      0.000867
      3.95722      3.87893      1.82536        -0.000001      0.000894      0.000847
 -----------------------------------------------------------------------------------
    total drift:                                0.000000      0.000114     -0.000423


--------------------------------------------------------------------------------------------------------



  FREE ENERGIE OF THE ION-ELECTRON SYSTEM (eV)
  ---------------------------------------------------
  free  energy   TOTEN  =      -210.50459644 eV

  energy  without entropy=     -210.50459644  energy(sigma->0) =     -210.50459644
 


--------------------------------------------------------------------------------------------------------


    POTLOK:  cpu time    0.9839: real time    0.9816


--------------------------------------------------------------------------------------------------------


 stress matrix after NEB project (eV)
      0.01184     -0.00009     -0.00004
     -0.00009      0.00274     -0.00038
     -0.00004     -0.00038      0.01522
  FORCES: max atom, RMS     0.008574    0.004237
  FORCE total and by dimension    0.023967    0.008574
  Stress total and by dimension    0.019485    0.015219
 Quasi-Newton relaxation of ions (Broydens 2nd method)
  g(Force)  = 0.277E-04   g(Stress)= 0.572E-06

 Reset! Starting new Quasi-Newton update for ions 


--------------------------------------------------------------------------------------------------------


  
 reached required accuracy - stopping structural energy minimisation
 writing wavefunctions
     LOOP+:  cpu time  114.8205: real time  118.9047
    4ORBIT:  cpu time    0.0000: real time    0.0000
 


 total charge     
 
# of ion       s       p       d       tot
------------------------------------------
    1        0.325   6.495   1.760   8.580
    2        0.325   6.498   1.747   8.570
    3        0.300   6.461   1.716   8.476
    4        0.305   6.464   1.701   8.470
    5        0.294   6.471   1.784   8.549
    6        0.290   6.422   1.664   8.376
    7        0.318   6.490   1.843   8.651
    8        0.300   6.448   1.724   8.472
    9        1.563   3.409   0.000   4.972
   10        1.563   3.409   0.000   4.972
   11        1.574   3.485   0.000   5.058
   12        1.568   3.442   0.000   5.011
   13        1.567   3.438   0.000   5.005
   14        1.569   3.445   0.000   5.014
   15        1.568   3.437   0.000   5.005
   16        1.577   3.474   0.000   5.051
   17        1.730   4.378   0.000   6.108
   18        1.731   4.373   0.000   6.104
   19        1.729   4.382   0.000   6.111
   20        1.730   4.378   0.000   6.108
   21        1.730   4.378   0.000   6.108
   22        1.731   4.373   0.000   6.104
   23        1.729   4.382   0.000   6.111
   24        1.730   4.378   0.000   6.108
   25        1.731   4.392   0.000   6.122
   26        1.731   4.390   0.000   6.121
   27        1.731   4.392   0.000   6.122
   28        1.731   4.390   0.000   6.121
   29        1.731   4.394   0.000   6.125
   30        1.731   4.394   0.000   6.125
   31        1.731   4.390   0.000   6.121
   32        1.732   4.394   0.000   6.126
--------------------------------------------------
tot         42.691 149.448  13.939 206.078
 


 magnetization (x)
 
# of ion       s       p       d       tot
------------------------------------------
    1       -0.000  -0.000  -0.000  -0.000
    2       -0.000  -0.000   0.000  -0.000
    3       -0.000  -0.000   0.000   0.000
    4       -0.000   0.000   0.000   0.000
    5       -0.000   0.000  -0.000  -0.000
    6       -0.000   0.000  -0.000  -0.000
    7       -0.000   0.000   0.000   0.000
    8       -0.000   0.000  -0.000  -0.000
    9       -0.000  -0.000   0.000  -0.000
   10       -0.000  -0.000   0.000  -0.000
   11       -0.000   0.000   0.000   0.000
   12        0.000  -0.000   0.000  -0.000
   13        0.000  -0.000   0.000  -0.000
   14        0.000   0.000   0.000   0.000
   15       -0.000   0.000   0.000   0.000
   16        0.000  -0.000   0.000  -0.000
   17        0.000   0.000   0.000   0.000
   18        0.000   0.000   0.000   0.000
   19        0.000   0.000   0.000   0.000
   20       -0.000   0.000   0.000   0.000
   21       -0.000   0.000   0.000   0.000
   22        0.000  -0.000   0.000  -0.000
   23        0.000   0.000   0.000   0.000
   24        0.000   0.000   0.000   0.000
   25        0.000  -0.000   0.000   0.000
   26       -0.000  -0.000   0.000  -0.000
   27       -0.000   0.000   0.000   0.000
   28       -0.000   0.000   0.000   0.000
   29       -0.000  -0.000   0.000  -0.000
   30        0.000  -0.000   0.000  -0.000
   31       -0.000   0.000   0.000   0.000
   32        0.000   0.000   0.000   0.000
--------------------------------------------------
tot         -0.000   0.000  -0.000  -0.000
 

 total amount of memory used by VASP MPI-rank0   107173. kBytes
=======================================================================

   base      :      30000. kBytes
   nonlr-proj:       8562. kBytes
   fftplans  :       8423. kBytes
   grid      :       8783. kBytes
   one-center:        124. kBytes
   wavefun   :      51281. kBytes
 
  
  
 General timing and accounting informations for this job:
 ========================================================
  
                  Total CPU time used (sec):      164.646
                            User time (sec):      141.879
                          System time (sec):       22.767
                         Elapsed time (sec):      172.398
  
                   Maximum memory used (kb):      220608.
                   Average memory used (kb):           0.
  
                          Minor page faults:        99728
                          Major page faults:            2
                 Voluntary context switches:        68635
