LTO                                     
           1
     7.914425    0.000004    0.000001
     0.000004    7.757681   -0.000006
     0.000001   -0.000006    7.545744
   Ti   O    F 
   8   8  16
Direct configuration=     1
   0.99999999  0.99999992  0.98785556
   0.00000001  0.00000064  0.50980973
   0.00000001  0.49999992  0.00099548
   0.99999998  0.50000070  0.49970495
   0.49999998  0.00000325  0.00038284
   0.50000002  0.99990008  0.49823651
   0.49999999  0.50000303  0.98314697
   0.49999998  0.49992259  0.50234869
   0.50000002  0.25408016  0.49883460
   0.49999997  0.74601457  0.49883549
   0.00000004  0.99999977  0.75075025
   0.99999999  0.49999981  0.24877893
   0.00000002  0.49999981  0.75226616
   0.50000002  0.00001358  0.24395619
   0.49999998  0.00001181  0.75869126
   0.49999998  0.50000928  0.75554307
   0.24076293  0.99999989  0.00494937
   0.23808354  0.00000374  0.49525383
   0.24927700  0.50000008  0.00337576
   0.24348748  0.50000607  0.49774896
   0.75923706  0.99999985  0.00494932
   0.76191647  0.00000352  0.49525386
   0.75072300  0.50000005  0.00337575
   0.75651251  0.50000593  0.49774898
   0.00000003  0.24595670  0.00526284
   0.00000002  0.24609476  0.49555570
   0.99999999  0.75404312  0.00526280
   0.99999999  0.75390723  0.49555571
   0.50000002  0.25360378  0.00730618
   0.49999999  0.74640442  0.00730810
   0.99999997  0.99999989  0.24904993
   0.50000003  0.50001204  0.24190622
