       N       E                     dE             d eps       ncg     rms          rms(c)
DAV:   1    -0.213242969145E+03   -0.21324E+03   -0.17103E-06  2272   0.165E-02    0.656E-03
DAV:   2    -0.213242968210E+03    0.93548E-06   -0.22386E-06  2416   0.182E-02
   1 F= -.21324297E+03 E0= -.21324297E+03  d E =-.213243E+03  mag=    -0.0000
