 vasp.5.4.4.18Apr17-6-g9f103f2a35 (build Apr 30 2017 20:10:35) complex          
  
 executed on             LinuxIFC date 2017.08.02  14:41:04
 running on   64 total cores
 distrk:  each k-point on   64 cores,    1 groups
 distr:  one band on NCORES_PER_BAND=   8 cores,    8 groups


--------------------------------------------------------------------------------------------------------


 INCAR:
 POTCAR:   PAW_PBE Ti_pv 07Sep2000                
 POTCAR:   PAW_PBE O 08Apr2002                    
 POTCAR:    PAW_PBE F 08Apr2002                   
 POTCAR:   PAW_PBE Ti_pv 07Sep2000                
   VRHFIN =Ti: d3 s1                                                            
   LEXCH  = PE                                                                  
   EATOM  =  1042.3781 eV,   76.6126 Ry                                         
                                                                                
   TITEL  = PAW_PBE Ti_pv 07Sep2000                                             
   LULTRA =        F    use ultrasoft PP ?                                      
   IUNSCR =        1    unscreen: 0-lin 1-nonlin 2-no                           
   RPACOR =    2.200    partial core radius                                     
   POMASS =   47.880; ZVAL   =   10.000    mass and valenz                      
   RCORE  =    2.500    outmost cutoff radius                                   
   RWIGS  =    2.500; RWIGS  =    1.323    wigner-seitz radius (au A)           
   ENMAX  =  222.338; ENMIN  =  166.753 eV                                      
   RCLOC  =    1.701    cutoff for local pot                                    
   LCOR   =        T    correct aug charges                                     
   LPAW   =        T    paw PP                                                  
   EAUG   =  482.848                                                            
   DEXC   =    -.008                                                            
   RMAX   =    3.092    core radius for proj-oper                               
   RAUG   =    1.300    factor for augmentation sphere                          
   RDEP   =    2.538    radius for radial grids                                 
   QCUT   =   -4.042; QGAM   =    8.085    optimization parameters              
                                                                                
   Description                                                                  
     l     E      TYP  RCUT    TYP  RCUT                                        
     1   .000     23  2.300                                                     
     1  -.100     23  2.300                                                     
     2   .000     23  2.500                                                     
     2   .000     23  2.500                                                     
     0   .000     23  2.500                                                     
     0  1.500     23  2.500                                                     
     3   .000      7   .000                                                     
  local pseudopotential read in
  partial core-charges read in
  atomic valenz-charges read in
  non local Contribution for L=           1  read in
    real space projection operators read in
  non local Contribution for L=           1  read in
    real space projection operators read in
  non local Contribution for L=           2  read in
    real space projection operators read in
  non local Contribution for L=           2  read in
    real space projection operators read in
  non local Contribution for L=           0  read in
    real space projection operators read in
  non local Contribution for L=           0  read in
    real space projection operators read in
    PAW grid and wavefunctions read in
 
   number of l-projection  operators is LMAX  =           6
   number of lm-projection operators is LMMAX =          18
 
 POTCAR:   PAW_PBE O 08Apr2002                    
   VRHFIN =O: s2p4                                                              
   LEXCH  = PE                                                                  
   EATOM  =   432.3788 eV,   31.7789 Ry                                         
                                                                                
   TITEL  = PAW_PBE O 08Apr2002                                                 
   LULTRA =        F    use ultrasoft PP ?                                      
   IUNSCR =        0    unscreen: 0-lin 1-nonlin 2-no                           
   RPACOR =     .000    partial core radius                                     
   POMASS =   16.000; ZVAL   =    6.000    mass and valenz                      
   RCORE  =    1.520    outmost cutoff radius                                   
   RWIGS  =    1.550; RWIGS  =     .820    wigner-seitz radius (au A)           
   ENMAX  =  400.000; ENMIN  =  300.000 eV                                      
   ICORE  =        2    local potential                                         
   LCOR   =        T    correct aug charges                                     
   LPAW   =        T    paw PP                                                  
   EAUG   =  605.392                                                            
   DEXC   =     .000                                                            
   RMAX   =    2.264    core radius for proj-oper                               
   RAUG   =    1.300    factor for augmentation sphere                          
   RDEP   =    1.550    radius for radial grids                                 
   QCUT   =   -5.520; QGAM   =   11.041    optimization parameters              
                                                                                
   Description                                                                  
     l     E      TYP  RCUT    TYP  RCUT                                        
     0   .000     23  1.200                                                     
     0  -.700     23  1.200                                                     
     1   .000     23  1.520                                                     
     1   .600     23  1.520                                                     
     2   .000      7  1.500                                                     
  local pseudopotential read in
  atomic valenz-charges read in
  non local Contribution for L=           0  read in
    real space projection operators read in
  non local Contribution for L=           0  read in
    real space projection operators read in
  non local Contribution for L=           1  read in
    real space projection operators read in
  non local Contribution for L=           1  read in
    real space projection operators read in
    PAW grid and wavefunctions read in
 
   number of l-projection  operators is LMAX  =           4
   number of lm-projection operators is LMMAX =           8
 
 POTCAR:    PAW_PBE F 08Apr2002                   
   VRHFIN =F: s2p5                                                              
   LEXCH  = PE                                                                  
   EATOM  =   659.6475 eV,   48.4827 Ry                                         
                                                                                
   TITEL  = PAW_PBE F 08Apr2002                                                 
   LULTRA =        F    use ultrasoft PP ?                                      
   IUNSCR =        1    unscreen: 0-lin 1-nonlin 2-no                           
   RPACOR =    1.200    partial core radius                                     
   POMASS =   18.998; ZVAL   =    7.000    mass and valenz                      
   RCORE  =    1.520    outmost cutoff radius                                   
   RWIGS  =    1.500; RWIGS  =    0.794    wigner-seitz radius (au A)           
   ENMAX  =  400.000; ENMIN  =  300.000 eV                                      
   ICORE  =        2    local potential                                         
   LCOR   =        T    correct aug charges                                     
   LPAW   =        T    paw PP                                                  
   EAUG   =  613.614                                                            
   RMAX   =    1.555    core radius for proj-oper                               
   RAUG   =    1.300    factor for augmentation sphere                          
   RDEP   =    1.539    radius for radial grids                                 
   RDEPT  =    1.299    core radius for aug-charge                              
                                                                                
   Atomic configuration                                                         
    4 entries                                                                   
     n  l   j            E        occ.                                          
     1  0  0.50      -663.3661   2.0000                                         
     2  0  0.50       -29.8995   2.0000                                         
     2  1  0.50       -11.1114   5.0000                                         
     3  2  1.50       -10.8847   0.0000                                         
   Description                                                                  
     l       E           TYP  RCUT    TYP  RCUT                                 
     0    -29.8995018     23  1.200                                             
     0     -9.5240782     23  1.200                                             
     1    -11.1113914     23  1.520                                             
     1      1.3605826     23  1.520                                             
     2    -10.8846608      7  1.500                                             
  local pseudopotential read in
  partial core-charges read in
  partial kinetic energy density read in
  atomic valenz-charges read in
  non local Contribution for L=           0  read in
    real space projection operators read in
  non local Contribution for L=           0  read in
    real space projection operators read in
  non local Contribution for L=           1  read in
    real space projection operators read in
  non local Contribution for L=           1  read in
    real space projection operators read in
    PAW grid and wavefunctions read in
 
   number of l-projection  operators is LMAX  =           4
   number of lm-projection operators is LMMAX =           8
 
 Optimization of the real space projectors (new method)

 maximal supplied QI-value         = 15.12
 optimisation between [QCUT,QGAM] = [ 13.45, 27.06] = [ 50.69,205.06] Ry 
 Optimized for a Real-space Cutoff    1.49 Angstroem

   l    n(q)    QCUT    max X(q) W(low)/X(q) W(high)/X(q)  e(spline) 
   1     12    13.455     4.841    0.13E-05    0.83E-06    0.56E-07
   1     12    13.455     5.701    0.32E-04    0.25E-04    0.17E-06
   2     11    13.455     4.569    0.64E-05    0.34E-05    0.50E-07
   2     11    13.455    32.276    0.49E-04    0.38E-04    0.46E-06
   0     12    13.455    30.046    0.17E-04    0.41E-05    0.51E-07
   0     12    13.455    45.433    0.12E-04    0.27E-04    0.38E-06
 Optimization of the real space projectors (new method)

 maximal supplied QI-value         = 24.76
 optimisation between [QCUT,QGAM] = [ 13.37, 26.98] = [ 50.04,203.89] Ry 
 Optimized for a Real-space Cutoff    1.17 Angstroem

   l    n(q)    QCUT    max X(q) W(low)/X(q) W(high)/X(q)  e(spline) 
   0      9    13.368     4.192    0.20E-04    0.58E-05    0.56E-07
   0      9    13.368     8.473    0.60E-04    0.52E-04    0.21E-06
   1      9    13.368     2.474    0.22E-04    0.17E-04    0.28E-07
   1      9    13.368     3.912    0.94E-04    0.97E-04    0.20E-06
 Optimization of the real space projectors (new method)

 maximal supplied QI-value         = 24.76
 optimisation between [QCUT,QGAM] = [ 13.37, 26.98] = [ 50.04,203.89] Ry 
 Optimized for a Real-space Cutoff    1.17 Angstroem

   l    n(q)    QCUT    max X(q) W(low)/X(q) W(high)/X(q)  e(spline) 
   0      9    13.368    14.049    0.39E-04    0.34E-04    0.16E-06
   0      9    13.368     8.945    0.54E-04    0.47E-04    0.20E-06
   1      9    13.368     7.086    0.99E-04    0.10E-03    0.23E-06
   1      9    13.368     6.747    0.86E-04    0.89E-04    0.21E-06

 ----------------------------------------------------------------------------- 
|                                                                             |
|  ADVICE TO THIS USER RUNNING 'VASP/VAMP'   (HEAR YOUR MASTER'S VOICE ...):  |
|                                                                             |
|      You enforced a specific xc-type in the INCAR file,                     |
|      a different type was found on the POTCAR file                          |
|          I HOPE YOU KNOW, WHAT YOU ARE  DOING                               |
|                                                                             |
 ----------------------------------------------------------------------------- 

 PAW_PBE Ti_pv 07Sep2000                :
 energy of atom  1       EATOM=-1042.3781
 kinetic energy error for atom=    0.0006 (will be added to EATOM!!)
 PAW_PBE O 08Apr2002                    :
 energy of atom  2       EATOM= -432.3788
 kinetic energy error for atom=    0.0091 (will be added to EATOM!!)
  PAW_PBE F 08Apr2002                   :
 energy of atom  3       EATOM= -659.6475
 kinetic energy error for atom=    0.0140 (will be added to EATOM!!)
 
 
 POSCAR: TiOF2 2x2x2 config 2663                 
  positions in direct lattice
  velocities in cartesian coordinates
 exchange correlation table for  LEXCH =       14
   RHO(1)=    0.500       N(1)  =     2000
   RHO(2)=  100.500       N(2)  =     4000

 VTST: version 3.1, (03/28/14)

 CHAIN: initializing optimizer
 
 OPT: Using VASP QUASI-newton optimizer
 CHAIN: Read ICHAIN            0
 
 POSCAR: TiOF2 2x2x2 config 2663                 
  positions in direct lattice
  velocities in cartesian coordinates
 


--------------------------------------------------------------------------------------------------------


 ion  position               nearest neighbor table
   1  0.985  0.000  0.988-  10 1.82  14 1.83  23 1.96  25 1.96  28 2.03  17 2.05
   2  0.000  0.986  0.513-  11 1.82  14 1.84  18 1.95  20 1.95  28 2.03  24 2.03
   3  1.000  0.500  0.981-  15 1.74  23 1.92  25 1.92  21 1.95  19 1.95  29 2.03
   4  0.011  0.511  0.502-  11 1.85   9 1.87  15 1.96  29 1.99  24 2.03  22 2.04
   5  0.511  0.002  0.011-  16 1.85  10 1.87  12 1.96  26 1.99  30 2.03  17 2.04
   6  0.500  0.013  0.486-  16 1.82  13 1.84  20 1.95  18 1.95  27 2.03  30 2.03
   7  0.500  0.481  0.000-  12 1.74  32 1.92  31 1.92  19 1.95  21 1.95  26 2.03
   8  0.485  0.488  0.500-   9 1.82  13 1.83  32 1.96  31 1.96  27 2.03  22 2.05
   9  0.251  0.500  0.499-   8 1.82   4 1.87
  10  0.751  0.999  1.000-   1 1.82   5 1.87
  11  0.998  0.750  0.497-   2 1.82   4 1.85
  12  0.498  0.255  0.998-   7 1.74   5 1.96
  13  0.502  0.251  0.502-   8 1.83   6 1.84
  14  0.002  0.002  0.751-   1 1.83   2 1.84
  15  0.998  0.498  0.755-   3 1.74   4 1.96
  16  0.498  0.997  0.250-   6 1.82   5 1.85
  17  0.248  0.998  0.000-   5 2.04   1 2.05
  18  0.250  0.000  0.500-   2 1.95   6 1.95
  19  0.250  0.505  0.005-   7 1.95   3 1.95
  20  0.750  0.000  0.500-   6 1.95   2 1.95
  21  0.750  0.505  0.005-   3 1.95   7 1.95
  22  0.748  0.500  0.498-   4 2.04   8 2.05
  23  0.005  0.253  0.011-   3 1.92   1 1.96
  24  0.996  0.249  0.494-   4 2.03   2 2.03
  25  0.005  0.747  0.012-   3 1.92   1 1.96
  26  0.497  0.744  0.996-   5 1.99   7 2.03
  27  0.504  0.750  0.504-   6 2.03   8 2.03
  28  0.004  0.004  0.250-   2 2.03   1 2.03
  29  0.997  0.496  0.244-   4 1.99   3 2.03
  30  0.496  0.994  0.749-   5 2.03   6 2.03
  31  0.505  0.512  0.247-   7 1.92   8 1.96
  32  0.505  0.511  0.753-   7 1.92   8 1.96
 

IMPORTANT INFORMATION: All symmetrisations will be switched off!
NOSYMM: (Re-)initialisation of all symmetry stuff for point group C_1.

 
 
 KPOINTS: Title                                   

Automatic generation of k-mesh.
Space group operators:
 irot       det(A)        alpha          n_x          n_y          n_z        tau_x        tau_y        tau_z
    1     1.000000     0.000001     1.000000     0.000000     0.000000     0.000000     0.000000     0.000000
 
 Subroutine IBZKPT returns following result:
 ===========================================
 
 Found      4 irreducible k-points:
 
 Following reciprocal coordinates:
            Coordinates               Weight
  0.250000  0.250000  0.250000      2.000000
 -0.250000  0.250000  0.250000      2.000000
  0.250000 -0.250000  0.250000      2.000000
 -0.250000 -0.250000  0.250000      2.000000
 
 Following cartesian coordinates:
            Coordinates               Weight
  0.032195  0.032454  0.032454      2.000000
 -0.032211  0.032461  0.032461      2.000000
  0.032203 -0.032419  0.032411      2.000000
 -0.032203 -0.032411  0.032419      2.000000
 


--------------------------------------------------------------------------------------------------------




 Dimension of arrays:
   k-points           NKPTS =      4   k-points in BZ     NKDIM =      4   number of bands    NBANDS=    160
   number of dos      NEDOS =   3001   number of ions     NIONS =     32
   non local maximal  LDIM  =      6   non local SUM 2l+1 LMDIM =     18
   total plane-waves  NPLWV = 343000
   max r-space proj   IRMAX =  10312   max aug-charges    IRDMAX= 231182
   dimension x,y,z NGX =    70 NGY =   70 NGZ =   70
   dimension x,y,z NGXF=   140 NGYF=  140 NGZF=  140
   support grid    NGXF=   280 NGYF=  280 NGZF=  280
   ions per type =               8   8  16
   NGX,Y,Z   is equivalent  to a cutoff of  14.99, 15.10, 15.10 a.u.
   NGXF,Y,Z  is equivalent  to a cutoff of  29.98, 30.20, 30.20 a.u.

 SYSTEM =  LTO                                     
 POSCAR =  TiOF2 2x2x2 config 2663                 

 Startparameter for this run:
   NWRITE =      2    write-flag & timer
   PREC   = accura    normal or accurate (medium, high low for compatibility)
   ISTART =      1    job   : 0-new  1-cont  2-samecut
   ICHARG =      0    charge: 1-file 2-atom 10-const
   ISPIN  =      2    spin polarized calculation?
   LNONCOLLINEAR =      F non collinear calculations
   LSORBIT =      F    spin-orbit coupling
   INIWAV =      1    electr: 0-lowe 1-rand  2-diag
   LASPH  =      T    aspherical Exc in radial PAW
   METAGGA=      F    non-selfconsistent MetaGGA calc.

 Electronic Relaxation 1
   ENCUT  =  700.0 eV  51.45 Ry    7.17 a.u.  16.75 16.63 16.63*2*pi/ulx,y,z
   ENINI  =  700.0     initial cutoff
   ENAUG  =  613.6 eV  augmentation charge cutoff
   NELM   =     60;   NELMIN=  2; NELMDL=  0     # of ELM steps 
   EDIFF  = 0.1E-05   stopping-criterion for ELM
   LREAL  =      T    real-space projection
   NLSPLINE    = F    spline interpolate recip. space projectors
   LCOMPAT=      F    compatible to vasp.4.4
   GGA_COMPAT  = T    GGA compatible to vasp.4.4-vasp.4.6
   LMAXPAW     = -100 max onsite density
   LMAXMIX     =    4 max onsite mixed and CHGCAR
   VOSKOWN=      0    Vosko Wilk Nusair interpolation
   ROPT   =   -0.00010  -0.00010  -0.00010
 Ionic relaxation
   EDIFFG = -.1E-01   stopping-criterion for IOM
   NSW    =    100    number of steps for IOM
   NBLOCK =      1;   KBLOCK =    100    inner block; outer block 
   IBRION =      1    ionic relax: 0-MD 1-quasi-New 2-CG
   NFREE  =      0    steps in history (QN), initial steepest desc. (CG)
   ISIF   =      3    stress and relaxation
   IWAVPR =     11    prediction:  0-non 1-charg 2-wave 3-comb
   ISYM   =      0    0-nonsym 1-usesym 2-fastsym
   LCORR  =      T    Harris-Foulkes like correction to forces

   POTIM  = 0.5000    time-step for ionic-motion
   TEIN   =    0.0    initial temperature
   TEBEG  =    0.0;   TEEND  =   0.0 temperature during run
   SMASS  =  -3.00    Nose mass-parameter (am)
   estimated Nose-frequenzy (Omega)   =  0.10E-29 period in steps =****** mass=  -0.138E-26a.u.
   SCALEE = 1.0000    scale energy and forces
   NPACO  =    256;   APACO  = 16.0  distance and # of slots for P.C.
   PSTRESS=    0.0 pullay stress

  Mass of Ions in am
   POMASS =  47.88 16.00 19.00
  Ionic Valenz
   ZVAL   =  10.00  6.00  7.00
  Atomic Wigner-Seitz radii
   RWIGS  =  -1.00 -1.00 -1.00
  virtual crystal weights 
   VCA    =   1.00  1.00  1.00
   NELECT =     240.0000    total number of electrons
   NUPDOWN=      -1.0000    fix difference up-down

 DOS related values:
   EMIN   =  10.00;   EMAX   =-10.00  energy-range for DOS
   EFERMI =   0.00
   ISMEAR =     0;   SIGMA  =   0.01  broadening in eV -4-tet -1-fermi 0-gaus

 Electronic relaxation 2 (details)
   IALGO  =     38    algorithm
   LDIAG  =      T    sub-space diagonalisation (order eigenvalues)
   LSUBROT=      F    optimize rotation matrix (better conditioning)
   TURBO    =      0    0=normal 1=particle mesh
   IRESTART =      0    0=no restart 2=restart with 2 vectors
   NREBOOT  =      0    no. of reboots
   NMIN     =      0    reboot dimension
   EREF     =   0.00    reference energy to select bands
   IMIX   =      4    mixing-type and parameters
     AMIX     =   0.40;   BMIX     =  1.00
     AMIX_MAG =   1.60;   BMIX_MAG =  1.00
     AMIN     =   0.10
     WC   =   100.;   INIMIX=   1;  MIXPRE=   1;  MAXMIX= -45

 Intra band minimization:
   WEIMIN = 0.0010     energy-eigenvalue tresh-hold
   EBREAK =  0.16E-08  absolut break condition
   DEPER  =   0.30     relativ break condition  

   TIME   =   0.40     timestep for ELM

  volume/ion in A,a.u.               =      14.41        97.25
  Fermi-wavevector in a.u.,A,eV,Ry     =   1.316818  2.488426 23.592645  1.734011
  Thomas-Fermi vector in A             =   2.446903
 
 Write flags
   LWAVE        =      T    write WAVECAR
   LDOWNSAMPLE  =      F    k-point downsampling of WAVECAR
   LCHARG       =      T    write CHGCAR
   LVTOT        =      F    write LOCPOT, total local potential
   LVHAR        =      F    write LOCPOT, Hartree potential only
   LELF         =      F    write electronic localiz. function (ELF)
   LORBIT       =     11    0 simple, 1 ext, 2 COOP (PROOUT), +10 PAW based schemes


 Dipole corrections
   LMONO  =      F    monopole corrections only (constant potential shift)
   LDIPOL =      F    correct potential (dipole corrections)
   IDIPOL =      0    1-x, 2-y, 3-z, 4-all directions 
   EPSILON=  1.0000000 bulk dielectric constant

 LDA+U is selected, type is set to LDAUTYPE =  2
   angular momentum for each species LDAUL =     2   -1   -1
   U (eV)           for each species LDAUU =   4.2  0.0  0.0
   J (eV)           for each species LDAUJ =   0.0  0.0  0.0
 Exchange correlation treatment:
   GGA     =    PS    GGA type
   LEXCH   =    14    internal setting for exchange type
   VOSKOWN=      0    Vosko Wilk Nusair interpolation
   LHFCALC =     F    Hartree Fock is set to
   LHFONE  =     F    Hartree Fock one center treatment
   AEXX    =    0.0000 exact exchange contribution

 Linear response parameters
   LEPSILON=     F    determine dielectric tensor
   LRPA    =     F    only Hartree local field effects (RPA)
   LNABLA  =     F    use nabla operator in PAW spheres
   LVEL    =     F    velocity operator in full k-point grid
   LINTERFAST=   F  fast interpolation
   KINTER  =     0    interpolate to denser k-point grid
   CSHIFT  =0.1000    complex shift for real part using Kramers Kronig
   OMEGAMAX=  -1.0    maximum frequency
   DEG_THRESHOLD= 0.2000000E-02 threshold for treating states as degnerate
   RTIME   =   -0.100 relaxation time in fs
  (WPLASMAI=    0.000 imaginary part of plasma frequency in eV, 0.658/RTIME)
   DFIELD  = 0.0000000 0.0000000 0.0000000 field for delta impulse in time
 
 Orbital magnetization related:
   ORBITALMAG=     F  switch on orbital magnetization
   LCHIMAG   =     F  perturbation theory with respect to B field
   DQ        =  0.001000  dq finite difference perturbation B field
   LLRAUG    =     F  two centre corrections for induced B field



--------------------------------------------------------------------------------------------------------


 quasi-Newton-method for relaxation of ions
 charge density and potential will be updated during run
 spin polarized calculation
 Variant of blocked Davidson
 Davidson routine will perform the subspace rotation
 perform sub-space diagonalisation
    after iterative eigenvector-optimisation
 modified Broyden-mixing scheme, WC =      100.0
 initial mixing is a Kerker type mixing with AMIX =  0.4000 and BMIX =      1.0000
 Hartree-type preconditioning will be used
 using additional bands           40
 real space projection scheme for non local part
 use partial core corrections
 calculate Harris-corrections to forces 
   (improved forces if not selfconsistent)
 use gradient corrections 
 use of overlap-Matrix (Vanderbilt PP)
 Gauss-broadening in eV      SIGMA  =   0.01


--------------------------------------------------------------------------------------------------------


  energy-cutoff  :      700.00
  volume of cell :      461.17
      direct lattice vectors                 reciprocal lattice vectors
     7.763214166  0.000949592  0.000949413     0.128812629 -0.000015753 -0.000015745
     0.000941944  7.707408882 -0.005019470    -0.000015881  0.129745347  0.000084499
     0.000941480 -0.005019457  7.707408486    -0.000015878  0.000084499  0.129745354

  length of vectors
     7.763214282  7.707410574  7.707410178     0.128812631  0.129745375  0.129745382


 
 old parameters found on file WAVECAR:
  energy-cutoff  :      700.00
  volume of cell :      461.17
      direct lattice vectors                 reciprocal lattice vectors
     7.763214166  0.000949592  0.000949413     0.128812629 -0.000015753 -0.000015745
     0.000941944  7.707408882 -0.005019470    -0.000015881  0.129745347  0.000084499
     0.000941480 -0.005019457  7.707408486    -0.000015878  0.000084499  0.129745354

  length of vectors

 
 k-points in units of 2pi/SCALE and weight: Title                                   
   0.03219522  0.03245352  0.03245353       0.250
  -0.03221110  0.03246140  0.03246140       0.250
   0.03220316 -0.03241915  0.03241128       0.250
  -0.03220316 -0.03241127  0.03241915       0.250
 
 k-points in reciprocal lattice and weights: Title                                   
   0.25000000  0.25000000  0.25000000       0.250
  -0.25000000  0.25000000  0.25000000       0.250
   0.25000000 -0.25000000  0.25000000       0.250
  -0.25000000 -0.25000000  0.25000000       0.250
 
 position of ions in fractional coordinates (direct lattice) 
   0.98493572  0.00038347  0.98753066
   0.00017517  0.98573528  0.51254041
   0.99989524  0.50036208  0.98056382
   0.01077341  0.51117390  0.50157010
   0.51077333  0.00157011  0.01117400
   0.50017507  0.01254041  0.48573536
   0.49989523  0.48056404  0.00036208
   0.48493567  0.48753068  0.50038348
   0.25077220  0.49960132  0.49860897
   0.75077212  0.99860898  0.99960141
   0.99829569  0.75019151  0.49686015
   0.49826341  0.25492654  0.99750509
   0.50159294  0.25134274  0.50206817
   0.00159290  0.00206807  0.75134277
   0.99826340  0.49750509  0.75492672
   0.49829464  0.99686054  0.25019145
   0.24846862  0.99773069  0.00007729
   0.25011695  0.00030042  0.50037779
   0.25016444  0.50458957  0.00463327
   0.75011698  0.00037772  0.50030042
   0.75016453  0.50463332  0.00458953
   0.74846862  0.50007729  0.49773068
   0.00526766  0.25329699  0.01089136
   0.99586140  0.24881985  0.49421971
   0.00453837  0.74749419  0.01236684
   0.49685929  0.74386551  0.99637103
   0.50402014  0.75015647  0.50384432
   0.00402011  0.00384435  0.25015649
   0.99685930  0.49637093  0.24386544
   0.49586140  0.99421972  0.74881997
   0.50453837  0.51236678  0.24749423
   0.50526766  0.51089144  0.75329697
 
 position of ions in cartesian coordinates  (Angst):
   7.64719707 -0.00106603  7.61223539
   0.00277096  7.59489236  3.94541060
   7.76379541  3.85252275  7.55604370
   0.08459003  3.93731889  3.86325004
   3.96525471  0.01253042  0.08659967
   3.88343533  0.09469089  3.74417274
   3.88124671  3.70437644  0.00085311
   3.76558977  3.75554714  3.85467314
   1.94773834  3.84836703  3.84071338
   5.83028652  7.69238318  7.70003668
   7.75115763  5.78048672  3.82668640
   3.86930483  1.96028930  7.68737268
   3.89468283  1.93515750  3.86885909
   0.01307537  0.01216966  5.79089679
   7.75091193  3.83163376  5.81697917
   3.86954254  7.68242913  1.92379705
   1.92985500  7.69015390 -0.00417650
   1.94218286  0.00004136  3.85685199
   1.94255980  3.88929241  0.03341520
   5.82379016  0.00111231  3.85673001
   5.82416753  3.89010463  0.03355263
   5.81146187  3.85251256  3.83441418
   0.04114284  1.95221384  0.08267778
   7.73178502  1.91622125  3.80884974
   0.03594809  5.76118561  0.09156859
   3.85886384  5.72874619  7.67617648
   3.91399729  5.77971221  3.88004715
   0.03144813  0.02837812  1.92804274
   7.73952936  3.82545625  1.87802545
   3.85111972  7.65957007  5.76694168
   3.91755502  3.94825712  1.90544630
   3.92369149  3.93434789  5.80388279
 


--------------------------------------------------------------------------------------------------------


 k-point  1 :   0.2500 0.2500 0.2500  plane waves:   19383
 k-point  2 :  -0.2500 0.2500 0.2500  plane waves:   19387
 k-point  3 :   0.2500-0.2500 0.2500  plane waves:   19395
 k-point  4 :  -0.2500-0.2500 0.2500  plane waves:   19395

 maximum and minimum number of plane-waves per node :      2444     2405

 maximum number of plane-waves:     19395
 maximum index in each direction: 
   IXMAX=   16   IYMAX=   16   IZMAX=   16
   IXMIN=  -16   IYMIN=  -16   IZMIN=  -16


 real space projection operators:
  total allocation   :      18550.84 KBytes
  max/ min on nodes  :       2468.64       1929.50


 parallel 3D FFT for wavefunctions:
    minimum data exchange during FFTs selected (reduces bandwidth)
 parallel 3D FFT for charge:
    minimum data exchange during FFTs selected (reduces bandwidth)


 total amount of memory used by VASP MPI-rank0    62260. kBytes
=======================================================================

   base      :      30000. kBytes
   nonlr-proj:       8603. kBytes
   fftplans  :       8422. kBytes
   grid      :       8783. kBytes
   one-center:        124. kBytes
   wavefun   :       6328. kBytes
 
     INWAV:  cpu time    3.7574: real time    4.4511
 Broyden mixing: mesh for mixing (old mesh)
   NGX = 33   NGY = 33   NGZ = 33
  (NGX  =140   NGY  =140   NGZ  =140)
  gives a total of  35937 points

 charge density for first step will be calculated from the start-wavefunctions


--------------------------------------------------------------------------------------------------------


 Maximum index for non-local projection operator         1374
 Maximum index for augmentation-charges         7655 (set IRDMAX)


--------------------------------------------------------------------------------------------------------


 initial charge from wavefunction
 First call to EWALD:  gamma=   0.229
 Maximum number of real-space cells 3x 3x 3
 Maximum number of reciprocal cells 3x 3x 3

    FEWALD:  cpu time    0.0030: real time    0.0031


--------------------------------------- Iteration      1(   1)  ---------------------------------------


    POTLOK:  cpu time    0.7419: real time    1.5109
    SETDIJ:  cpu time    0.8369: real time    0.8381
     EDDAV:  cpu time    3.1815: real time    3.1816
       DOS:  cpu time    0.0010: real time    0.0008
    CHARGE:  cpu time    0.3789: real time    0.3780
    MIXING:  cpu time    0.0020: real time    0.0024
    --------------------------------------------
      LOOP:  cpu time    5.1422: real time    5.9119

 eigenvalue-minimisations  :  2272
 total energy-change (2. order) :-0.2132430E+03  (-0.1710311E-06)
 number of electron     240.0000003 magnetization      -0.0000000
 augmentation part       61.9699493 magnetization       0.0000000

 Broyden mixing:
  rms(total) = 0.65569E-03    rms(broyden)= 0.65482E-03
  rms(prec ) = 0.11664E-02
  weight for this iteration     100.00

 Free energy of the ion-electron system (eV)
  ---------------------------------------------------
  alpha Z        PSCENC =       759.30447194
  Ewald energy   TEWEN  =    -12805.97071793
  -Hartree energ DENC   =     -8235.00842954
  -exchange      EXHF   =         0.00000000
  -V(xc)+E(xc)   XCENC  =      1119.85789223
  PAW double counting   =     18032.38716844   -18155.57642437
  entropy T*S    EENTRO =        -0.00000000
  eigenvalues    EBANDS =     -3230.59014618
  atomic energy  EATOM  =     22302.35321627
  Solvation  Ediel_sol  =         0.00000000
  ---------------------------------------------------
  free energy    TOTEN  =      -213.24296915 eV

  energy without entropy =     -213.24296915  energy(sigma->0) =     -213.24296915


--------------------------------------------------------------------------------------------------------




--------------------------------------- Iteration      1(   2)  ---------------------------------------


    POTLOK:  cpu time    0.1540: real time    0.4245
    SETDIJ:  cpu time    0.8409: real time    0.8386
     EDDAV:  cpu time    3.5135: real time    3.5098
       DOS:  cpu time    0.0000: real time    0.0009
    --------------------------------------------
      LOOP:  cpu time    4.5083: real time    4.7737

 eigenvalue-minimisations  :  2416
 total energy-change (2. order) : 0.9354808E-06  (-0.2238595E-06)
 number of electron     240.0000003 magnetization      -0.0000000
 augmentation part       61.9699493 magnetization       0.0000000

 Free energy of the ion-electron system (eV)
  ---------------------------------------------------
  alpha Z        PSCENC =       759.30447194
  Ewald energy   TEWEN  =    -12805.97071793
  -Hartree energ DENC   =     -8235.01591683
  -exchange      EXHF   =         0.00000000
  -V(xc)+E(xc)   XCENC  =      1119.85805658
  PAW double counting   =     18032.40161575   -18155.59041437
  entropy T*S    EENTRO =        -0.00000000
  eigenvalues    EBANDS =     -3230.58327962
  atomic energy  EATOM  =     22302.35321627
  Solvation  Ediel_sol  =         0.00000000
  ---------------------------------------------------
  free energy    TOTEN  =      -213.24296821 eV

  energy without entropy =     -213.24296821  energy(sigma->0) =     -213.24296821


--------------------------------------------------------------------------------------------------------




 average (electrostatic) potential at core
  the test charge radii are     1.0397  0.7215  0.7167
  (the norm of the test charge is              1.0000)
       1 -58.7284       2 -58.6980       3 -59.3354       4 -58.6554       5 -58.6554
       6 -58.6980       7 -59.3354       8 -58.7284       9 -73.9302      10 -73.9302
      11 -73.9173      12 -74.4624      13 -73.9573      14 -73.9573      15 -74.4624
      16 -73.9173      17 -78.3414      18 -79.2494      19 -79.8884      20 -79.2494
      21 -79.8883      22 -78.3414      23 -79.7078      24 -78.3899      25 -79.6972
      26 -78.7698      27 -78.4301      28 -78.4301      29 -78.7698      30 -78.3898
      31 -79.6972      32 -79.7078
 
 
 
 E-fermi :  -0.8344     XC(G=0):  -8.9881     alpha+bet : -7.6622


 spin component 1

 k-point     1 :       0.2500    0.2500    0.2500
  band No.  band energies     occupation 
      1     -35.4161      1.00000
      2     -35.3774      1.00000
      3     -35.3773      1.00000
      4     -35.3355      1.00000
      5     -35.1421      1.00000
      6     -35.1415      1.00000
      7     -34.7850      1.00000
      8     -34.7850      1.00000
      9     -34.7559      1.00000
     10     -34.6744      1.00000
     11     -34.5990      1.00000
     12     -34.5990      1.00000
     13     -34.5755      1.00000
     14     -34.5733      1.00000
     15     -34.5615      1.00000
     16     -34.5580      1.00000
     17     -34.5545      1.00000
     18     -34.5540      1.00000
     19     -34.5193      1.00000
     20     -34.5179      1.00000
     21     -34.4900      1.00000
     22     -34.4886      1.00000
     23     -34.4667      1.00000
     24     -34.4666      1.00000
     25     -23.7712      1.00000
     26     -23.5458      1.00000
     27     -23.4680      1.00000
     28     -23.3434      1.00000
     29     -23.1595      1.00000
     30     -23.1573      1.00000
     31     -23.0780      1.00000
     32     -22.7130      1.00000
     33     -22.4531      1.00000
     34     -22.4453      1.00000
     35     -22.1474      1.00000
     36     -22.1415      1.00000
     37     -22.0540      1.00000
     38     -22.0137      1.00000
     39     -21.9493      1.00000
     40     -21.9264      1.00000
     41     -16.8752      1.00000
     42     -16.8741      1.00000
     43     -16.5437      1.00000
     44     -16.5248      1.00000
     45     -16.4355      1.00000
     46     -16.3773      1.00000
     47     -16.3060      1.00000
     48     -16.2718      1.00000
     49      -7.2598      1.00000
     50      -7.0166      1.00000
     51      -6.9739      1.00000
     52      -6.6013      1.00000
     53      -6.2043      1.00000
     54      -6.0514      1.00000
     55      -6.0407      1.00000
     56      -5.9906      1.00000
     57      -5.9769      1.00000
     58      -5.6882      1.00000
     59      -5.6741      1.00000
     60      -5.6322      1.00000
     61      -5.6293      1.00000
     62      -5.4813      1.00000
     63      -5.4448      1.00000
     64      -5.4240      1.00000
     65      -5.3560      1.00000
     66      -5.3222      1.00000
     67      -5.2428      1.00000
     68      -5.2187      1.00000
     69      -4.9579      1.00000
     70      -4.9229      1.00000
     71      -4.8790      1.00000
     72      -4.8478      1.00000
     73      -4.8122      1.00000
     74      -4.6779      1.00000
     75      -4.6244      1.00000
     76      -4.5973      1.00000
     77      -4.3751      1.00000
     78      -4.3453      1.00000
     79      -4.2688      1.00000
     80      -4.2389      1.00000
     81      -4.1287      1.00000
     82      -4.0647      1.00000
     83      -3.9936      1.00000
     84      -3.9563      1.00000
     85      -3.8880      1.00000
     86      -3.8586      1.00000
     87      -3.7337      1.00000
     88      -3.6950      1.00000
     89      -3.6684      1.00000
     90      -3.6022      1.00000
     91      -3.5561      1.00000
     92      -3.5519      1.00000
     93      -3.3710      1.00000
     94      -3.3412      1.00000
     95      -3.2890      1.00000
     96      -3.2263      1.00000
     97      -3.0654      1.00000
     98      -3.0219      1.00000
     99      -2.9981      1.00000
    100      -2.9919      1.00000
    101      -2.8967      1.00000
    102      -2.8847      1.00000
    103      -2.6831      1.00000
    104      -2.6437      1.00000
    105      -2.5348      1.00000
    106      -2.5219      1.00000
    107      -2.4514      1.00000
    108      -2.4375      1.00000
    109      -2.2977      1.00000
    110      -2.2608      1.00000
    111      -2.0074      1.00000
    112      -2.0052      1.00000
    113      -1.8970      1.00000
    114      -1.7843      1.00000
    115      -1.5804      1.00000
    116      -1.5777      1.00000
    117      -1.1818      1.00000
    118      -1.1733      1.00000
    119      -0.9030      1.00000
    120      -0.8889      1.00000
    121       2.0079      0.00000
    122       2.0120      0.00000
    123       2.2417      0.00000
    124       2.2559      0.00000
    125       2.3502      0.00000
    126       2.3833      0.00000
    127       2.5585      0.00000
    128       2.5905      0.00000
    129       2.8447      0.00000
    130       2.8814      0.00000
    131       2.9355      0.00000
    132       2.9587      0.00000
    133       3.1441      0.00000
    134       3.1575      0.00000
    135       3.2212      0.00000
    136       3.2690      0.00000
    137       3.4114      0.00000
    138       3.4800      0.00000
    139       3.5252      0.00000
    140       3.6424      0.00000
    141       3.7391      0.00000
    142       3.7989      0.00000
    143       3.8258      0.00000
    144       3.8493      0.00000
    145       3.9884      0.00000
    146       4.0398      0.00000
    147       4.0717      0.00000
    148       4.0771      0.00000
    149       4.1413      0.00000
    150       4.2679      0.00000
    151       4.2976      0.00000
    152       4.6150      0.00000
    153       4.8345      0.00000
    154       5.1444      0.00000
    155       5.2540      0.00000
    156       5.7156      0.00000
    157       6.0075      0.00000
    158       6.3285      0.00000
    159       6.3969      0.00000
    160       6.5627      0.00000

 k-point     2 :      -0.2500    0.2500    0.2500
  band No.  band energies     occupation 
      1     -35.4161      1.00000
      2     -35.3774      1.00000
      3     -35.3773      1.00000
      4     -35.3355      1.00000
      5     -35.1421      1.00000
      6     -35.1415      1.00000
      7     -34.7850      1.00000
      8     -34.7850      1.00000
      9     -34.7559      1.00000
     10     -34.6744      1.00000
     11     -34.5991      1.00000
     12     -34.5990      1.00000
     13     -34.5755      1.00000
     14     -34.5733      1.00000
     15     -34.5612      1.00000
     16     -34.5584      1.00000
     17     -34.5544      1.00000
     18     -34.5541      1.00000
     19     -34.5187      1.00000
     20     -34.5184      1.00000
     21     -34.4894      1.00000
     22     -34.4892      1.00000
     23     -34.4667      1.00000
     24     -34.4665      1.00000
     25     -23.7711      1.00000
     26     -23.5461      1.00000
     27     -23.4679      1.00000
     28     -23.3433      1.00000
     29     -23.1595      1.00000
     30     -23.1574      1.00000
     31     -23.0780      1.00000
     32     -22.7131      1.00000
     33     -22.4526      1.00000
     34     -22.4459      1.00000
     35     -22.1567      1.00000
     36     -22.1319      1.00000
     37     -22.0510      1.00000
     38     -22.0168      1.00000
     39     -21.9490      1.00000
     40     -21.9269      1.00000
     41     -16.8760      1.00000
     42     -16.8733      1.00000
     43     -16.5515      1.00000
     44     -16.5128      1.00000
     45     -16.4455      1.00000
     46     -16.3649      1.00000
     47     -16.3136      1.00000
     48     -16.2708      1.00000
     49      -7.2573      1.00000
     50      -7.0172      1.00000
     51      -6.9776      1.00000
     52      -6.6011      1.00000
     53      -6.2039      1.00000
     54      -6.0435      1.00000
     55      -6.0362      1.00000
     56      -5.9754      1.00000
     57      -5.9684      1.00000
     58      -5.7143      1.00000
     59      -5.6979      1.00000
     60      -5.6340      1.00000
     61      -5.6091      1.00000
     62      -5.4873      1.00000
     63      -5.4664      1.00000
     64      -5.4314      1.00000
     65      -5.3408      1.00000
     66      -5.3382      1.00000
     67      -5.2425      1.00000
     68      -5.2154      1.00000
     69      -4.9624      1.00000
     70      -4.9065      1.00000
     71      -4.9040      1.00000
     72      -4.8717      1.00000
     73      -4.7667      1.00000
     74      -4.7043      1.00000
     75      -4.6071      1.00000
     76      -4.5818      1.00000
     77      -4.3462      1.00000
     78      -4.3240      1.00000
     79      -4.2623      1.00000
     80      -4.2498      1.00000
     81      -4.1174      1.00000
     82      -4.1142      1.00000
     83      -3.9911      1.00000
     84      -3.9765      1.00000
     85      -3.8636      1.00000
     86      -3.8581      1.00000
     87      -3.7163      1.00000
     88      -3.7054      1.00000
     89      -3.6511      1.00000
     90      -3.6315      1.00000
     91      -3.4710      1.00000
     92      -3.4682      1.00000
     93      -3.3724      1.00000
     94      -3.3275      1.00000
     95      -3.2521      1.00000
     96      -3.1989      1.00000
     97      -3.1152      1.00000
     98      -3.1085      1.00000
     99      -3.0428      1.00000
    100      -3.0388      1.00000
    101      -2.9354      1.00000
    102      -2.8967      1.00000
    103      -2.7640      1.00000
    104      -2.7428      1.00000
    105      -2.5207      1.00000
    106      -2.5033      1.00000
    107      -2.4127      1.00000
    108      -2.3890      1.00000
    109      -2.3418      1.00000
    110      -2.3136      1.00000
    111      -2.0055      1.00000
    112      -1.9993      1.00000
    113      -1.6703      1.00000
    114      -1.6297      1.00000
    115      -1.5869      1.00000
    116      -1.5812      1.00000
    117      -1.1875      1.00000
    118      -1.1733      1.00000
    119      -1.0224      1.00000
    120      -0.9741      1.00000
    121       2.0222      0.00000
    122       2.0393      0.00000
    123       2.2435      0.00000
    124       2.2513      0.00000
    125       2.4436      0.00000
    126       2.4511      0.00000
    127       2.4982      0.00000
    128       2.5544      0.00000
    129       2.8794      0.00000
    130       2.8874      0.00000
    131       2.9581      0.00000
    132       2.9936      0.00000
    133       3.0256      0.00000
    134       3.0281      0.00000
    135       3.1732      0.00000
    136       3.2592      0.00000
    137       3.3659      0.00000
    138       3.5830      0.00000
    139       3.5931      0.00000
    140       3.6609      0.00000
    141       3.7041      0.00000
    142       3.7933      0.00000
    143       3.8386      0.00000
    144       3.8458      0.00000
    145       3.9541      0.00000
    146       4.0443      0.00000
    147       4.0556      0.00000
    148       4.1317      0.00000
    149       4.1511      0.00000
    150       4.2335      0.00000
    151       4.3131      0.00000
    152       4.6706      0.00000
    153       4.7878      0.00000
    154       5.2057      0.00000
    155       5.2315      0.00000
    156       5.7166      0.00000
    157       6.0087      0.00000
    158       6.2936      0.00000
    159       6.4206      0.00000
    160       6.5451      0.00000

 k-point     3 :       0.2500   -0.2500    0.2500
  band No.  band energies     occupation 
      1     -35.4161      1.00000
      2     -35.3774      1.00000
      3     -35.3773      1.00000
      4     -35.3355      1.00000
      5     -35.1421      1.00000
      6     -35.1415      1.00000
      7     -34.7850      1.00000
      8     -34.7850      1.00000
      9     -34.7559      1.00000
     10     -34.6744      1.00000
     11     -34.5990      1.00000
     12     -34.5990      1.00000
     13     -34.5755      1.00000
     14     -34.5733      1.00000
     15     -34.5614      1.00000
     16     -34.5581      1.00000
     17     -34.5546      1.00000
     18     -34.5540      1.00000
     19     -34.5193      1.00000
     20     -34.5178      1.00000
     21     -34.4900      1.00000
     22     -34.4887      1.00000
     23     -34.4668      1.00000
     24     -34.4665      1.00000
     25     -23.7712      1.00000
     26     -23.5459      1.00000
     27     -23.4680      1.00000
     28     -23.3433      1.00000
     29     -23.1594      1.00000
     30     -23.1574      1.00000
     31     -23.0780      1.00000
     32     -22.7131      1.00000
     33     -22.4527      1.00000
     34     -22.4458      1.00000
     35     -22.1540      1.00000
     36     -22.1342      1.00000
     37     -22.0545      1.00000
     38     -22.0133      1.00000
     39     -21.9501      1.00000
     40     -21.9262      1.00000
     41     -16.8754      1.00000
     42     -16.8738      1.00000
     43     -16.5461      1.00000
     44     -16.5231      1.00000
     45     -16.4346      1.00000
     46     -16.3767      1.00000
     47     -16.3067      1.00000
     48     -16.2720      1.00000
     49      -7.2587      1.00000
     50      -7.0166      1.00000
     51      -6.9756      1.00000
     52      -6.6013      1.00000
     53      -6.2040      1.00000
     54      -6.0509      1.00000
     55      -6.0324      1.00000
     56      -5.9859      1.00000
     57      -5.9632      1.00000
     58      -5.7113      1.00000
     59      -5.6764      1.00000
     60      -5.6504      1.00000
     61      -5.6255      1.00000
     62      -5.4854      1.00000
     63      -5.4600      1.00000
     64      -5.4204      1.00000
     65      -5.3612      1.00000
     66      -5.3201      1.00000
     67      -5.2328      1.00000
     68      -5.2102      1.00000
     69      -4.9603      1.00000
     70      -4.9127      1.00000
     71      -4.8880      1.00000
     72      -4.8579      1.00000
     73      -4.7910      1.00000
     74      -4.6853      1.00000
     75      -4.6141      1.00000
     76      -4.5995      1.00000
     77      -4.3674      1.00000
     78      -4.3304      1.00000
     79      -4.2737      1.00000
     80      -4.2562      1.00000
     81      -4.1355      1.00000
     82      -4.0931      1.00000
     83      -3.9954      1.00000
     84      -3.9476      1.00000
     85      -3.8911      1.00000
     86      -3.8557      1.00000
     87      -3.7468      1.00000
     88      -3.6883      1.00000
     89      -3.6253      1.00000
     90      -3.5964      1.00000
     91      -3.5267      1.00000
     92      -3.4659      1.00000
     93      -3.3624      1.00000
     94      -3.3426      1.00000
     95      -3.2700      1.00000
     96      -3.2104      1.00000
     97      -3.1074      1.00000
     98      -3.0709      1.00000
     99      -3.0459      1.00000
    100      -2.9823      1.00000
    101      -2.9568      1.00000
    102      -2.9397      1.00000
    103      -2.7765      1.00000
    104      -2.6631      1.00000
    105      -2.5001      1.00000
    106      -2.4349      1.00000
    107      -2.4276      1.00000
    108      -2.3662      1.00000
    109      -2.3378      1.00000
    110      -2.2775      1.00000
    111      -2.0541      1.00000
    112      -2.0489      1.00000
    113      -1.8470      1.00000
    114      -1.6281      1.00000
    115      -1.6037      1.00000
    116      -1.5668      1.00000
    117      -1.1766      1.00000
    118      -1.1616      1.00000
    119      -1.0071      1.00000
    120      -0.8892      1.00000
    121       2.0034      0.00000
    122       2.0363      0.00000
    123       2.2342      0.00000
    124       2.2433      0.00000
    125       2.3676      0.00000
    126       2.4479      0.00000
    127       2.5139      0.00000
    128       2.5864      0.00000
    129       2.8627      0.00000
    130       2.8989      0.00000
    131       2.9450      0.00000
    132       3.0084      0.00000
    133       3.0196      0.00000
    134       3.1528      0.00000
    135       3.1976      0.00000
    136       3.2500      0.00000
    137       3.3592      0.00000
    138       3.4768      0.00000
    139       3.6159      0.00000
    140       3.6923      0.00000
    141       3.7508      0.00000
    142       3.7810      0.00000
    143       3.8213      0.00000
    144       3.8692      0.00000
    145       3.9883      0.00000
    146       3.9942      0.00000
    147       4.0499      0.00000
    148       4.0828      0.00000
    149       4.1448      0.00000
    150       4.2315      0.00000
    151       4.3440      0.00000
    152       4.6597      0.00000
    153       4.8155      0.00000
    154       5.0424      0.00000
    155       5.3622      0.00000
    156       5.7119      0.00000
    157       6.0078      0.00000
    158       6.3299      0.00000
    159       6.3812      0.00000
    160       6.5596      0.00000

 k-point     4 :      -0.2500   -0.2500    0.2500
  band No.  band energies     occupation 
      1     -35.4161      1.00000
      2     -35.3774      1.00000
      3     -35.3773      1.00000
      4     -35.3355      1.00000
      5     -35.1421      1.00000
      6     -35.1415      1.00000
      7     -34.7850      1.00000
      8     -34.7850      1.00000
      9     -34.7559      1.00000
     10     -34.6744      1.00000
     11     -34.5990      1.00000
     12     -34.5990      1.00000
     13     -34.5755      1.00000
     14     -34.5733      1.00000
     15     -34.5614      1.00000
     16     -34.5581      1.00000
     17     -34.5546      1.00000
     18     -34.5540      1.00000
     19     -34.5193      1.00000
     20     -34.5178      1.00000
     21     -34.4900      1.00000
     22     -34.4887      1.00000
     23     -34.4668      1.00000
     24     -34.4665      1.00000
     25     -23.7712      1.00000
     26     -23.5459      1.00000
     27     -23.4680      1.00000
     28     -23.3433      1.00000
     29     -23.1594      1.00000
     30     -23.1574      1.00000
     31     -23.0780      1.00000
     32     -22.7131      1.00000
     33     -22.4527      1.00000
     34     -22.4458      1.00000
     35     -22.1540      1.00000
     36     -22.1342      1.00000
     37     -22.0545      1.00000
     38     -22.0133      1.00000
     39     -21.9501      1.00000
     40     -21.9262      1.00000
     41     -16.8754      1.00000
     42     -16.8738      1.00000
     43     -16.5461      1.00000
     44     -16.5231      1.00000
     45     -16.4346      1.00000
     46     -16.3767      1.00000
     47     -16.3067      1.00000
     48     -16.2720      1.00000
     49      -7.2587      1.00000
     50      -7.0166      1.00000
     51      -6.9756      1.00000
     52      -6.6013      1.00000
     53      -6.2040      1.00000
     54      -6.0509      1.00000
     55      -6.0324      1.00000
     56      -5.9859      1.00000
     57      -5.9632      1.00000
     58      -5.7113      1.00000
     59      -5.6764      1.00000
     60      -5.6504      1.00000
     61      -5.6255      1.00000
     62      -5.4854      1.00000
     63      -5.4600      1.00000
     64      -5.4204      1.00000
     65      -5.3612      1.00000
     66      -5.3201      1.00000
     67      -5.2328      1.00000
     68      -5.2102      1.00000
     69      -4.9603      1.00000
     70      -4.9127      1.00000
     71      -4.8880      1.00000
     72      -4.8579      1.00000
     73      -4.7910      1.00000
     74      -4.6853      1.00000
     75      -4.6141      1.00000
     76      -4.5995      1.00000
     77      -4.3674      1.00000
     78      -4.3304      1.00000
     79      -4.2737      1.00000
     80      -4.2562      1.00000
     81      -4.1355      1.00000
     82      -4.0931      1.00000
     83      -3.9954      1.00000
     84      -3.9476      1.00000
     85      -3.8911      1.00000
     86      -3.8557      1.00000
     87      -3.7468      1.00000
     88      -3.6883      1.00000
     89      -3.6253      1.00000
     90      -3.5964      1.00000
     91      -3.5267      1.00000
     92      -3.4659      1.00000
     93      -3.3624      1.00000
     94      -3.3426      1.00000
     95      -3.2700      1.00000
     96      -3.2104      1.00000
     97      -3.1074      1.00000
     98      -3.0709      1.00000
     99      -3.0459      1.00000
    100      -2.9823      1.00000
    101      -2.9568      1.00000
    102      -2.9397      1.00000
    103      -2.7765      1.00000
    104      -2.6631      1.00000
    105      -2.5001      1.00000
    106      -2.4349      1.00000
    107      -2.4276      1.00000
    108      -2.3662      1.00000
    109      -2.3378      1.00000
    110      -2.2775      1.00000
    111      -2.0541      1.00000
    112      -2.0489      1.00000
    113      -1.8470      1.00000
    114      -1.6281      1.00000
    115      -1.6037      1.00000
    116      -1.5668      1.00000
    117      -1.1766      1.00000
    118      -1.1616      1.00000
    119      -1.0071      1.00000
    120      -0.8892      1.00000
    121       2.0034      0.00000
    122       2.0363      0.00000
    123       2.2342      0.00000
    124       2.2433      0.00000
    125       2.3676      0.00000
    126       2.4479      0.00000
    127       2.5139      0.00000
    128       2.5864      0.00000
    129       2.8627      0.00000
    130       2.8989      0.00000
    131       2.9450      0.00000
    132       3.0084      0.00000
    133       3.0196      0.00000
    134       3.1528      0.00000
    135       3.1976      0.00000
    136       3.2500      0.00000
    137       3.3592      0.00000
    138       3.4768      0.00000
    139       3.6159      0.00000
    140       3.6923      0.00000
    141       3.7508      0.00000
    142       3.7810      0.00000
    143       3.8213      0.00000
    144       3.8692      0.00000
    145       3.9883      0.00000
    146       3.9942      0.00000
    147       4.0499      0.00000
    148       4.0828      0.00000
    149       4.1448      0.00000
    150       4.2315      0.00000
    151       4.3440      0.00000
    152       4.6597      0.00000
    153       4.8155      0.00000
    154       5.0424      0.00000
    155       5.3622      0.00000
    156       5.7119      0.00000
    157       6.0078      0.00000
    158       6.3299      0.00000
    159       6.3812      0.00000
    160       6.5596      0.00000

 spin component 2

 k-point     1 :       0.2500    0.2500    0.2500
  band No.  band energies     occupation 
      1     -35.4161      1.00000
      2     -35.3774      1.00000
      3     -35.3773      1.00000
      4     -35.3355      1.00000
      5     -35.1421      1.00000
      6     -35.1415      1.00000
      7     -34.7850      1.00000
      8     -34.7850      1.00000
      9     -34.7559      1.00000
     10     -34.6744      1.00000
     11     -34.5990      1.00000
     12     -34.5990      1.00000
     13     -34.5755      1.00000
     14     -34.5733      1.00000
     15     -34.5615      1.00000
     16     -34.5580      1.00000
     17     -34.5545      1.00000
     18     -34.5540      1.00000
     19     -34.5193      1.00000
     20     -34.5179      1.00000
     21     -34.4900      1.00000
     22     -34.4886      1.00000
     23     -34.4667      1.00000
     24     -34.4666      1.00000
     25     -23.7712      1.00000
     26     -23.5458      1.00000
     27     -23.4680      1.00000
     28     -23.3434      1.00000
     29     -23.1595      1.00000
     30     -23.1573      1.00000
     31     -23.0780      1.00000
     32     -22.7130      1.00000
     33     -22.4531      1.00000
     34     -22.4453      1.00000
     35     -22.1474      1.00000
     36     -22.1415      1.00000
     37     -22.0540      1.00000
     38     -22.0137      1.00000
     39     -21.9493      1.00000
     40     -21.9264      1.00000
     41     -16.8752      1.00000
     42     -16.8741      1.00000
     43     -16.5437      1.00000
     44     -16.5248      1.00000
     45     -16.4355      1.00000
     46     -16.3773      1.00000
     47     -16.3060      1.00000
     48     -16.2718      1.00000
     49      -7.2598      1.00000
     50      -7.0166      1.00000
     51      -6.9739      1.00000
     52      -6.6013      1.00000
     53      -6.2043      1.00000
     54      -6.0514      1.00000
     55      -6.0407      1.00000
     56      -5.9906      1.00000
     57      -5.9769      1.00000
     58      -5.6882      1.00000
     59      -5.6741      1.00000
     60      -5.6322      1.00000
     61      -5.6293      1.00000
     62      -5.4813      1.00000
     63      -5.4448      1.00000
     64      -5.4240      1.00000
     65      -5.3560      1.00000
     66      -5.3222      1.00000
     67      -5.2428      1.00000
     68      -5.2187      1.00000
     69      -4.9579      1.00000
     70      -4.9229      1.00000
     71      -4.8790      1.00000
     72      -4.8478      1.00000
     73      -4.8122      1.00000
     74      -4.6779      1.00000
     75      -4.6244      1.00000
     76      -4.5973      1.00000
     77      -4.3751      1.00000
     78      -4.3453      1.00000
     79      -4.2688      1.00000
     80      -4.2389      1.00000
     81      -4.1287      1.00000
     82      -4.0647      1.00000
     83      -3.9936      1.00000
     84      -3.9563      1.00000
     85      -3.8880      1.00000
     86      -3.8586      1.00000
     87      -3.7337      1.00000
     88      -3.6950      1.00000
     89      -3.6684      1.00000
     90      -3.6022      1.00000
     91      -3.5561      1.00000
     92      -3.5519      1.00000
     93      -3.3710      1.00000
     94      -3.3412      1.00000
     95      -3.2890      1.00000
     96      -3.2263      1.00000
     97      -3.0654      1.00000
     98      -3.0219      1.00000
     99      -2.9981      1.00000
    100      -2.9919      1.00000
    101      -2.8967      1.00000
    102      -2.8847      1.00000
    103      -2.6831      1.00000
    104      -2.6437      1.00000
    105      -2.5348      1.00000
    106      -2.5219      1.00000
    107      -2.4514      1.00000
    108      -2.4375      1.00000
    109      -2.2977      1.00000
    110      -2.2608      1.00000
    111      -2.0074      1.00000
    112      -2.0052      1.00000
    113      -1.8970      1.00000
    114      -1.7843      1.00000
    115      -1.5804      1.00000
    116      -1.5777      1.00000
    117      -1.1818      1.00000
    118      -1.1733      1.00000
    119      -0.9030      1.00000
    120      -0.8889      1.00000
    121       2.0079      0.00000
    122       2.0120      0.00000
    123       2.2417      0.00000
    124       2.2559      0.00000
    125       2.3502      0.00000
    126       2.3833      0.00000
    127       2.5585      0.00000
    128       2.5905      0.00000
    129       2.8447      0.00000
    130       2.8814      0.00000
    131       2.9355      0.00000
    132       2.9587      0.00000
    133       3.1441      0.00000
    134       3.1575      0.00000
    135       3.2212      0.00000
    136       3.2690      0.00000
    137       3.4114      0.00000
    138       3.4800      0.00000
    139       3.5252      0.00000
    140       3.6424      0.00000
    141       3.7391      0.00000
    142       3.7989      0.00000
    143       3.8258      0.00000
    144       3.8493      0.00000
    145       3.9884      0.00000
    146       4.0398      0.00000
    147       4.0717      0.00000
    148       4.0771      0.00000
    149       4.1413      0.00000
    150       4.2679      0.00000
    151       4.2976      0.00000
    152       4.6150      0.00000
    153       4.8345      0.00000
    154       5.1444      0.00000
    155       5.2540      0.00000
    156       5.7156      0.00000
    157       6.0075      0.00000
    158       6.3285      0.00000
    159       6.3969      0.00000
    160       6.5627      0.00000

 k-point     2 :      -0.2500    0.2500    0.2500
  band No.  band energies     occupation 
      1     -35.4161      1.00000
      2     -35.3774      1.00000
      3     -35.3773      1.00000
      4     -35.3355      1.00000
      5     -35.1421      1.00000
      6     -35.1415      1.00000
      7     -34.7850      1.00000
      8     -34.7850      1.00000
      9     -34.7559      1.00000
     10     -34.6744      1.00000
     11     -34.5991      1.00000
     12     -34.5990      1.00000
     13     -34.5755      1.00000
     14     -34.5733      1.00000
     15     -34.5612      1.00000
     16     -34.5584      1.00000
     17     -34.5544      1.00000
     18     -34.5541      1.00000
     19     -34.5187      1.00000
     20     -34.5184      1.00000
     21     -34.4894      1.00000
     22     -34.4892      1.00000
     23     -34.4667      1.00000
     24     -34.4665      1.00000
     25     -23.7711      1.00000
     26     -23.5461      1.00000
     27     -23.4679      1.00000
     28     -23.3433      1.00000
     29     -23.1595      1.00000
     30     -23.1574      1.00000
     31     -23.0780      1.00000
     32     -22.7131      1.00000
     33     -22.4526      1.00000
     34     -22.4459      1.00000
     35     -22.1567      1.00000
     36     -22.1319      1.00000
     37     -22.0510      1.00000
     38     -22.0168      1.00000
     39     -21.9490      1.00000
     40     -21.9269      1.00000
     41     -16.8760      1.00000
     42     -16.8733      1.00000
     43     -16.5515      1.00000
     44     -16.5128      1.00000
     45     -16.4455      1.00000
     46     -16.3649      1.00000
     47     -16.3136      1.00000
     48     -16.2708      1.00000
     49      -7.2573      1.00000
     50      -7.0172      1.00000
     51      -6.9776      1.00000
     52      -6.6011      1.00000
     53      -6.2039      1.00000
     54      -6.0435      1.00000
     55      -6.0362      1.00000
     56      -5.9754      1.00000
     57      -5.9684      1.00000
     58      -5.7143      1.00000
     59      -5.6979      1.00000
     60      -5.6340      1.00000
     61      -5.6091      1.00000
     62      -5.4873      1.00000
     63      -5.4664      1.00000
     64      -5.4314      1.00000
     65      -5.3408      1.00000
     66      -5.3382      1.00000
     67      -5.2425      1.00000
     68      -5.2154      1.00000
     69      -4.9624      1.00000
     70      -4.9065      1.00000
     71      -4.9040      1.00000
     72      -4.8717      1.00000
     73      -4.7667      1.00000
     74      -4.7043      1.00000
     75      -4.6071      1.00000
     76      -4.5818      1.00000
     77      -4.3462      1.00000
     78      -4.3240      1.00000
     79      -4.2623      1.00000
     80      -4.2498      1.00000
     81      -4.1174      1.00000
     82      -4.1142      1.00000
     83      -3.9911      1.00000
     84      -3.9765      1.00000
     85      -3.8636      1.00000
     86      -3.8581      1.00000
     87      -3.7163      1.00000
     88      -3.7054      1.00000
     89      -3.6511      1.00000
     90      -3.6315      1.00000
     91      -3.4710      1.00000
     92      -3.4682      1.00000
     93      -3.3724      1.00000
     94      -3.3275      1.00000
     95      -3.2521      1.00000
     96      -3.1989      1.00000
     97      -3.1152      1.00000
     98      -3.1085      1.00000
     99      -3.0428      1.00000
    100      -3.0388      1.00000
    101      -2.9354      1.00000
    102      -2.8967      1.00000
    103      -2.7640      1.00000
    104      -2.7428      1.00000
    105      -2.5207      1.00000
    106      -2.5033      1.00000
    107      -2.4127      1.00000
    108      -2.3890      1.00000
    109      -2.3418      1.00000
    110      -2.3136      1.00000
    111      -2.0055      1.00000
    112      -1.9993      1.00000
    113      -1.6703      1.00000
    114      -1.6297      1.00000
    115      -1.5869      1.00000
    116      -1.5812      1.00000
    117      -1.1875      1.00000
    118      -1.1733      1.00000
    119      -1.0224      1.00000
    120      -0.9741      1.00000
    121       2.0222      0.00000
    122       2.0393      0.00000
    123       2.2435      0.00000
    124       2.2513      0.00000
    125       2.4436      0.00000
    126       2.4511      0.00000
    127       2.4982      0.00000
    128       2.5544      0.00000
    129       2.8794      0.00000
    130       2.8874      0.00000
    131       2.9581      0.00000
    132       2.9936      0.00000
    133       3.0256      0.00000
    134       3.0281      0.00000
    135       3.1732      0.00000
    136       3.2592      0.00000
    137       3.3659      0.00000
    138       3.5830      0.00000
    139       3.5931      0.00000
    140       3.6609      0.00000
    141       3.7041      0.00000
    142       3.7933      0.00000
    143       3.8386      0.00000
    144       3.8458      0.00000
    145       3.9541      0.00000
    146       4.0443      0.00000
    147       4.0556      0.00000
    148       4.1317      0.00000
    149       4.1511      0.00000
    150       4.2335      0.00000
    151       4.3131      0.00000
    152       4.6706      0.00000
    153       4.7878      0.00000
    154       5.2057      0.00000
    155       5.2315      0.00000
    156       5.7166      0.00000
    157       6.0087      0.00000
    158       6.2936      0.00000
    159       6.4206      0.00000
    160       6.5451      0.00000

 k-point     3 :       0.2500   -0.2500    0.2500
  band No.  band energies     occupation 
      1     -35.4161      1.00000
      2     -35.3774      1.00000
      3     -35.3773      1.00000
      4     -35.3355      1.00000
      5     -35.1421      1.00000
      6     -35.1415      1.00000
      7     -34.7850      1.00000
      8     -34.7850      1.00000
      9     -34.7559      1.00000
     10     -34.6744      1.00000
     11     -34.5990      1.00000
     12     -34.5990      1.00000
     13     -34.5755      1.00000
     14     -34.5733      1.00000
     15     -34.5614      1.00000
     16     -34.5581      1.00000
     17     -34.5546      1.00000
     18     -34.5540      1.00000
     19     -34.5193      1.00000
     20     -34.5178      1.00000
     21     -34.4900      1.00000
     22     -34.4887      1.00000
     23     -34.4668      1.00000
     24     -34.4665      1.00000
     25     -23.7712      1.00000
     26     -23.5459      1.00000
     27     -23.4680      1.00000
     28     -23.3433      1.00000
     29     -23.1594      1.00000
     30     -23.1574      1.00000
     31     -23.0780      1.00000
     32     -22.7131      1.00000
     33     -22.4527      1.00000
     34     -22.4458      1.00000
     35     -22.1540      1.00000
     36     -22.1342      1.00000
     37     -22.0545      1.00000
     38     -22.0133      1.00000
     39     -21.9501      1.00000
     40     -21.9262      1.00000
     41     -16.8754      1.00000
     42     -16.8738      1.00000
     43     -16.5461      1.00000
     44     -16.5231      1.00000
     45     -16.4346      1.00000
     46     -16.3767      1.00000
     47     -16.3067      1.00000
     48     -16.2720      1.00000
     49      -7.2587      1.00000
     50      -7.0166      1.00000
     51      -6.9756      1.00000
     52      -6.6013      1.00000
     53      -6.2040      1.00000
     54      -6.0509      1.00000
     55      -6.0324      1.00000
     56      -5.9859      1.00000
     57      -5.9632      1.00000
     58      -5.7113      1.00000
     59      -5.6764      1.00000
     60      -5.6504      1.00000
     61      -5.6255      1.00000
     62      -5.4854      1.00000
     63      -5.4600      1.00000
     64      -5.4204      1.00000
     65      -5.3612      1.00000
     66      -5.3201      1.00000
     67      -5.2328      1.00000
     68      -5.2102      1.00000
     69      -4.9603      1.00000
     70      -4.9127      1.00000
     71      -4.8880      1.00000
     72      -4.8579      1.00000
     73      -4.7910      1.00000
     74      -4.6853      1.00000
     75      -4.6141      1.00000
     76      -4.5995      1.00000
     77      -4.3674      1.00000
     78      -4.3304      1.00000
     79      -4.2737      1.00000
     80      -4.2562      1.00000
     81      -4.1355      1.00000
     82      -4.0931      1.00000
     83      -3.9954      1.00000
     84      -3.9476      1.00000
     85      -3.8911      1.00000
     86      -3.8557      1.00000
     87      -3.7468      1.00000
     88      -3.6883      1.00000
     89      -3.6253      1.00000
     90      -3.5964      1.00000
     91      -3.5267      1.00000
     92      -3.4659      1.00000
     93      -3.3624      1.00000
     94      -3.3426      1.00000
     95      -3.2700      1.00000
     96      -3.2104      1.00000
     97      -3.1074      1.00000
     98      -3.0709      1.00000
     99      -3.0459      1.00000
    100      -2.9823      1.00000
    101      -2.9568      1.00000
    102      -2.9397      1.00000
    103      -2.7765      1.00000
    104      -2.6631      1.00000
    105      -2.5001      1.00000
    106      -2.4349      1.00000
    107      -2.4276      1.00000
    108      -2.3662      1.00000
    109      -2.3378      1.00000
    110      -2.2775      1.00000
    111      -2.0541      1.00000
    112      -2.0489      1.00000
    113      -1.8470      1.00000
    114      -1.6281      1.00000
    115      -1.6037      1.00000
    116      -1.5668      1.00000
    117      -1.1766      1.00000
    118      -1.1616      1.00000
    119      -1.0071      1.00000
    120      -0.8892      1.00000
    121       2.0034      0.00000
    122       2.0363      0.00000
    123       2.2342      0.00000
    124       2.2433      0.00000
    125       2.3676      0.00000
    126       2.4479      0.00000
    127       2.5139      0.00000
    128       2.5864      0.00000
    129       2.8627      0.00000
    130       2.8989      0.00000
    131       2.9450      0.00000
    132       3.0084      0.00000
    133       3.0196      0.00000
    134       3.1528      0.00000
    135       3.1976      0.00000
    136       3.2500      0.00000
    137       3.3592      0.00000
    138       3.4768      0.00000
    139       3.6159      0.00000
    140       3.6923      0.00000
    141       3.7508      0.00000
    142       3.7810      0.00000
    143       3.8213      0.00000
    144       3.8692      0.00000
    145       3.9883      0.00000
    146       3.9942      0.00000
    147       4.0499      0.00000
    148       4.0828      0.00000
    149       4.1448      0.00000
    150       4.2315      0.00000
    151       4.3440      0.00000
    152       4.6597      0.00000
    153       4.8155      0.00000
    154       5.0424      0.00000
    155       5.3622      0.00000
    156       5.7119      0.00000
    157       6.0078      0.00000
    158       6.3299      0.00000
    159       6.3812      0.00000
    160       6.5596      0.00000

 k-point     4 :      -0.2500   -0.2500    0.2500
  band No.  band energies     occupation 
      1     -35.4161      1.00000
      2     -35.3774      1.00000
      3     -35.3773      1.00000
      4     -35.3355      1.00000
      5     -35.1421      1.00000
      6     -35.1415      1.00000
      7     -34.7850      1.00000
      8     -34.7850      1.00000
      9     -34.7559      1.00000
     10     -34.6744      1.00000
     11     -34.5990      1.00000
     12     -34.5990      1.00000
     13     -34.5755      1.00000
     14     -34.5733      1.00000
     15     -34.5614      1.00000
     16     -34.5581      1.00000
     17     -34.5546      1.00000
     18     -34.5540      1.00000
     19     -34.5193      1.00000
     20     -34.5178      1.00000
     21     -34.4900      1.00000
     22     -34.4887      1.00000
     23     -34.4668      1.00000
     24     -34.4665      1.00000
     25     -23.7712      1.00000
     26     -23.5459      1.00000
     27     -23.4680      1.00000
     28     -23.3433      1.00000
     29     -23.1594      1.00000
     30     -23.1574      1.00000
     31     -23.0780      1.00000
     32     -22.7131      1.00000
     33     -22.4527      1.00000
     34     -22.4458      1.00000
     35     -22.1540      1.00000
     36     -22.1342      1.00000
     37     -22.0545      1.00000
     38     -22.0133      1.00000
     39     -21.9501      1.00000
     40     -21.9262      1.00000
     41     -16.8754      1.00000
     42     -16.8738      1.00000
     43     -16.5461      1.00000
     44     -16.5231      1.00000
     45     -16.4346      1.00000
     46     -16.3767      1.00000
     47     -16.3067      1.00000
     48     -16.2720      1.00000
     49      -7.2587      1.00000
     50      -7.0166      1.00000
     51      -6.9756      1.00000
     52      -6.6013      1.00000
     53      -6.2040      1.00000
     54      -6.0509      1.00000
     55      -6.0324      1.00000
     56      -5.9859      1.00000
     57      -5.9632      1.00000
     58      -5.7113      1.00000
     59      -5.6764      1.00000
     60      -5.6504      1.00000
     61      -5.6255      1.00000
     62      -5.4854      1.00000
     63      -5.4600      1.00000
     64      -5.4204      1.00000
     65      -5.3612      1.00000
     66      -5.3201      1.00000
     67      -5.2328      1.00000
     68      -5.2102      1.00000
     69      -4.9603      1.00000
     70      -4.9127      1.00000
     71      -4.8880      1.00000
     72      -4.8579      1.00000
     73      -4.7910      1.00000
     74      -4.6853      1.00000
     75      -4.6141      1.00000
     76      -4.5995      1.00000
     77      -4.3674      1.00000
     78      -4.3304      1.00000
     79      -4.2737      1.00000
     80      -4.2562      1.00000
     81      -4.1355      1.00000
     82      -4.0931      1.00000
     83      -3.9954      1.00000
     84      -3.9476      1.00000
     85      -3.8911      1.00000
     86      -3.8557      1.00000
     87      -3.7468      1.00000
     88      -3.6883      1.00000
     89      -3.6253      1.00000
     90      -3.5964      1.00000
     91      -3.5267      1.00000
     92      -3.4659      1.00000
     93      -3.3624      1.00000
     94      -3.3426      1.00000
     95      -3.2700      1.00000
     96      -3.2104      1.00000
     97      -3.1074      1.00000
     98      -3.0709      1.00000
     99      -3.0459      1.00000
    100      -2.9823      1.00000
    101      -2.9568      1.00000
    102      -2.9397      1.00000
    103      -2.7765      1.00000
    104      -2.6631      1.00000
    105      -2.5001      1.00000
    106      -2.4349      1.00000
    107      -2.4276      1.00000
    108      -2.3662      1.00000
    109      -2.3378      1.00000
    110      -2.2775      1.00000
    111      -2.0541      1.00000
    112      -2.0489      1.00000
    113      -1.8470      1.00000
    114      -1.6281      1.00000
    115      -1.6037      1.00000
    116      -1.5668      1.00000
    117      -1.1766      1.00000
    118      -1.1616      1.00000
    119      -1.0071      1.00000
    120      -0.8892      1.00000
    121       2.0034      0.00000
    122       2.0363      0.00000
    123       2.2342      0.00000
    124       2.2433      0.00000
    125       2.3676      0.00000
    126       2.4479      0.00000
    127       2.5139      0.00000
    128       2.5864      0.00000
    129       2.8627      0.00000
    130       2.8989      0.00000
    131       2.9450      0.00000
    132       3.0084      0.00000
    133       3.0196      0.00000
    134       3.1528      0.00000
    135       3.1976      0.00000
    136       3.2500      0.00000
    137       3.3592      0.00000
    138       3.4768      0.00000
    139       3.6159      0.00000
    140       3.6923      0.00000
    141       3.7508      0.00000
    142       3.7810      0.00000
    143       3.8213      0.00000
    144       3.8692      0.00000
    145       3.9883      0.00000
    146       3.9942      0.00000
    147       4.0499      0.00000
    148       4.0828      0.00000
    149       4.1448      0.00000
    150       4.2315      0.00000
    151       4.3440      0.00000
    152       4.6597      0.00000
    153       4.8155      0.00000
    154       5.0424      0.00000
    155       5.3622      0.00000
    156       5.7119      0.00000
    157       6.0078      0.00000
    158       6.3299      0.00000
    159       6.3812      0.00000
    160       6.5596      0.00000


--------------------------------------------------------------------------------------------------------


 soft charge-density along one line, spin component           1
         0         1         2         3         4         5         6         7         8         9
[...]
 -0.000   0.000  -0.000  -0.000  -0.000  -0.000  -0.000   0.000  -0.000   0.000  -0.000  -0.000  -0.000   0.000  -0.000  -0.000
  0.000   0.000  -0.000   0.000   0.000  -0.000   0.000   0.000  -0.000  -0.000  -0.000   0.000   0.000  -0.000   0.000   0.000
  0.000  -0.000  -0.000   0.000  -0.000  -0.000  -0.000   0.000  -0.000  -0.000   0.000   0.000   0.000   0.000   0.000  -0.000
  0.000  -0.000   0.000   0.000  -0.000  -0.000  -0.000   0.000  -0.000  -0.000   0.000   0.000  -0.000   0.000   0.000  -0.000
  0.000  -0.000   0.000  -0.000   0.000   0.000   0.000   0.000   0.000   0.000  -0.000   0.000   0.000  -0.000  -0.000   0.000
  0.000  -0.000  -0.000   0.000  -0.000   0.000   0.000   0.000   0.000  -0.000   0.000   0.000   0.000  -0.000   0.000   0.000
 -0.000   0.000   0.000  -0.000  -0.000   0.000   0.000  -0.000  -0.000  -0.000   0.000  -0.000  -0.000   0.000   0.000  -0.000
  0.000  -0.000  -0.000   0.000   0.000  -0.000   0.000  -0.000  -0.000  -0.000   0.000  -0.000   0.000   0.000   0.000  -0.000
  0.000  -0.000  -0.000   0.000   0.000  -0.000   0.000  -0.000  -0.000  -0.000   0.000  -0.000   0.000   0.000  -0.000  -0.000


------------------------ aborting loop because EDIFF is reached ----------------------------------------


 


 total charge     
 
# of ion       s       p       d       tot
------------------------------------------
    1        0.317   6.456   1.778   8.551
    2        0.319   6.461   1.764   8.544
    3        0.317   6.476   1.815   8.608
    4        0.318   6.450   1.727   8.495
    5        0.318   6.450   1.727   8.495
    6        0.319   6.461   1.764   8.544
    7        0.317   6.476   1.815   8.608
    8        0.317   6.456   1.778   8.551
    9        1.568   3.462   0.000   5.030
   10        1.568   3.462   0.000   5.030
   11        1.570   3.467   0.000   5.037
   12        1.573   3.455   0.000   5.027
   13        1.569   3.468   0.000   5.037
   14        1.569   3.468   0.000   5.037
   15        1.573   3.455   0.000   5.027
   16        1.570   3.467   0.000   5.037
   17        1.728   4.368   0.000   6.097
   18        1.730   4.391   0.000   6.122
   19        1.730   4.391   0.000   6.121
   20        1.730   4.391   0.000   6.122
   21        1.730   4.391   0.000   6.121
   22        1.728   4.368   0.000   6.097
   23        1.731   4.393   0.000   6.124
   24        1.729   4.372   0.000   6.101
   25        1.731   4.393   0.000   6.123
   26        1.729   4.378   0.000   6.108
   27        1.729   4.374   0.000   6.102
   28        1.729   4.374   0.000   6.102
   29        1.729   4.378   0.000   6.108
   30        1.729   4.372   0.000   6.101
   31        1.731   4.393   0.000   6.123
   32        1.731   4.393   0.000   6.124
--------------------------------------------------
tot         42.773 149.510  14.170 206.454
 


 magnetization (x)
 
# of ion       s       p       d       tot
------------------------------------------
    1       -0.000  -0.000  -0.000  -0.000
    2       -0.000   0.000  -0.000  -0.000
    3       -0.000  -0.000  -0.000  -0.000
    4       -0.000   0.000  -0.000  -0.000
    5       -0.000   0.000   0.000   0.000
    6       -0.000  -0.000  -0.000  -0.000
    7        0.000  -0.000   0.000   0.000
    8        0.000   0.000  -0.000  -0.000
    9       -0.000   0.000   0.000  -0.000
   10        0.000   0.000   0.000   0.000
   11        0.000   0.000   0.000   0.000
   12        0.000  -0.000   0.000  -0.000
   13        0.000  -0.000   0.000  -0.000
   14       -0.000   0.000   0.000   0.000
   15       -0.000   0.000   0.000   0.000
   16       -0.000   0.000   0.000   0.000
   17       -0.000   0.000   0.000   0.000
   18        0.000  -0.000   0.000  -0.000
   19        0.000  -0.000   0.000  -0.000
   20        0.000  -0.000   0.000  -0.000
   21       -0.000  -0.000   0.000  -0.000
   22       -0.000   0.000   0.000   0.000
   23        0.000   0.000   0.000   0.000
   24       -0.000   0.000   0.000   0.000
   25       -0.000  -0.000   0.000  -0.000
   26        0.000   0.000   0.000   0.000
   27        0.000   0.000   0.000   0.000
   28       -0.000  -0.000   0.000  -0.000
   29        0.000   0.000   0.000   0.000
   30       -0.000   0.000   0.000  -0.000
   31       -0.000  -0.000   0.000  -0.000
   32        0.000  -0.000   0.000   0.000
--------------------------------------------------
tot         -0.000  -0.000  -0.000  -0.000
 
    CHARGE:  cpu time    0.4169: real time    0.4153
    FORLOC:  cpu time    0.0110: real time    0.0100
    FORNL :  cpu time    2.0747: real time    2.0652
    STRESS:  cpu time    6.4800: real time    6.4459
    FORCOR:  cpu time    0.1320: real time    0.1315
    FORHAR:  cpu time    0.0230: real time    0.0237
    MIXING:  cpu time    0.0020: real time    0.0016
    OFIELD:  cpu time    0.0000: real time    0.0000

  FORCE on cell =-STRESS in cart. coord.  units (eV):
  Direction    XX          YY          ZZ          XY          YZ          ZX
  --------------------------------------------------------------------------------------
  Alpha Z   759.30447   759.30447   759.30447
  Ewald   -4280.36409 -4262.83229 -4262.83032    -3.91710    10.31537    -3.91748
  Hartree  2740.07375  2747.47159  2747.47227    -1.22267     2.56354    -1.22283
  E(xc)   -1232.32799 -1232.47129 -1232.47129     0.02488    -0.01729     0.02488
  Local   -2129.72610 -2168.69123 -2168.69370     6.04307   -13.34708     6.04360
  n-local  -969.26977  -967.11298  -967.11294    -0.53490     0.28691    -0.53470
  augment   753.31770   758.45731   758.45730    -0.52206     0.39506    -0.52227
  Kinetic  4358.98513  4365.87793  4365.87795     0.13360    -0.20035     0.13362
  Fock        0.00000     0.00000     0.00000     0.00000     0.00000     0.00000
  -------------------------------------------------------------------------------------
  Total      -0.00690     0.00352     0.00375     0.00482    -0.00382     0.00483
  in kB      -0.02398     0.01221     0.01302     0.01676    -0.01328     0.01679
  external pressure =        0.00 kB  Pullay stress =        0.00 kB


 VOLUME and BASIS-vectors are now :
 -----------------------------------------------------------------------------
  energy-cutoff  :      700.00
  volume of cell :      461.17
      direct lattice vectors                 reciprocal lattice vectors
     7.763214166  0.000949592  0.000949413     0.128812629 -0.000015753 -0.000015745
     0.000941944  7.707408882 -0.005019470    -0.000015881  0.129745347  0.000084499
     0.000941480 -0.005019457  7.707408486    -0.000015878  0.000084499  0.129745354

  length of vectors
     7.763214282  7.707410574  7.707410178     0.128812631  0.129745375  0.129745382


 FORCES acting on ions
    electron-ion (+dipol)            ewald-force                    non-local-force                 convergence-correction
 -----------------------------------------------------------------------------------------------
   0.107E+02 -.367E+01 0.180E+02   -.117E+02 0.366E+01 -.190E+02   0.992E+00 -.121E-02 0.997E+00   -.248E-02 0.940E-03 0.148E-02
   -.567E+00 0.730E+00 -.158E+02   0.556E+00 -.170E+01 0.168E+02   0.836E-02 0.966E+00 -.104E+01   0.114E-03 0.334E-02 -.189E-02
   0.274E+01 0.412E+01 0.282E+02   -.270E+01 -.411E+01 -.280E+02   -.414E-01 -.137E-01 -.149E+00   -.101E-03 -.102E-02 -.168E-02
   -.801E+01 0.191E+01 -.301E+02   0.905E+01 -.878E+00 0.309E+02   -.105E+01 -.102E+01 -.744E+00   0.239E-02 -.349E-02 0.106E-02
   -.801E+01 -.301E+02 0.191E+01   0.905E+01 0.309E+02 -.878E+00   -.105E+01 -.744E+00 -.102E+01   0.241E-02 0.989E-03 -.348E-02
   -.569E+00 -.158E+02 0.730E+00   0.558E+00 0.168E+02 -.170E+01   0.838E-02 -.104E+01 0.966E+00   0.118E-03 -.191E-02 0.333E-02
   0.274E+01 0.282E+02 0.412E+01   -.270E+01 -.280E+02 -.411E+01   -.414E-01 -.149E+00 -.137E-01   -.966E-04 -.159E-02 -.102E-02
   0.107E+02 0.180E+02 -.367E+01   -.117E+02 -.190E+02 0.366E+01   0.992E+00 0.997E+00 -.121E-02   -.246E-02 0.150E-02 0.946E-03
   0.194E+02 0.279E+01 -.316E+01   -.209E+02 -.264E+01 0.282E+01   0.146E+01 -.148E+00 0.332E+00   0.392E-03 -.586E-03 0.407E-03
   0.194E+02 -.316E+01 0.279E+01   -.209E+02 0.282E+01 -.264E+01   0.146E+01 0.332E+00 -.148E+00   0.421E-03 0.393E-03 -.590E-03
   0.656E+01 0.133E+02 0.496E+01   -.763E+01 -.142E+02 -.658E+01   0.107E+01 0.857E+00 0.162E+01   0.299E-03 0.698E-02 0.455E-03
   0.563E+01 0.787E+02 0.109E+02   -.649E+01 -.859E+02 -.119E+02   0.859E+00 0.719E+01 0.104E+01   0.123E-03 0.206E-02 -.973E-03
   -.911E+01 0.600E+01 -.128E+02   0.106E+02 -.664E+01 0.142E+02   -.145E+01 0.650E+00 -.138E+01   -.344E-03 -.588E-02 0.492E-03
   -.911E+01 -.128E+02 0.600E+01   0.106E+02 0.142E+02 -.664E+01   -.145E+01 -.138E+01 0.650E+00   -.348E-03 0.491E-03 -.587E-02
   0.563E+01 0.109E+02 0.787E+02   -.649E+01 -.119E+02 -.859E+02   0.859E+00 0.104E+01 0.719E+01   0.119E-03 -.972E-03 0.196E-02
   0.656E+01 0.496E+01 0.133E+02   -.763E+01 -.658E+01 -.142E+02   0.107E+01 0.162E+01 0.857E+00   0.301E-03 0.440E-03 0.703E-02
   -.991E+01 -.527E+01 0.450E+01   0.969E+01 0.489E+01 -.442E+01   0.223E+00 0.375E+00 -.827E-01   -.537E-03 0.658E-03 -.602E-03
   0.167E+00 -.485E+01 -.500E+01   -.120E+00 0.507E+01 0.523E+01   -.502E-01 -.221E+00 -.235E+00   -.849E-04 0.461E-03 0.435E-03
   -.580E+00 -.570E+01 -.685E+01   0.363E+00 0.857E+01 0.970E+01   0.218E+00 -.287E+01 -.286E+01   0.133E-03 -.924E-03 -.807E-03
   0.167E+00 -.500E+01 -.485E+01   -.120E+00 0.523E+01 0.507E+01   -.501E-01 -.235E+00 -.221E+00   -.104E-03 0.432E-03 0.464E-03
   -.579E+00 -.684E+01 -.570E+01   0.363E+00 0.970E+01 0.857E+01   0.218E+00 -.286E+01 -.287E+01   0.366E-04 -.797E-03 -.934E-03
   -.991E+01 0.450E+01 -.527E+01   0.969E+01 -.442E+01 0.489E+01   0.223E+00 -.826E-01 0.375E+00   -.508E-03 -.598E-03 0.674E-03
   -.113E+02 0.285E+02 -.146E+02   0.138E+02 -.312E+02 0.203E+02   -.248E+01 0.268E+01 -.563E+01   -.166E-03 0.147E-02 -.525E-03
   0.628E+01 -.800E+01 -.233E+01   -.757E+01 0.781E+01 0.629E+00   0.129E+01 0.193E+00 0.171E+01   0.376E-03 -.569E-02 0.661E-03
   -.900E+01 -.285E+02 -.208E+02   0.113E+02 0.311E+02 0.268E+02   -.231E+01 -.264E+01 -.598E+01   -.292E-03 -.143E-02 -.325E-03
   0.575E+01 -.272E+02 0.834E+01   -.703E+01 0.260E+02 -.972E+01   0.127E+01 0.118E+01 0.137E+01   0.280E-03 -.193E-02 -.990E-03
   -.719E+01 -.299E+01 -.802E+01   0.877E+01 0.295E+01 0.945E+01   -.158E+01 0.343E-01 -.143E+01   -.325E-03 0.539E-02 0.529E-03
   -.719E+01 -.802E+01 -.299E+01   0.877E+01 0.945E+01 0.295E+01   -.158E+01 -.143E+01 0.343E-01   -.329E-03 0.528E-03 0.538E-02
   0.576E+01 0.834E+01 -.272E+02   -.703E+01 -.972E+01 0.260E+02   0.127E+01 0.137E+01 0.118E+01   0.276E-03 -.988E-03 -.186E-02
   0.628E+01 -.233E+01 -.800E+01   -.757E+01 0.629E+00 0.781E+01   0.129E+01 0.171E+01 0.193E+00   0.379E-03 0.643E-03 -.573E-02
   -.900E+01 -.208E+02 -.285E+02   0.113E+02 0.268E+02 0.311E+02   -.231E+01 -.598E+01 -.264E+01   -.290E-03 -.317E-03 -.148E-02
   -.113E+02 -.146E+02 0.285E+02   0.138E+02 0.203E+02 -.312E+02   -.248E+01 -.563E+01 0.268E+01   -.163E-03 -.516E-03 0.152E-02
 -----------------------------------------------------------------------------------------------
   0.312E+01 0.526E+01 0.526E+01   -.373E-13 0.782E-13 0.853E-13   -.312E+01 -.526E+01 -.526E+01   -.462E-03 -.192E-02 -.194E-02
 
 
 POSITION                                       TOTAL-FORCE (eV/Angst)
 -----------------------------------------------------------------------------------
      7.64720     -0.00107      7.61224         0.000522     -0.004266      0.000366
      0.00277      7.59489      3.94541        -0.002386     -0.000871      0.001864
      7.76380      3.85252      7.55604         0.002055     -0.002810      0.005968
      0.08459      3.93732      3.86325        -0.003085      0.000689      0.000891
      3.96525      0.01253      0.08660        -0.003079      0.000920      0.000673
      3.88344      0.09469      3.74417        -0.002378      0.001872     -0.000881
      3.88125      3.70438      0.00085         0.002060      0.005869     -0.002810
      3.76559      3.75555      3.85467         0.000546      0.000349     -0.004268
      1.94774      3.84837      3.84071         0.000056      0.000965     -0.001821
      5.83029      7.69238      7.70004         0.000077     -0.001826      0.000970
      7.75116      5.78049      3.82669        -0.002191     -0.000809      0.000474
      3.86930      1.96029      7.68737         0.001184      0.000943      0.003086
      3.89468      1.93516      3.86886        -0.000709      0.002920     -0.003076
      0.01308      0.01217      5.79090        -0.000710     -0.003077      0.002908
      7.75091      3.83163      5.81698         0.001184      0.003089      0.000843
      3.86954      7.68243      1.92380        -0.002161      0.000458     -0.000766
      1.92986      7.69015     -0.00418         0.000494     -0.003613      0.000328
      1.94218      0.00004      3.85685        -0.002757      0.002694      0.000654
      1.94256      3.88929      0.03342         0.001839     -0.002612     -0.001850
      5.82379      0.00111      3.85673        -0.002765      0.000647      0.002688
      5.82417      3.89010      0.03355         0.001814     -0.001848     -0.002614
      5.81146      3.85251      3.83441         0.000510      0.000335     -0.003609
      0.04114      1.95221      0.08268         0.007415     -0.003671     -0.002644
      7.73179      1.91622      3.80885        -0.003239     -0.000774      0.001973
      0.03595      5.76119      0.09157         0.005080     -0.003109      0.005433
      3.85886      5.72875      7.67618        -0.004055      0.002853     -0.005292
      3.91400      5.77971      3.88005        -0.000261      0.002220      0.002988
      0.03145      0.02838      1.92804        -0.000261      0.002989      0.002218
      7.73953      3.82546      1.87803        -0.004054     -0.005292      0.002877
      3.85112      7.65957      5.76694        -0.003241      0.001968     -0.000792
      3.91756      3.94826      1.90545         0.005080      0.005437     -0.003115
      3.92369      3.93435      5.80388         0.007415     -0.002640     -0.003664
 -----------------------------------------------------------------------------------
    total drift:                               -0.003047     -0.002410     -0.002404


--------------------------------------------------------------------------------------------------------



  FREE ENERGIE OF THE ION-ELECTRON SYSTEM (eV)
  ---------------------------------------------------
  free  energy   TOTEN  =      -213.24296821 eV

  energy  without entropy=     -213.24296821  energy(sigma->0) =     -213.24296821
 


--------------------------------------------------------------------------------------------------------


    POTLOK:  cpu time    0.9948: real time    0.9930


--------------------------------------------------------------------------------------------------------


 stress matrix after NEB project (eV)
     -0.00690      0.00482      0.00483
      0.00482      0.00352     -0.00382
      0.00483     -0.00382      0.00375
  FORCES: max atom, RMS     0.008686    0.004942
  FORCE total and by dimension    0.027958    0.007415
  Stress total and by dimension    0.014017    0.006901
 Quasi-Newton relaxation of ions (Broydens 2nd method)
  g(Force)  = 0.377E-04   g(Stress)= 0.296E-06

 Reset! Starting new Quasi-Newton update for ions 


--------------------------------------------------------------------------------------------------------


  
 reached required accuracy - stopping structural energy minimisation
 writing wavefunctions
     LOOP+:  cpu time   29.8435: real time   32.0762
    4ORBIT:  cpu time    0.0000: real time    0.0000
 


 total charge     
 
# of ion       s       p       d       tot
------------------------------------------
    1        0.317   6.456   1.778   8.551
    2        0.319   6.461   1.764   8.544
    3        0.317   6.476   1.815   8.608
    4        0.318   6.450   1.727   8.495
    5        0.318   6.450   1.727   8.495
    6        0.319   6.461   1.764   8.544
    7        0.317   6.476   1.815   8.608
    8        0.317   6.456   1.778   8.551
    9        1.568   3.462   0.000   5.030
   10        1.568   3.462   0.000   5.030
   11        1.570   3.467   0.000   5.037
   12        1.573   3.455   0.000   5.027
   13        1.569   3.468   0.000   5.037
   14        1.569   3.468   0.000   5.037
   15        1.573   3.455   0.000   5.027
   16        1.570   3.467   0.000   5.037
   17        1.728   4.368   0.000   6.097
   18        1.730   4.391   0.000   6.122
   19        1.730   4.391   0.000   6.121
   20        1.730   4.391   0.000   6.122
   21        1.730   4.391   0.000   6.121
   22        1.728   4.368   0.000   6.097
   23        1.731   4.393   0.000   6.124
   24        1.729   4.372   0.000   6.101
   25        1.731   4.393   0.000   6.123
   26        1.729   4.378   0.000   6.108
   27        1.729   4.374   0.000   6.102
   28        1.729   4.374   0.000   6.102
   29        1.729   4.378   0.000   6.108
   30        1.729   4.372   0.000   6.101
   31        1.731   4.393   0.000   6.123
   32        1.731   4.393   0.000   6.124
--------------------------------------------------
tot         42.773 149.510  14.170 206.454
 


 magnetization (x)
 
# of ion       s       p       d       tot
------------------------------------------
    1       -0.000  -0.000  -0.000  -0.000
    2       -0.000   0.000  -0.000  -0.000
    3       -0.000  -0.000  -0.000  -0.000
    4       -0.000   0.000  -0.000  -0.000
    5       -0.000   0.000   0.000   0.000
    6       -0.000  -0.000  -0.000  -0.000
    7        0.000  -0.000   0.000   0.000
    8        0.000   0.000  -0.000  -0.000
    9       -0.000   0.000   0.000  -0.000
   10        0.000   0.000   0.000   0.000
   11        0.000   0.000   0.000   0.000
   12        0.000  -0.000   0.000  -0.000
   13        0.000  -0.000   0.000  -0.000
   14       -0.000   0.000   0.000   0.000
   15       -0.000   0.000   0.000   0.000
   16       -0.000   0.000   0.000   0.000
   17       -0.000   0.000   0.000   0.000
   18        0.000  -0.000   0.000  -0.000
   19        0.000  -0.000   0.000  -0.000
   20        0.000  -0.000   0.000  -0.000
   21       -0.000  -0.000   0.000  -0.000
   22       -0.000   0.000   0.000   0.000
   23        0.000   0.000   0.000   0.000
   24       -0.000   0.000   0.000   0.000
   25       -0.000  -0.000   0.000  -0.000
   26        0.000   0.000   0.000   0.000
   27        0.000   0.000   0.000   0.000
   28       -0.000  -0.000   0.000  -0.000
   29        0.000   0.000   0.000   0.000
   30       -0.000   0.000   0.000  -0.000
   31       -0.000  -0.000   0.000  -0.000
   32        0.000  -0.000   0.000   0.000
--------------------------------------------------
tot         -0.000  -0.000  -0.000  -0.000
 

 total amount of memory used by VASP MPI-rank0    62260. kBytes
=======================================================================

   base      :      30000. kBytes
   nonlr-proj:       8603. kBytes
   fftplans  :       8422. kBytes
   grid      :       8783. kBytes
   one-center:        124. kBytes
   wavefun   :       6328. kBytes
 
  
  
 General timing and accounting informations for this job:
 ========================================================
  
                  Total CPU time used (sec):       70.868
                            User time (sec):       57.354
                          System time (sec):       13.514
                         Elapsed time (sec):      160.014
  
                   Maximum memory used (kb):      174696.
                   Average memory used (kb):           0.
  
                          Minor page faults:        86440
                          Major page faults:           17
                 Voluntary context switches:        17866
