 vasp.5.4.4.18Apr17-6-g9f103f2a35 (build Apr 30 2017 20:10:35) complex          
  
 executed on             LinuxIFC date 2017.08.04  09:04:15
 running on   64 total cores
 distrk:  each k-point on   64 cores,    1 groups
 distr:  one band on NCORES_PER_BAND=   8 cores,    8 groups


--------------------------------------------------------------------------------------------------------


 INCAR:
 POTCAR:   PAW_PBE Ti_pv 07Sep2000                
 POTCAR:   PAW_PBE O 08Apr2002                    
 POTCAR:    PAW_PBE F 08Apr2002                   
 POTCAR:   PAW_PBE Ti_pv 07Sep2000                
   VRHFIN =Ti: d3 s1                                                            
   LEXCH  = PE                                                                  
   EATOM  =  1042.3781 eV,   76.6126 Ry                                         
                                                                                
   TITEL  = PAW_PBE Ti_pv 07Sep2000                                             
   LULTRA =        F    use ultrasoft PP ?                                      
   IUNSCR =        1    unscreen: 0-lin 1-nonlin 2-no                           
   RPACOR =    2.200    partial core radius                                     
   POMASS =   47.880; ZVAL   =   10.000    mass and valenz                      
   RCORE  =    2.500    outmost cutoff radius                                   
   RWIGS  =    2.500; RWIGS  =    1.323    wigner-seitz radius (au A)           
   ENMAX  =  222.338; ENMIN  =  166.753 eV                                      
   RCLOC  =    1.701    cutoff for local pot                                    
   LCOR   =        T    correct aug charges                                     
   LPAW   =        T    paw PP                                                  
   EAUG   =  482.848                                                            
   DEXC   =    -.008                                                            
   RMAX   =    3.092    core radius for proj-oper                               
   RAUG   =    1.300    factor for augmentation sphere                          
   RDEP   =    2.538    radius for radial grids                                 
   QCUT   =   -4.042; QGAM   =    8.085    optimization parameters              
                                                                                
   Description                                                                  
     l     E      TYP  RCUT    TYP  RCUT                                        
     1   .000     23  2.300                                                     
     1  -.100     23  2.300                                                     
     2   .000     23  2.500                                                     
     2   .000     23  2.500                                                     
     0   .000     23  2.500                                                     
     0  1.500     23  2.500                                                     
     3   .000      7   .000                                                     
  local pseudopotential read in
  partial core-charges read in
  atomic valenz-charges read in
  non local Contribution for L=           1  read in
    real space projection operators read in
  non local Contribution for L=           1  read in
    real space projection operators read in
  non local Contribution for L=           2  read in
    real space projection operators read in
  non local Contribution for L=           2  read in
    real space projection operators read in
  non local Contribution for L=           0  read in
    real space projection operators read in
  non local Contribution for L=           0  read in
    real space projection operators read in
    PAW grid and wavefunctions read in
 
   number of l-projection  operators is LMAX  =           6
   number of lm-projection operators is LMMAX =          18
 
 POTCAR:   PAW_PBE O 08Apr2002                    
   VRHFIN =O: s2p4                                                              
   LEXCH  = PE                                                                  
   EATOM  =   432.3788 eV,   31.7789 Ry                                         
                                                                                
   TITEL  = PAW_PBE O 08Apr2002                                                 
   LULTRA =        F    use ultrasoft PP ?                                      
   IUNSCR =        0    unscreen: 0-lin 1-nonlin 2-no                           
   RPACOR =     .000    partial core radius                                     
   POMASS =   16.000; ZVAL   =    6.000    mass and valenz                      
   RCORE  =    1.520    outmost cutoff radius                                   
   RWIGS  =    1.550; RWIGS  =     .820    wigner-seitz radius (au A)           
   ENMAX  =  400.000; ENMIN  =  300.000 eV                                      
   ICORE  =        2    local potential                                         
   LCOR   =        T    correct aug charges                                     
   LPAW   =        T    paw PP                                                  
   EAUG   =  605.392                                                            
   DEXC   =     .000                                                            
   RMAX   =    2.264    core radius for proj-oper                               
   RAUG   =    1.300    factor for augmentation sphere                          
   RDEP   =    1.550    radius for radial grids                                 
   QCUT   =   -5.520; QGAM   =   11.041    optimization parameters              
                                                                                
   Description                                                                  
     l     E      TYP  RCUT    TYP  RCUT                                        
     0   .000     23  1.200                                                     
     0  -.700     23  1.200                                                     
     1   .000     23  1.520                                                     
     1   .600     23  1.520                                                     
     2   .000      7  1.500                                                     
  local pseudopotential read in
  atomic valenz-charges read in
  non local Contribution for L=           0  read in
    real space projection operators read in
  non local Contribution for L=           0  read in
    real space projection operators read in
  non local Contribution for L=           1  read in
    real space projection operators read in
  non local Contribution for L=           1  read in
    real space projection operators read in
    PAW grid and wavefunctions read in
 
   number of l-projection  operators is LMAX  =           4
   number of lm-projection operators is LMMAX =           8
 
 POTCAR:    PAW_PBE F 08Apr2002                   
   VRHFIN =F: s2p5                                                              
   LEXCH  = PE                                                                  
   EATOM  =   659.6475 eV,   48.4827 Ry                                         
                                                                                
   TITEL  = PAW_PBE F 08Apr2002                                                 
   LULTRA =        F    use ultrasoft PP ?                                      
   IUNSCR =        1    unscreen: 0-lin 1-nonlin 2-no                           
   RPACOR =    1.200    partial core radius                                     
   POMASS =   18.998; ZVAL   =    7.000    mass and valenz                      
   RCORE  =    1.520    outmost cutoff radius                                   
   RWIGS  =    1.500; RWIGS  =    0.794    wigner-seitz radius (au A)           
   ENMAX  =  400.000; ENMIN  =  300.000 eV                                      
   ICORE  =        2    local potential                                         
   LCOR   =        T    correct aug charges                                     
   LPAW   =        T    paw PP                                                  
   EAUG   =  613.614                                                            
   RMAX   =    1.555    core radius for proj-oper                               
   RAUG   =    1.300    factor for augmentation sphere                          
   RDEP   =    1.539    radius for radial grids                                 
   RDEPT  =    1.299    core radius for aug-charge                              
                                                                                
   Atomic configuration                                                         
    4 entries                                                                   
     n  l   j            E        occ.                                          
     1  0  0.50      -663.3661   2.0000                                         
     2  0  0.50       -29.8995   2.0000                                         
     2  1  0.50       -11.1114   5.0000                                         
     3  2  1.50       -10.8847   0.0000                                         
   Description                                                                  
     l       E           TYP  RCUT    TYP  RCUT                                 
     0    -29.8995018     23  1.200                                             
     0     -9.5240782     23  1.200                                             
     1    -11.1113914     23  1.520                                             
     1      1.3605826     23  1.520                                             
     2    -10.8846608      7  1.500                                             
  local pseudopotential read in
  partial core-charges read in
  partial kinetic energy density read in
  atomic valenz-charges read in
  non local Contribution for L=           0  read in
    real space projection operators read in
  non local Contribution for L=           0  read in
    real space projection operators read in
  non local Contribution for L=           1  read in
    real space projection operators read in
  non local Contribution for L=           1  read in
    real space projection operators read in
    PAW grid and wavefunctions read in
 
   number of l-projection  operators is LMAX  =           4
   number of lm-projection operators is LMMAX =           8
 
 Optimization of the real space projectors (new method)

 maximal supplied QI-value         = 15.12
 optimisation between [QCUT,QGAM] = [ 13.45, 27.06] = [ 50.69,205.06] Ry 
 Optimized for a Real-space Cutoff    1.49 Angstroem

   l    n(q)    QCUT    max X(q) W(low)/X(q) W(high)/X(q)  e(spline) 
   1     12    13.455     4.841    0.13E-05    0.83E-06    0.56E-07
   1     12    13.455     5.701    0.32E-04    0.25E-04    0.17E-06
   2     11    13.455     4.569    0.64E-05    0.34E-05    0.50E-07
   2     11    13.455    32.276    0.49E-04    0.38E-04    0.46E-06
   0     12    13.455    30.046    0.17E-04    0.41E-05    0.51E-07
   0     12    13.455    45.433    0.12E-04    0.27E-04    0.38E-06
 Optimization of the real space projectors (new method)

 maximal supplied QI-value         = 24.76
 optimisation between [QCUT,QGAM] = [ 13.37, 26.98] = [ 50.04,203.89] Ry 
 Optimized for a Real-space Cutoff    1.17 Angstroem

   l    n(q)    QCUT    max X(q) W(low)/X(q) W(high)/X(q)  e(spline) 
   0      9    13.368     4.192    0.20E-04    0.58E-05    0.56E-07
   0      9    13.368     8.473    0.60E-04    0.52E-04    0.21E-06
   1      9    13.368     2.474    0.22E-04    0.17E-04    0.28E-07
   1      9    13.368     3.912    0.94E-04    0.97E-04    0.20E-06
 Optimization of the real space projectors (new method)

 maximal supplied QI-value         = 24.76
 optimisation between [QCUT,QGAM] = [ 13.37, 26.98] = [ 50.04,203.89] Ry 
 Optimized for a Real-space Cutoff    1.17 Angstroem

   l    n(q)    QCUT    max X(q) W(low)/X(q) W(high)/X(q)  e(spline) 
   0      9    13.368    14.049    0.39E-04    0.34E-04    0.16E-06
   0      9    13.368     8.945    0.54E-04    0.47E-04    0.20E-06
   1      9    13.368     7.086    0.99E-04    0.10E-03    0.23E-06
   1      9    13.368     6.747    0.86E-04    0.89E-04    0.21E-06

 ----------------------------------------------------------------------------- 
|                                                                             |
|  ADVICE TO THIS USER RUNNING 'VASP/VAMP'   (HEAR YOUR MASTER'S VOICE ...):  |
|                                                                             |
|      You enforced a specific xc-type in the INCAR file,                     |
|      a different type was found on the POTCAR file                          |
|          I HOPE YOU KNOW, WHAT YOU ARE  DOING                               |
|                                                                             |
 ----------------------------------------------------------------------------- 

 PAW_PBE Ti_pv 07Sep2000                :
 energy of atom  1       EATOM=-1042.3781
 kinetic energy error for atom=    0.0006 (will be added to EATOM!!)
 PAW_PBE O 08Apr2002                    :
 energy of atom  2       EATOM= -432.3788
 kinetic energy error for atom=    0.0091 (will be added to EATOM!!)
  PAW_PBE F 08Apr2002                   :
 energy of atom  3       EATOM= -659.6475
 kinetic energy error for atom=    0.0140 (will be added to EATOM!!)
 
 
 POSCAR: TiOF2 2x2x2 config 1788                 
  positions in direct lattice
  velocities in cartesian coordinates
 exchange correlation table for  LEXCH =       14
   RHO(1)=    0.500       N(1)  =     2000
   RHO(2)=  100.500       N(2)  =     4000

 VTST: version 3.1, (03/28/14)

 CHAIN: initializing optimizer
 
 OPT: Using VASP QUASI-newton optimizer
 CHAIN: Read ICHAIN            0
 
 POSCAR: TiOF2 2x2x2 config 1788                 
  positions in direct lattice
  velocities in cartesian coordinates
 


--------------------------------------------------------------------------------------------------------


 ion  position               nearest neighbor table
   1  0.000  0.000  0.975-  14 1.72  23 1.92  25 1.92  17 1.95  21 1.96  28 2.04
   2  0.983  0.994  0.499-   9 1.80  11 1.90  14 1.98  24 2.00  28 2.02  18 2.05
   3  0.997  0.500  0.020-  15 1.76  23 1.93  25 1.94  10 1.94  19 2.00  29 2.05
   4  0.001  0.518  0.496-  11 1.77  15 1.92  20 1.93  22 1.94  29 2.02  24 2.03
   5  0.499  1.000  0.021-  16 1.72  26 1.94  27 1.94  17 1.95  21 1.96  30 2.02
   6  0.509  0.999  0.500-   9 1.89  13 1.97  12 1.97  16 1.99  30 2.02  18 2.04
   7  0.522  0.500  0.999-  10 1.76  32 1.89  31 1.90  27 1.92  26 1.92  19 2.09
   8  0.499  0.498  0.500-  12 1.87  13 1.88  20 1.96  22 1.97  32 1.98  31 1.99
   9  0.752  0.002  0.498-   2 1.80   6 1.89
  10  0.748  0.500  0.000-   7 1.76   3 1.94
  11  0.001  0.748  0.499-   4 1.77   2 1.90
  12  0.500  0.255  0.500-   8 1.87   6 1.97
  13  0.500  0.743  0.500-   8 1.88   6 1.97
  14  1.000  0.002  0.753-   1 1.72   2 1.98
  15  0.001  0.500  0.248-   3 1.76   4 1.92
  16  0.499  0.999  0.243-   5 1.72   6 1.99
  17  0.249  1.000  0.999-   1 1.95   5 1.95
  18  0.247  0.003  0.499-   6 2.04   2 2.05
  19  0.253  0.500  0.998-   3 2.00   7 2.09
  20  0.247  0.495  0.506-   4 1.93   8 1.96
  21  0.750  1.000  0.999-   1 1.96   5 1.96
  22  0.753  0.493  0.507-   4 1.94   8 1.97
  23  0.004  0.249  0.999-   1 1.92   3 1.93
  24  0.004  0.254  0.499-   2 2.00   4 2.03
  25  0.004  0.751  0.999-   1 1.92   3 1.94
  26  0.495  0.251  0.995-   7 1.92   5 1.94
  27  0.495  0.748  0.995-   7 1.92   5 1.94
  28  0.001  0.003  0.239-   2 2.02   1 2.04
  29  0.002  0.498  0.755-   4 2.02   3 2.05
  30  0.498  0.999  0.761-   5 2.02   6 2.02
  31  0.493  0.500  0.243-   7 1.90   8 1.99
  32  0.494  0.500  0.756-   7 1.89   8 1.98
 

IMPORTANT INFORMATION: All symmetrisations will be switched off!
NOSYMM: (Re-)initialisation of all symmetry stuff for point group C_1.

 
 
 KPOINTS: Title                                   

Automatic generation of k-mesh.
Space group operators:
 irot       det(A)        alpha          n_x          n_y          n_z        tau_x        tau_y        tau_z
    1     1.000000     0.000000     1.000000     0.000000     0.000000     0.000000     0.000000     0.000000
 
 Subroutine IBZKPT returns following result:
 ===========================================
 
 Found      4 irreducible k-points:
 
 Following reciprocal coordinates:
            Coordinates               Weight
  0.250000  0.250000  0.250000      2.000000
 -0.250000  0.250000  0.250000      2.000000
  0.250000 -0.250000  0.250000      2.000000
 -0.250000 -0.250000  0.250000      2.000000
 
 Following cartesian coordinates:
            Coordinates               Weight
  0.032122  0.032532  0.032251      2.000000
 -0.032148  0.032540  0.032268      2.000000
  0.032130 -0.032556  0.032266      2.000000
 -0.032139 -0.032548  0.032284      2.000000
 


--------------------------------------------------------------------------------------------------------




 Dimension of arrays:
   k-points           NKPTS =      4   k-points in BZ     NKDIM =      4   number of bands    NBANDS=    160
   number of dos      NEDOS =   3001   number of ions     NIONS =     32
   non local maximal  LDIM  =      6   non local SUM 2l+1 LMDIM =     18
   total plane-waves  NPLWV = 343000
   max r-space proj   IRMAX =  10271   max aug-charges    IRDMAX= 230252
   dimension x,y,z NGX =    70 NGY =   70 NGZ =   70
   dimension x,y,z NGXF=   140 NGYF=  140 NGZF=  140
   support grid    NGXF=   280 NGYF=  280 NGZF=  280
   ions per type =               8   8  16
   NGX,Y,Z   is equivalent  to a cutoff of  14.96, 15.15, 15.02 a.u.
   NGXF,Y,Z  is equivalent  to a cutoff of  29.92, 30.30, 30.04 a.u.

 SYSTEM =  LTO                                     
 POSCAR =  TiOF2 2x2x2 config 1788                 

 Startparameter for this run:
   NWRITE =      2    write-flag & timer
   PREC   = accura    normal or accurate (medium, high low for compatibility)
   ISTART =      1    job   : 0-new  1-cont  2-samecut
   ICHARG =      0    charge: 1-file 2-atom 10-const
   ISPIN  =      2    spin polarized calculation?
   LNONCOLLINEAR =      F non collinear calculations
   LSORBIT =      F    spin-orbit coupling
   INIWAV =      1    electr: 0-lowe 1-rand  2-diag
   LASPH  =      T    aspherical Exc in radial PAW
   METAGGA=      F    non-selfconsistent MetaGGA calc.

 Electronic Relaxation 1
   ENCUT  =  700.0 eV  51.45 Ry    7.17 a.u.  16.78 16.57 16.71*2*pi/ulx,y,z
   ENINI  =  700.0     initial cutoff
   ENAUG  =  613.6 eV  augmentation charge cutoff
   NELM   =     60;   NELMIN=  2; NELMDL=  0     # of ELM steps 
   EDIFF  = 0.1E-05   stopping-criterion for ELM
   LREAL  =      T    real-space projection
   NLSPLINE    = F    spline interpolate recip. space projectors
   LCOMPAT=      F    compatible to vasp.4.4
   GGA_COMPAT  = T    GGA compatible to vasp.4.4-vasp.4.6
   LMAXPAW     = -100 max onsite density
   LMAXMIX     =    4 max onsite mixed and CHGCAR
   VOSKOWN=      0    Vosko Wilk Nusair interpolation
   ROPT   =   -0.00010  -0.00010  -0.00010
 Ionic relaxation
   EDIFFG = -.1E-01   stopping-criterion for IOM
   NSW    =    100    number of steps for IOM
   NBLOCK =      1;   KBLOCK =    100    inner block; outer block 
   IBRION =      1    ionic relax: 0-MD 1-quasi-New 2-CG
   NFREE  =      0    steps in history (QN), initial steepest desc. (CG)
   ISIF   =      3    stress and relaxation
   IWAVPR =     11    prediction:  0-non 1-charg 2-wave 3-comb
   ISYM   =      0    0-nonsym 1-usesym 2-fastsym
   LCORR  =      T    Harris-Foulkes like correction to forces

   POTIM  = 0.5000    time-step for ionic-motion
   TEIN   =    0.0    initial temperature
   TEBEG  =    0.0;   TEEND  =   0.0 temperature during run
   SMASS  =  -3.00    Nose mass-parameter (am)
   estimated Nose-frequenzy (Omega)   =  0.10E-29 period in steps =****** mass=  -0.138E-26a.u.
   SCALEE = 1.0000    scale energy and forces
   NPACO  =    256;   APACO  = 16.0  distance and # of slots for P.C.
   PSTRESS=    0.0 pullay stress

  Mass of Ions in am
   POMASS =  47.88 16.00 19.00
  Ionic Valenz
   ZVAL   =  10.00  6.00  7.00
  Atomic Wigner-Seitz radii
   RWIGS  =  -1.00 -1.00 -1.00
  virtual crystal weights 
   VCA    =   1.00  1.00  1.00
   NELECT =     240.0000    total number of electrons
   NUPDOWN=      -1.0000    fix difference up-down

 DOS related values:
   EMIN   =  10.00;   EMAX   =-10.00  energy-range for DOS
   EFERMI =   0.00
   ISMEAR =     0;   SIGMA  =   0.01  broadening in eV -4-tet -1-fermi 0-gaus

 Electronic relaxation 2 (details)
   IALGO  =     38    algorithm
   LDIAG  =      T    sub-space diagonalisation (order eigenvalues)
   LSUBROT=      F    optimize rotation matrix (better conditioning)
   TURBO    =      0    0=normal 1=particle mesh
   IRESTART =      0    0=no restart 2=restart with 2 vectors
   NREBOOT  =      0    no. of reboots
   NMIN     =      0    reboot dimension
   EREF     =   0.00    reference energy to select bands
   IMIX   =      4    mixing-type and parameters
     AMIX     =   0.40;   BMIX     =  1.00
     AMIX_MAG =   1.60;   BMIX_MAG =  1.00
     AMIN     =   0.10
     WC   =   100.;   INIMIX=   1;  MIXPRE=   1;  MAXMIX= -45

 Intra band minimization:
   WEIMIN = 0.0010     energy-eigenvalue tresh-hold
   EBREAK =  0.16E-08  absolut break condition
   DEPER  =   0.30     relativ break condition  

   TIME   =   0.40     timestep for ELM

  volume/ion in A,a.u.               =      14.47        97.65
  Fermi-wavevector in a.u.,A,eV,Ry     =   1.315050  2.485083 23.529307  1.729355
  Thomas-Fermi vector in A             =   2.445259
 
 Write flags
   LWAVE        =      T    write WAVECAR
   LDOWNSAMPLE  =      F    k-point downsampling of WAVECAR
   LCHARG       =      T    write CHGCAR
   LVTOT        =      F    write LOCPOT, total local potential
   LVHAR        =      F    write LOCPOT, Hartree potential only
   LELF         =      F    write electronic localiz. function (ELF)
   LORBIT       =     11    0 simple, 1 ext, 2 COOP (PROOUT), +10 PAW based schemes


 Dipole corrections
   LMONO  =      F    monopole corrections only (constant potential shift)
   LDIPOL =      F    correct potential (dipole corrections)
   IDIPOL =      0    1-x, 2-y, 3-z, 4-all directions 
   EPSILON=  1.0000000 bulk dielectric constant

 LDA+U is selected, type is set to LDAUTYPE =  2
   angular momentum for each species LDAUL =     2   -1   -1
   U (eV)           for each species LDAUU =   4.2  0.0  0.0
   J (eV)           for each species LDAUJ =   0.0  0.0  0.0
 Exchange correlation treatment:
   GGA     =    PS    GGA type
   LEXCH   =    14    internal setting for exchange type
   VOSKOWN=      0    Vosko Wilk Nusair interpolation
   LHFCALC =     F    Hartree Fock is set to
   LHFONE  =     F    Hartree Fock one center treatment
   AEXX    =    0.0000 exact exchange contribution

 Linear response parameters
   LEPSILON=     F    determine dielectric tensor
   LRPA    =     F    only Hartree local field effects (RPA)
   LNABLA  =     F    use nabla operator in PAW spheres
   LVEL    =     F    velocity operator in full k-point grid
   LINTERFAST=   F  fast interpolation
   KINTER  =     0    interpolate to denser k-point grid
   CSHIFT  =0.1000    complex shift for real part using Kramers Kronig
   OMEGAMAX=  -1.0    maximum frequency
   DEG_THRESHOLD= 0.2000000E-02 threshold for treating states as degnerate
   RTIME   =   -0.100 relaxation time in fs
  (WPLASMAI=    0.000 imaginary part of plasma frequency in eV, 0.658/RTIME)
   DFIELD  = 0.0000000 0.0000000 0.0000000 field for delta impulse in time
 
 Orbital magnetization related:
   ORBITALMAG=     F  switch on orbital magnetization
   LCHIMAG   =     F  perturbation theory with respect to B field
   DQ        =  0.001000  dq finite difference perturbation B field
   LLRAUG    =     F  two centre corrections for induced B field



--------------------------------------------------------------------------------------------------------


 quasi-Newton-method for relaxation of ions
 charge density and potential will be updated during run
 spin polarized calculation
 Variant of blocked Davidson
 Davidson routine will perform the subspace rotation
 perform sub-space diagonalisation
    after iterative eigenvector-optimisation
 modified Broyden-mixing scheme, WC =      100.0
 initial mixing is a Kerker type mixing with AMIX =  0.4000 and BMIX =      1.0000
 Hartree-type preconditioning will be used
 using additional bands           40
 real space projection scheme for non local part
 use partial core corrections
 calculate Harris-corrections to forces 
   (improved forces if not selfconsistent)
 use gradient corrections 
 use of overlap-Matrix (Vanderbilt PP)
 Gauss-broadening in eV      SIGMA  =   0.01


--------------------------------------------------------------------------------------------------------


  energy-cutoff  :      700.00
  volume of cell :      463.03
      direct lattice vectors                 reciprocal lattice vectors
     7.779724366  0.001013035  0.002149538     0.128539270 -0.000016419 -0.000034725
     0.000981782  7.681875173  0.001895571    -0.000016942  0.130176559 -0.000031037
     0.002093308  0.001847537  7.747792887    -0.000035658 -0.000031844  0.129069033

  length of vectors
     7.779724729  7.681875469  7.747793390     0.128539276  0.130176564  0.129069042


 
 old parameters found on file WAVECAR:
  energy-cutoff  :      700.00
  volume of cell :      438.28
      direct lattice vectors                 reciprocal lattice vectors
     7.596000000  0.000000000  0.000000000     0.131648236  0.000000000  0.000000000
     0.000000000  7.596000000  0.000000000     0.000000000  0.131648236  0.000000000
     0.000000000  0.000000000  7.596000000     0.000000000  0.000000000  0.131648236

  length of vectors

 
 k-points in units of 2pi/SCALE and weight: Title                                   
   0.03212167  0.03253207  0.03225082       0.250
  -0.03214797  0.03254028  0.03226818       0.250
   0.03213014 -0.03255621  0.03226634       0.250
  -0.03213950 -0.03254800  0.03228370       0.250
 
 k-points in reciprocal lattice and weights: Title                                   
   0.25000000  0.25000000  0.25000000       0.250
  -0.25000000  0.25000000  0.25000000       0.250
   0.25000000 -0.25000000  0.25000000       0.250
  -0.25000000 -0.25000000  0.25000000       0.250
 
 position of ions in fractional coordinates (direct lattice) 
   0.00025628  0.00031804  0.97547632
   0.98325960  0.99446371  0.49852990
   0.99697257  0.49971459  0.02045925
   0.00067010  0.51761891  0.49559277
   0.49884484  0.99973865  0.02091904
   0.50882277  0.99883632  0.49951287
   0.52187275  0.49978343  0.99884370
   0.49921898  0.49815818  0.50013615
   0.75215689  0.00183023  0.49840449
   0.74846992  0.50000388  0.00005300
   0.00127887  0.74815959  0.49889524
   0.49991891  0.25506253  0.50040999
   0.50022021  0.74295370  0.50042774
   0.99959067  0.00193783  0.75285766
   0.00118487  0.49951454  0.24808642
   0.49920322  0.99935953  0.24278393
   0.24929436  0.99959416  0.99921156
   0.24689679  0.00250522  0.49859495
   0.25271987  0.50014259  0.99819444
   0.24749034  0.49464146  0.50553529
   0.74981172  0.99963725  0.99925618
   0.75265481  0.49346586  0.50654687
   0.00411460  0.24923081  0.99949632
   0.00392604  0.25359024  0.49923854
   0.00384419  0.75091886  0.99919869
   0.49466030  0.25114428  0.99476728
   0.49463280  0.74834473  0.99467537
   0.00127099  0.00322848  0.23906567
   0.00232569  0.49762727  0.75540190
   0.49814081  0.99941208  0.76062595
   0.49265054  0.49954298  0.24284750
   0.49362470  0.49952004  0.75595502
 
 position of ions in cartesian coordinates  (Angst):
   0.00403607  0.00424567  7.55778964
   7.65150862  7.64126321  3.86650503
   7.75670526  3.83979288  0.16160428
   0.00675883  3.97720017  3.84073277
   3.88190070  7.68041150  0.16504373
   3.96052720  7.67437429  3.87310939
   4.06260770  3.84164803  7.74090328
   3.88532207  3.82821874  3.87696870
   5.85261842  0.01574239  3.86315503
   5.82338068  3.84172575  0.00296730
   0.01172810  5.74819163  3.86675796
   3.89052926  1.96078949  3.87863103
   3.89335232  5.70870889  3.87969402
   7.77811773  0.01728976  5.83513759
   0.01022768  3.83766792  1.92307158
   3.88515284  7.67790941  1.88400701
   1.94251442  7.68085615  7.74411485
   1.92183513  0.02041608  3.86354588
   1.96867147  3.84413314  7.73529506
   1.92695053  3.80095869  3.91825234
   5.83640166  7.68169431  7.74553656
   5.85699178  3.79244144  3.92717353
   0.03434743  1.91641075  7.74437173
   0.03183751  1.94897488  3.86848594
   0.03273562  5.77031492  7.74301617
   3.85064973  1.93159799  7.70879017
   3.85092369  5.75102960  7.70902055
   0.01039152  0.02524375  1.85224018
   0.02016309  3.82410855  5.85364572
   3.87797162  7.67926875  5.89613756
   3.83368420  3.83837457  1.88353806
   3.84233701  3.83914731  5.85899090
 


--------------------------------------------------------------------------------------------------------


 k-point  1 :   0.2500 0.2500 0.2500  plane waves:   19473
 k-point  2 :  -0.2500 0.2500 0.2500  plane waves:   19470
 k-point  3 :   0.2500-0.2500 0.2500  plane waves:   19465
 k-point  4 :  -0.2500-0.2500 0.2500  plane waves:   19468

 maximum and minimum number of plane-waves per node :      2471     2411

 maximum number of plane-waves:     19473
 maximum index in each direction: 
   IXMAX=   17   IYMAX=   16   IZMAX=   16
   IXMIN=  -17   IYMIN=  -16   IZMIN=  -16


 real space projection operators:
  total allocation   :      18490.86 KBytes
  max/ min on nodes  :       2455.33       1923.00


 parallel 3D FFT for wavefunctions:
    minimum data exchange during FFTs selected (reduces bandwidth)
 parallel 3D FFT for charge:
    minimum data exchange during FFTs selected (reduces bandwidth)


 total amount of memory used by VASP MPI-rank0    62264. kBytes
=======================================================================

   base      :      30000. kBytes
   nonlr-proj:       8565. kBytes
   fftplans  :       8423. kBytes
   grid      :       8783. kBytes
   one-center:        124. kBytes
   wavefun   :       6369. kBytes
 
     INWAV:  cpu time    3.8974: real time    4.7375
 Broyden mixing: mesh for mixing (old mesh)
   NGX = 33   NGY = 33   NGZ = 33
  (NGX  =140   NGY  =140   NGZ  =140)
  gives a total of  35937 points

 charge density for first step will be calculated from the start-wavefunctions


--------------------------------------------------------------------------------------------------------


 Maximum index for non-local projection operator         1377
 Maximum index for augmentation-charges         7676 (set IRDMAX)


--------------------------------------------------------------------------------------------------------


 initial charge from wavefunction
 First call to EWALD:  gamma=   0.229
 Maximum number of real-space cells 3x 3x 3
 Maximum number of reciprocal cells 3x 3x 3

    FEWALD:  cpu time    0.0030: real time    0.0030


--------------------------------------- Iteration      1(   1)  ---------------------------------------


    POTLOK:  cpu time    0.2170: real time    0.5097
    SETDIJ:  cpu time    0.8429: real time    0.8403
     EDDAV:  cpu time    3.4745: real time    3.4734
       DOS:  cpu time    0.0010: real time    0.0009
    CHARGE:  cpu time    0.3829: real time    0.3817
    MIXING:  cpu time    0.0030: real time    0.0030
    --------------------------------------------
      LOOP:  cpu time    4.9213: real time    5.2089

 eigenvalue-minimisations  :  2560
 total energy-change (2. order) :-0.2120345E+03  (-0.7043756E-01)
 number of electron     240.0000003 magnetization      -0.0000000
 augmentation part       61.9906535 magnetization       0.0000000

 Broyden mixing:
  rms(total) = 0.70002E-02    rms(broyden)= 0.65972E-02
  rms(prec ) = 0.69668E-02
  weight for this iteration     100.00

 Free energy of the ion-electron system (eV)
  ---------------------------------------------------
  alpha Z        PSCENC =       756.24882035
  Ewald energy   TEWEN  =    -12759.97766670
  -Hartree energ DENC   =     -8270.75702491
  -exchange      EXHF   =         0.00000000
  -V(xc)+E(xc)   XCENC  =      1119.74420910
  PAW double counting   =     18033.83588322   -18156.40346241
  entropy T*S    EENTRO =        -0.00000000
  eigenvalues    EBANDS =     -3237.07848314
  atomic energy  EATOM  =     22302.35321627
  Solvation  Ediel_sol  =         0.00000000
  ---------------------------------------------------
  free energy    TOTEN  =      -212.03450824 eV

  energy without entropy =     -212.03450824  energy(sigma->0) =     -212.03450824


--------------------------------------------------------------------------------------------------------




--------------------------------------- Iteration      1(   2)  ---------------------------------------


    POTLOK:  cpu time    0.1770: real time    0.2025
    SETDIJ:  cpu time    0.8419: real time    0.8404
     EDDAV:  cpu time    3.7714: real time    3.7698
       DOS:  cpu time    0.0010: real time    0.0009
    CHARGE:  cpu time    0.3859: real time    0.3830
    MIXING:  cpu time    0.0030: real time    0.0031
    --------------------------------------------
      LOOP:  cpu time    5.1802: real time    5.1998

 eigenvalue-minimisations  :  2816
 total energy-change (2. order) :-0.8060133E-04  (-0.3137304E-05)
 number of electron     240.0000003 magnetization      -0.0000000
 augmentation part       61.9909160 magnetization      -0.0000000

 Broyden mixing:
  rms(total) = 0.39448E-02    rms(broyden)= 0.39173E-02
  rms(prec ) = 0.41566E-02
  weight for this iteration     100.00

 eigenvalues of (default mixing * dielectric matrix)
  average eigenvalue GAMMA=   2.1744
  2.1744

 Free energy of the ion-electron system (eV)
  ---------------------------------------------------
  alpha Z        PSCENC =       756.24882035
  Ewald energy   TEWEN  =    -12759.97766670
  -Hartree energ DENC   =     -8270.69432438
  -exchange      EXHF   =         0.00000000
  -V(xc)+E(xc)   XCENC  =      1119.73991600
  PAW double counting   =     18034.55834703   -18157.11011696
  entropy T*S    EENTRO =        -0.00000000
  eigenvalues    EBANDS =     -3237.15278045
  atomic energy  EATOM  =     22302.35321627
  Solvation  Ediel_sol  =         0.00000000
  ---------------------------------------------------
  free energy    TOTEN  =      -212.03458885 eV

  energy without entropy =     -212.03458885  energy(sigma->0) =     -212.03458885


--------------------------------------------------------------------------------------------------------




--------------------------------------- Iteration      1(   3)  ---------------------------------------


    POTLOK:  cpu time    0.1520: real time    0.1726
    SETDIJ:  cpu time    0.8399: real time    0.8381
     EDDAV:  cpu time    4.2354: real time    4.2338
       DOS:  cpu time    0.0010: real time    0.0010
    CHARGE:  cpu time    0.3809: real time    0.3798
    MIXING:  cpu time    0.0030: real time    0.0030
    --------------------------------------------
      LOOP:  cpu time    5.6121: real time    5.6284

 eigenvalue-minimisations  :  3232
 total energy-change (2. order) :-0.8859254E-04  (-0.1739976E-05)
 number of electron     240.0000003 magnetization      -0.0000000
 augmentation part       61.9922710 magnetization      -0.0000000

 Broyden mixing:
  rms(total) = 0.13146E-02    rms(broyden)= 0.13105E-02
  rms(prec ) = 0.18643E-02
  weight for this iteration     100.00

 eigenvalues of (default mixing * dielectric matrix)
  average eigenvalue GAMMA=   1.5437
  0.6424  2.4451

 Free energy of the ion-electron system (eV)
  ---------------------------------------------------
  alpha Z        PSCENC =       756.24882035
  Ewald energy   TEWEN  =    -12759.97766670
  -Hartree energ DENC   =     -8270.71695561
  -exchange      EXHF   =         0.00000000
  -V(xc)+E(xc)   XCENC  =      1119.74303361
  PAW double counting   =     18035.41144632   -18157.95367027
  entropy T*S    EENTRO =        -0.00000000
  eigenvalues    EBANDS =     -3237.14290140
  atomic energy  EATOM  =     22302.35321627
  Solvation  Ediel_sol  =         0.00000000
  ---------------------------------------------------
  free energy    TOTEN  =      -212.03467744 eV

  energy without entropy =     -212.03467744  energy(sigma->0) =     -212.03467744


--------------------------------------------------------------------------------------------------------




--------------------------------------- Iteration      1(   4)  ---------------------------------------


    POTLOK:  cpu time    0.1750: real time    0.2018
    SETDIJ:  cpu time    0.8419: real time    0.8404
     EDDAV:  cpu time    3.8894: real time    3.8891
       DOS:  cpu time    0.0000: real time    0.0008
    CHARGE:  cpu time    0.4249: real time    0.4229
    MIXING:  cpu time    0.0030: real time    0.0030
    --------------------------------------------
      LOOP:  cpu time    5.3342: real time    5.3578

 eigenvalue-minimisations  :  2832
 total energy-change (2. order) :-0.3538720E-05  (-0.4799740E-06)
 number of electron     240.0000003 magnetization      -0.0000000
 augmentation part       61.9914099 magnetization       0.0000000

 Broyden mixing:
  rms(total) = 0.25368E-03    rms(broyden)= 0.25079E-03
  rms(prec ) = 0.33839E-03
  weight for this iteration     100.00

 eigenvalues of (default mixing * dielectric matrix)
  average eigenvalue GAMMA=   1.3542
  2.4958  1.0201  0.5467

 Free energy of the ion-electron system (eV)
  ---------------------------------------------------
  alpha Z        PSCENC =       756.24882035
  Ewald energy   TEWEN  =    -12759.97766670
  -Hartree energ DENC   =     -8270.73909653
  -exchange      EXHF   =         0.00000000
  -V(xc)+E(xc)   XCENC  =      1119.74327782
  PAW double counting   =     18035.60709570   -18158.14418859
  entropy T*S    EENTRO =        -0.00000000
  eigenvalues    EBANDS =     -3237.12613928
  atomic energy  EATOM  =     22302.35321627
  Solvation  Ediel_sol  =         0.00000000
  ---------------------------------------------------
  free energy    TOTEN  =      -212.03468098 eV

  energy without entropy =     -212.03468098  energy(sigma->0) =     -212.03468098


--------------------------------------------------------------------------------------------------------




--------------------------------------- Iteration      1(   5)  ---------------------------------------


    POTLOK:  cpu time    0.1430: real time    0.2168
    SETDIJ:  cpu time    0.8409: real time    0.8386
     EDDAV:  cpu time    2.2347: real time    2.2345
       DOS:  cpu time    0.0010: real time    0.0009
    --------------------------------------------
      LOOP:  cpu time    3.2195: real time    3.2907

 eigenvalue-minimisations  :  1280
 total energy-change (2. order) :-0.2508532E-06  (-0.6003999E-07)
 number of electron     240.0000003 magnetization      -0.0000000
 augmentation part       61.9914099 magnetization       0.0000000

 Free energy of the ion-electron system (eV)
  ---------------------------------------------------
  alpha Z        PSCENC =       756.24882035
  Ewald energy   TEWEN  =    -12759.97766670
  -Hartree energ DENC   =     -8270.74746928
  -exchange      EXHF   =         0.00000000
  -V(xc)+E(xc)   XCENC  =      1119.74386360
  PAW double counting   =     18035.57701762   -18158.11428726
  entropy T*S    EENTRO =        -0.00000000
  eigenvalues    EBANDS =     -3237.11817582
  atomic energy  EATOM  =     22302.35321627
  Solvation  Ediel_sol  =         0.00000000
  ---------------------------------------------------
  free energy    TOTEN  =      -212.03468123 eV

  energy without entropy =     -212.03468123  energy(sigma->0) =     -212.03468123


--------------------------------------------------------------------------------------------------------




 average (electrostatic) potential at core
  the test charge radii are     1.0397  0.7215  0.7167
  (the norm of the test charge is              1.0000)
       1 -59.1977       2 -58.2863       3 -59.1245       4 -58.6775       5 -59.1155
       6 -58.1428       7 -59.5479       8 -58.3880       9 -73.5084      10 -74.6542
      11 -73.8586      12 -72.8626      13 -72.8457      14 -74.3521      15 -74.2628
      16 -74.3086      17 -79.8176      18 -77.9009      19 -78.8880      20 -79.1555
      21 -79.8229      22 -79.1314      23 -79.9617      24 -78.3572      25 -79.9545
      26 -80.0806      27 -80.0797      28 -78.5779      29 -78.6086      30 -78.5120
      31 -79.6775      32 -79.6721
 
 
 
 E-fermi :  -0.0909     XC(G=0):  -8.9680     alpha+bet : -7.6314


 spin component 1

 k-point     1 :       0.2500    0.2500    0.2500
  band No.  band energies     occupation 
      1     -35.6060      1.00000
      2     -35.5526      1.00000
      3     -35.3573      1.00000
      4     -35.3147      1.00000
      5     -35.2716      1.00000
      6     -35.2058      1.00000
      7     -35.1754      1.00000
      8     -35.1735      1.00000
      9     -35.0125      1.00000
     10     -34.9989      1.00000
     11     -34.9311      1.00000
     12     -34.9166      1.00000
     13     -34.7068      1.00000
     14     -34.5747      1.00000
     15     -34.5049      1.00000
     16     -34.5025      1.00000
     17     -34.4501      1.00000
     18     -34.2239      1.00000
     19     -34.1683      1.00000
     20     -34.1131      1.00000
     21     -34.0711      1.00000
     22     -33.9850      1.00000
     23     -33.9153      1.00000
     24     -33.7735      1.00000
     25     -23.9575      1.00000
     26     -23.8269      1.00000
     27     -23.6157      1.00000
     28     -23.5264      1.00000
     29     -23.4638      1.00000
     30     -23.3989      1.00000
     31     -23.2844      1.00000
     32     -23.1195      1.00000
     33     -22.9531      1.00000
     34     -22.6088      1.00000
     35     -22.5418      1.00000
     36     -22.2641      1.00000
     37     -22.2435      1.00000
     38     -22.1756      1.00000
     39     -22.0079      1.00000
     40     -21.5375      1.00000
     41     -17.0984      1.00000
     42     -16.7343      1.00000
     43     -16.6894      1.00000
     44     -16.6432      1.00000
     45     -16.2883      1.00000
     46     -15.9525      1.00000
     47     -15.5891      1.00000
     48     -15.0510      1.00000
     49      -7.4567      1.00000
     50      -7.3472      1.00000
     51      -7.1079      1.00000
     52      -7.0017      1.00000
     53      -6.4599      1.00000
     54      -6.3696      1.00000
     55      -6.2059      1.00000
     56      -6.1491      1.00000
     57      -6.0731      1.00000
     58      -5.9768      1.00000
     59      -5.9578      1.00000
     60      -5.8841      1.00000
     61      -5.7865      1.00000
     62      -5.7182      1.00000
     63      -5.6076      1.00000
     64      -5.4710      1.00000
     65      -5.4389      1.00000
     66      -5.4167      1.00000
     67      -5.3901      1.00000
     68      -5.3493      1.00000
     69      -5.3078      1.00000
     70      -5.2082      1.00000
     71      -4.9925      1.00000
     72      -4.9286      1.00000
     73      -4.8754      1.00000
     74      -4.8314      1.00000
     75      -4.6948      1.00000
     76      -4.6787      1.00000
     77      -4.6431      1.00000
     78      -4.6073      1.00000
     79      -4.5092      1.00000
     80      -4.4099      1.00000
     81      -4.2690      1.00000
     82      -4.2474      1.00000
     83      -4.2148      1.00000
     84      -4.0613      1.00000
     85      -4.0101      1.00000
     86      -3.9124      1.00000
     87      -3.8354      1.00000
     88      -3.7847      1.00000
     89      -3.6879      1.00000
     90      -3.5802      1.00000
     91      -3.5291      1.00000
     92      -3.5149      1.00000
     93      -3.4769      1.00000
     94      -3.4444      1.00000
     95      -3.3791      1.00000
     96      -3.3563      1.00000
     97      -3.3476      1.00000
     98      -3.2970      1.00000
     99      -3.1769      1.00000
    100      -3.1141      1.00000
    101      -2.9182      1.00000
    102      -2.7788      1.00000
    103      -2.6640      1.00000
    104      -2.5748      1.00000
    105      -2.5460      1.00000
    106      -2.4688      1.00000
    107      -2.4355      1.00000
    108      -2.3977      1.00000
    109      -2.0206      1.00000
    110      -1.9018      1.00000
    111      -1.8265      1.00000
    112      -1.7201      1.00000
    113      -1.4645      1.00000
    114      -1.3112      1.00000
    115      -1.2133      1.00000
    116      -1.1454      1.00000
    117      -0.8508      1.00000
    118      -0.5626      1.00000
    119      -0.4547      1.00000
    120      -0.1376      1.00000
    121       1.7859      0.00000
    122       2.0736      0.00000
    123       2.1048      0.00000
    124       2.3066      0.00000
    125       2.3633      0.00000
    126       2.4302      0.00000
    127       2.5764      0.00000
    128       2.7500      0.00000
    129       2.7699      0.00000
    130       2.7848      0.00000
    131       2.8498      0.00000
    132       2.9138      0.00000
    133       3.0426      0.00000
    134       3.0783      0.00000
    135       3.1801      0.00000
    136       3.3429      0.00000
    137       3.4090      0.00000
    138       3.4478      0.00000
    139       3.4816      0.00000
    140       3.5531      0.00000
    141       3.5881      0.00000
    142       3.6500      0.00000
    143       3.6964      0.00000
    144       3.9408      0.00000
    145       4.0726      0.00000
    146       4.1404      0.00000
    147       4.2474      0.00000
    148       4.2853      0.00000
    149       4.3315      0.00000
    150       4.3743      0.00000
    151       4.4887      0.00000
    152       4.5361      0.00000
    153       4.9543      0.00000
    154       5.2461      0.00000
    155       5.3181      0.00000
    156       5.5001      0.00000
    157       5.8288      0.00000
    158       6.3735      0.00000
    159       6.4452      0.00000
    160       6.5950      0.00000

 k-point     2 :      -0.2500    0.2500    0.2500
  band No.  band energies     occupation 
      1     -35.6060      1.00000
      2     -35.5526      1.00000
      3     -35.3573      1.00000
      4     -35.3147      1.00000
      5     -35.2716      1.00000
      6     -35.2058      1.00000
      7     -35.1753      1.00000
      8     -35.1736      1.00000
      9     -35.0125      1.00000
     10     -34.9989      1.00000
     11     -34.9311      1.00000
     12     -34.9166      1.00000
     13     -34.7068      1.00000
     14     -34.5747      1.00000
     15     -34.5049      1.00000
     16     -34.5025      1.00000
     17     -34.4501      1.00000
     18     -34.2239      1.00000
     19     -34.1683      1.00000
     20     -34.1131      1.00000
     21     -34.0711      1.00000
     22     -33.9850      1.00000
     23     -33.9153      1.00000
     24     -33.7735      1.00000
     25     -23.9575      1.00000
     26     -23.8269      1.00000
     27     -23.6159      1.00000
     28     -23.5263      1.00000
     29     -23.4638      1.00000
     30     -23.3988      1.00000
     31     -23.2845      1.00000
     32     -23.1196      1.00000
     33     -22.9530      1.00000
     34     -22.6088      1.00000
     35     -22.5420      1.00000
     36     -22.2638      1.00000
     37     -22.2434      1.00000
     38     -22.1759      1.00000
     39     -22.0079      1.00000
     40     -21.5375      1.00000
     41     -17.0984      1.00000
     42     -16.7338      1.00000
     43     -16.6892      1.00000
     44     -16.6440      1.00000
     45     -16.2882      1.00000
     46     -15.9526      1.00000
     47     -15.5890      1.00000
     48     -15.0510      1.00000
     49      -7.4566      1.00000
     50      -7.3473      1.00000
     51      -7.1081      1.00000
     52      -7.0022      1.00000
     53      -6.4582      1.00000
     54      -6.3694      1.00000
     55      -6.2067      1.00000
     56      -6.1501      1.00000
     57      -6.0745      1.00000
     58      -5.9813      1.00000
     59      -5.9571      1.00000
     60      -5.8840      1.00000
     61      -5.7895      1.00000
     62      -5.7169      1.00000
     63      -5.6113      1.00000
     64      -5.4695      1.00000
     65      -5.4495      1.00000
     66      -5.4196      1.00000
     67      -5.3768      1.00000
     68      -5.3267      1.00000
     69      -5.2863      1.00000
     70      -5.2165      1.00000
     71      -4.9890      1.00000
     72      -4.9114      1.00000
     73      -4.8847      1.00000
     74      -4.8477      1.00000
     75      -4.6968      1.00000
     76      -4.6738      1.00000
     77      -4.6635      1.00000
     78      -4.6104      1.00000
     79      -4.5045      1.00000
     80      -4.4389      1.00000
     81      -4.2631      1.00000
     82      -4.2430      1.00000
     83      -4.2170      1.00000
     84      -4.0454      1.00000
     85      -4.0213      1.00000
     86      -3.9265      1.00000
     87      -3.8170      1.00000
     88      -3.7311      1.00000
     89      -3.6817      1.00000
     90      -3.6626      1.00000
     91      -3.5559      1.00000
     92      -3.5338      1.00000
     93      -3.5099      1.00000
     94      -3.4706      1.00000
     95      -3.3791      1.00000
     96      -3.3596      1.00000
     97      -3.3127      1.00000
     98      -3.2693      1.00000
     99      -3.1016      1.00000
    100      -3.0862      1.00000
    101      -2.9281      1.00000
    102      -2.7176      1.00000
    103      -2.6503      1.00000
    104      -2.6155      1.00000
    105      -2.5535      1.00000
    106      -2.4490      1.00000
    107      -2.4276      1.00000
    108      -2.2548      1.00000
    109      -2.1344      1.00000
    110      -2.0893      1.00000
    111      -1.9060      1.00000
    112      -1.6925      1.00000
    113      -1.4035      1.00000
    114      -1.3045      1.00000
    115      -1.1835      1.00000
    116      -1.0739      1.00000
    117      -0.8480      1.00000
    118      -0.5525      1.00000
    119      -0.4537      1.00000
    120      -0.1803      1.00000
    121       1.7858      0.00000
    122       2.0719      0.00000
    123       2.0780      0.00000
    124       2.3042      0.00000
    125       2.3615      0.00000
    126       2.3702      0.00000
    127       2.5782      0.00000
    128       2.7687      0.00000
    129       2.7948      0.00000
    130       2.8292      0.00000
    131       2.8606      0.00000
    132       2.9832      0.00000
    133       3.0461      0.00000
    134       3.0911      0.00000
    135       3.1783      0.00000
    136       3.3518      0.00000
    137       3.3923      0.00000
    138       3.4416      0.00000
    139       3.4571      0.00000
    140       3.4852      0.00000
    141       3.5677      0.00000
    142       3.6599      0.00000
    143       3.7078      0.00000
    144       3.9178      0.00000
    145       4.0705      0.00000
    146       4.1500      0.00000
    147       4.2381      0.00000
    148       4.3094      0.00000
    149       4.3443      0.00000
    150       4.3811      0.00000
    151       4.4903      0.00000
    152       4.5570      0.00000
    153       4.9319      0.00000
    154       5.1814      0.00000
    155       5.3596      0.00000
    156       5.4860      0.00000
    157       5.8460      0.00000
    158       6.3868      0.00000
    159       6.4589      0.00000
    160       6.6016      0.00000

 k-point     3 :       0.2500   -0.2500    0.2500
  band No.  band energies     occupation 
      1     -35.6060      1.00000
      2     -35.5526      1.00000
      3     -35.3573      1.00000
      4     -35.3147      1.00000
      5     -35.2716      1.00000
      6     -35.2058      1.00000
      7     -35.1753      1.00000
      8     -35.1736      1.00000
      9     -35.0125      1.00000
     10     -34.9989      1.00000
     11     -34.9311      1.00000
     12     -34.9166      1.00000
     13     -34.7068      1.00000
     14     -34.5747      1.00000
     15     -34.5049      1.00000
     16     -34.5025      1.00000
     17     -34.4501      1.00000
     18     -34.2239      1.00000
     19     -34.1683      1.00000
     20     -34.1131      1.00000
     21     -34.0711      1.00000
     22     -33.9850      1.00000
     23     -33.9153      1.00000
     24     -33.7735      1.00000
     25     -23.9575      1.00000
     26     -23.8269      1.00000
     27     -23.6159      1.00000
     28     -23.5264      1.00000
     29     -23.4637      1.00000
     30     -23.3988      1.00000
     31     -23.2845      1.00000
     32     -23.1195      1.00000
     33     -22.9531      1.00000
     34     -22.6088      1.00000
     35     -22.5418      1.00000
     36     -22.2620      1.00000
     37     -22.2459      1.00000
     38     -22.1756      1.00000
     39     -22.0077      1.00000
     40     -21.5376      1.00000
     41     -17.0984      1.00000
     42     -16.7325      1.00000
     43     -16.6915      1.00000
     44     -16.6432      1.00000
     45     -16.2880      1.00000
     46     -15.9526      1.00000
     47     -15.5890      1.00000
     48     -15.0510      1.00000
     49      -7.4566      1.00000
     50      -7.3474      1.00000
     51      -7.1080      1.00000
     52      -7.0016      1.00000
     53      -6.4601      1.00000
     54      -6.3694      1.00000
     55      -6.2055      1.00000
     56      -6.1501      1.00000
     57      -6.0732      1.00000
     58      -5.9763      1.00000
     59      -5.9584      1.00000
     60      -5.8846      1.00000
     61      -5.7917      1.00000
     62      -5.7303      1.00000
     63      -5.6090      1.00000
     64      -5.4583      1.00000
     65      -5.4276      1.00000
     66      -5.4061      1.00000
     67      -5.3762      1.00000
     68      -5.3479      1.00000
     69      -5.3079      1.00000
     70      -5.2092      1.00000
     71      -4.9984      1.00000
     72      -4.9303      1.00000
     73      -4.8756      1.00000
     74      -4.8526      1.00000
     75      -4.7052      1.00000
     76      -4.6732      1.00000
     77      -4.6465      1.00000
     78      -4.6099      1.00000
     79      -4.5092      1.00000
     80      -4.4121      1.00000
     81      -4.2626      1.00000
     82      -4.2446      1.00000
     83      -4.1963      1.00000
     84      -4.0589      1.00000
     85      -4.0085      1.00000
     86      -3.9012      1.00000
     87      -3.8603      1.00000
     88      -3.7915      1.00000
     89      -3.6824      1.00000
     90      -3.6402      1.00000
     91      -3.5570      1.00000
     92      -3.5262      1.00000
     93      -3.4945      1.00000
     94      -3.4485      1.00000
     95      -3.3680      1.00000
     96      -3.3648      1.00000
     97      -3.3057      1.00000
     98      -3.2836      1.00000
     99      -3.1687      1.00000
    100      -3.1070      1.00000
    101      -2.8451      1.00000
    102      -2.7335      1.00000
    103      -2.6384      1.00000
    104      -2.5575      1.00000
    105      -2.5041      1.00000
    106      -2.4577      1.00000
    107      -2.4095      1.00000
    108      -2.3693      1.00000
    109      -2.1901      1.00000
    110      -2.1129      1.00000
    111      -1.8281      1.00000
    112      -1.7199      1.00000
    113      -1.4029      1.00000
    114      -1.2269      1.00000
    115      -1.1860      1.00000
    116      -1.1272      1.00000
    117      -0.8500      1.00000
    118      -0.5526      1.00000
    119      -0.4560      1.00000
    120      -0.1804      1.00000
    121       1.7861      0.00000
    122       2.0741      0.00000
    123       2.1049      0.00000
    124       2.2433      0.00000
    125       2.3593      0.00000
    126       2.4302      0.00000
    127       2.5784      0.00000
    128       2.7627      0.00000
    129       2.7797      0.00000
    130       2.8034      0.00000
    131       2.9108      0.00000
    132       2.9597      0.00000
    133       3.0462      0.00000
    134       3.0835      0.00000
    135       3.1782      0.00000
    136       3.3196      0.00000
    137       3.3785      0.00000
    138       3.4177      0.00000
    139       3.4719      0.00000
    140       3.5389      0.00000
    141       3.5842      0.00000
    142       3.6576      0.00000
    143       3.7078      0.00000
    144       3.9095      0.00000
    145       4.0707      0.00000
    146       4.1305      0.00000
    147       4.2468      0.00000
    148       4.3045      0.00000
    149       4.3269      0.00000
    150       4.4028      0.00000
    151       4.5021      0.00000
    152       4.5606      0.00000
    153       4.9466      0.00000
    154       5.1740      0.00000
    155       5.3132      0.00000
    156       5.5462      0.00000
    157       5.8185      0.00000
    158       6.3829      0.00000
    159       6.4668      0.00000
    160       6.5962      0.00000

 k-point     4 :      -0.2500   -0.2500    0.2500
  band No.  band energies     occupation 
      1     -35.6060      1.00000
      2     -35.5526      1.00000
      3     -35.3573      1.00000
      4     -35.3147      1.00000
      5     -35.2716      1.00000
      6     -35.2058      1.00000
      7     -35.1754      1.00000
      8     -35.1735      1.00000
      9     -35.0125      1.00000
     10     -34.9989      1.00000
     11     -34.9311      1.00000
     12     -34.9166      1.00000
     13     -34.7068      1.00000
     14     -34.5747      1.00000
     15     -34.5049      1.00000
     16     -34.5025      1.00000
     17     -34.4501      1.00000
     18     -34.2239      1.00000
     19     -34.1683      1.00000
     20     -34.1131      1.00000
     21     -34.0711      1.00000
     22     -33.9850      1.00000
     23     -33.9153      1.00000
     24     -33.7735      1.00000
     25     -23.9575      1.00000
     26     -23.8269      1.00000
     27     -23.6158      1.00000
     28     -23.5264      1.00000
     29     -23.4637      1.00000
     30     -23.3989      1.00000
     31     -23.2844      1.00000
     32     -23.1196      1.00000
     33     -22.9530      1.00000
     34     -22.6088      1.00000
     35     -22.5420      1.00000
     36     -22.2617      1.00000
     37     -22.2457      1.00000
     38     -22.1759      1.00000
     39     -22.0076      1.00000
     40     -21.5375      1.00000
     41     -17.0984      1.00000
     42     -16.7319      1.00000
     43     -16.6913      1.00000
     44     -16.6440      1.00000
     45     -16.2880      1.00000
     46     -15.9525      1.00000
     47     -15.5891      1.00000
     48     -15.0510      1.00000
     49      -7.4567      1.00000
     50      -7.3474      1.00000
     51      -7.1080      1.00000
     52      -7.0022      1.00000
     53      -6.4583      1.00000
     54      -6.3695      1.00000
     55      -6.2083      1.00000
     56      -6.1491      1.00000
     57      -6.0740      1.00000
     58      -5.9820      1.00000
     59      -5.9575      1.00000
     60      -5.8849      1.00000
     61      -5.7956      1.00000
     62      -5.7284      1.00000
     63      -5.6121      1.00000
     64      -5.4645      1.00000
     65      -5.4401      1.00000
     66      -5.3931      1.00000
     67      -5.3775      1.00000
     68      -5.3220      1.00000
     69      -5.2866      1.00000
     70      -5.2153      1.00000
     71      -4.9920      1.00000
     72      -4.9130      1.00000
     73      -4.8853      1.00000
     74      -4.8693      1.00000
     75      -4.6951      1.00000
     76      -4.6842      1.00000
     77      -4.6527      1.00000
     78      -4.6042      1.00000
     79      -4.5028      1.00000
     80      -4.4406      1.00000
     81      -4.2624      1.00000
     82      -4.2443      1.00000
     83      -4.1917      1.00000
     84      -4.0792      1.00000
     85      -4.0058      1.00000
     86      -3.9363      1.00000
     87      -3.8313      1.00000
     88      -3.7333      1.00000
     89      -3.7161      1.00000
     90      -3.6584      1.00000
     91      -3.5914      1.00000
     92      -3.5204      1.00000
     93      -3.4952      1.00000
     94      -3.4794      1.00000
     95      -3.3742      1.00000
     96      -3.3596      1.00000
     97      -3.3103      1.00000
     98      -3.2745      1.00000
     99      -3.0964      1.00000
    100      -3.0683      1.00000
    101      -2.8497      1.00000
    102      -2.7670      1.00000
    103      -2.6463      1.00000
    104      -2.6306      1.00000
    105      -2.4958      1.00000
    106      -2.4091      1.00000
    107      -2.3760      1.00000
    108      -2.2502      1.00000
    109      -2.1937      1.00000
    110      -2.1012      1.00000
    111      -1.9892      1.00000
    112      -1.6957      1.00000
    113      -1.4647      1.00000
    114      -1.2188      1.00000
    115      -1.2099      1.00000
    116      -1.0695      1.00000
    117      -0.8467      1.00000
    118      -0.5621      1.00000
    119      -0.4550      1.00000
    120      -0.1374      1.00000
    121       1.7853      0.00000
    122       2.0725      0.00000
    123       2.0781      0.00000
    124       2.2430      0.00000
    125       2.3579      0.00000
    126       2.3711      0.00000
    127       2.5762      0.00000
    128       2.7547      0.00000
    129       2.7710      0.00000
    130       2.8415      0.00000
    131       2.9497      0.00000
    132       2.9889      0.00000
    133       3.0488      0.00000
    134       3.0959      0.00000
    135       3.1784      0.00000
    136       3.3263      0.00000
    137       3.3790      0.00000
    138       3.4304      0.00000
    139       3.4647      0.00000
    140       3.5068      0.00000
    141       3.5681      0.00000
    142       3.6653      0.00000
    143       3.7092      0.00000
    144       3.9473      0.00000
    145       4.0636      0.00000
    146       4.1168      0.00000
    147       4.2516      0.00000
    148       4.2946      0.00000
    149       4.3293      0.00000
    150       4.3980      0.00000
    151       4.4995      0.00000
    152       4.5408      0.00000
    153       4.9485      0.00000
    154       5.2063      0.00000
    155       5.3101      0.00000
    156       5.4851      0.00000
    157       5.8361      0.00000
    158       6.4059      0.00000
    159       6.4582      0.00000
    160       6.6029      0.00000

 spin component 2

 k-point     1 :       0.2500    0.2500    0.2500
  band No.  band energies     occupation 
      1     -35.6060      1.00000
      2     -35.5526      1.00000
      3     -35.3573      1.00000
      4     -35.3147      1.00000
      5     -35.2716      1.00000
      6     -35.2058      1.00000
      7     -35.1754      1.00000
      8     -35.1735      1.00000
      9     -35.0125      1.00000
     10     -34.9989      1.00000
     11     -34.9311      1.00000
     12     -34.9166      1.00000
     13     -34.7068      1.00000
     14     -34.5747      1.00000
     15     -34.5049      1.00000
     16     -34.5025      1.00000
     17     -34.4501      1.00000
     18     -34.2239      1.00000
     19     -34.1683      1.00000
     20     -34.1131      1.00000
     21     -34.0711      1.00000
     22     -33.9850      1.00000
     23     -33.9153      1.00000
     24     -33.7735      1.00000
     25     -23.9575      1.00000
     26     -23.8269      1.00000
     27     -23.6157      1.00000
     28     -23.5264      1.00000
     29     -23.4638      1.00000
     30     -23.3989      1.00000
     31     -23.2844      1.00000
     32     -23.1195      1.00000
     33     -22.9531      1.00000
     34     -22.6088      1.00000
     35     -22.5418      1.00000
     36     -22.2641      1.00000
     37     -22.2435      1.00000
     38     -22.1756      1.00000
     39     -22.0079      1.00000
     40     -21.5375      1.00000
     41     -17.0984      1.00000
     42     -16.7343      1.00000
     43     -16.6894      1.00000
     44     -16.6432      1.00000
     45     -16.2883      1.00000
     46     -15.9525      1.00000
     47     -15.5891      1.00000
     48     -15.0510      1.00000
     49      -7.4567      1.00000
     50      -7.3472      1.00000
     51      -7.1079      1.00000
     52      -7.0017      1.00000
     53      -6.4599      1.00000
     54      -6.3696      1.00000
     55      -6.2059      1.00000
     56      -6.1491      1.00000
     57      -6.0731      1.00000
     58      -5.9768      1.00000
     59      -5.9578      1.00000
     60      -5.8841      1.00000
     61      -5.7865      1.00000
     62      -5.7182      1.00000
     63      -5.6076      1.00000
     64      -5.4710      1.00000
     65      -5.4389      1.00000
     66      -5.4167      1.00000
     67      -5.3901      1.00000
     68      -5.3493      1.00000
     69      -5.3078      1.00000
     70      -5.2082      1.00000
     71      -4.9925      1.00000
     72      -4.9286      1.00000
     73      -4.8754      1.00000
     74      -4.8314      1.00000
     75      -4.6948      1.00000
     76      -4.6787      1.00000
     77      -4.6431      1.00000
     78      -4.6073      1.00000
     79      -4.5092      1.00000
     80      -4.4099      1.00000
     81      -4.2690      1.00000
     82      -4.2474      1.00000
     83      -4.2148      1.00000
     84      -4.0613      1.00000
     85      -4.0101      1.00000
     86      -3.9124      1.00000
     87      -3.8354      1.00000
     88      -3.7847      1.00000
     89      -3.6879      1.00000
     90      -3.5802      1.00000
     91      -3.5291      1.00000
     92      -3.5149      1.00000
     93      -3.4769      1.00000
     94      -3.4444      1.00000
     95      -3.3791      1.00000
     96      -3.3563      1.00000
     97      -3.3476      1.00000
     98      -3.2970      1.00000
     99      -3.1769      1.00000
    100      -3.1141      1.00000
    101      -2.9182      1.00000
    102      -2.7788      1.00000
    103      -2.6640      1.00000
    104      -2.5748      1.00000
    105      -2.5460      1.00000
    106      -2.4688      1.00000
    107      -2.4355      1.00000
    108      -2.3977      1.00000
    109      -2.0206      1.00000
    110      -1.9018      1.00000
    111      -1.8265      1.00000
    112      -1.7201      1.00000
    113      -1.4645      1.00000
    114      -1.3112      1.00000
    115      -1.2133      1.00000
    116      -1.1454      1.00000
    117      -0.8508      1.00000
    118      -0.5626      1.00000
    119      -0.4547      1.00000
    120      -0.1376      1.00000
    121       1.7859      0.00000
    122       2.0736      0.00000
    123       2.1048      0.00000
    124       2.3066      0.00000
    125       2.3633      0.00000
    126       2.4302      0.00000
    127       2.5764      0.00000
    128       2.7500      0.00000
    129       2.7699      0.00000
    130       2.7848      0.00000
    131       2.8498      0.00000
    132       2.9138      0.00000
    133       3.0426      0.00000
    134       3.0783      0.00000
    135       3.1801      0.00000
    136       3.3429      0.00000
    137       3.4090      0.00000
    138       3.4478      0.00000
    139       3.4816      0.00000
    140       3.5531      0.00000
    141       3.5881      0.00000
    142       3.6500      0.00000
    143       3.6964      0.00000
    144       3.9408      0.00000
    145       4.0726      0.00000
    146       4.1404      0.00000
    147       4.2474      0.00000
    148       4.2853      0.00000
    149       4.3315      0.00000
    150       4.3743      0.00000
    151       4.4887      0.00000
    152       4.5361      0.00000
    153       4.9543      0.00000
    154       5.2461      0.00000
    155       5.3181      0.00000
    156       5.5001      0.00000
    157       5.8288      0.00000
    158       6.3735      0.00000
    159       6.4452      0.00000
    160       6.5950      0.00000

 k-point     2 :      -0.2500    0.2500    0.2500
  band No.  band energies     occupation 
      1     -35.6060      1.00000
      2     -35.5526      1.00000
      3     -35.3573      1.00000
      4     -35.3147      1.00000
      5     -35.2716      1.00000
      6     -35.2058      1.00000
      7     -35.1753      1.00000
      8     -35.1736      1.00000
      9     -35.0125      1.00000
     10     -34.9989      1.00000
     11     -34.9311      1.00000
     12     -34.9166      1.00000
     13     -34.7068      1.00000
     14     -34.5747      1.00000
     15     -34.5049      1.00000
     16     -34.5025      1.00000
     17     -34.4501      1.00000
     18     -34.2239      1.00000
     19     -34.1683      1.00000
     20     -34.1131      1.00000
     21     -34.0711      1.00000
     22     -33.9850      1.00000
     23     -33.9153      1.00000
     24     -33.7735      1.00000
     25     -23.9575      1.00000
     26     -23.8269      1.00000
     27     -23.6159      1.00000
     28     -23.5263      1.00000
     29     -23.4638      1.00000
     30     -23.3988      1.00000
     31     -23.2845      1.00000
     32     -23.1196      1.00000
     33     -22.9530      1.00000
     34     -22.6088      1.00000
     35     -22.5420      1.00000
     36     -22.2638      1.00000
     37     -22.2434      1.00000
     38     -22.1759      1.00000
     39     -22.0079      1.00000
     40     -21.5375      1.00000
     41     -17.0984      1.00000
     42     -16.7338      1.00000
     43     -16.6892      1.00000
     44     -16.6440      1.00000
     45     -16.2882      1.00000
     46     -15.9526      1.00000
     47     -15.5890      1.00000
     48     -15.0510      1.00000
     49      -7.4566      1.00000
     50      -7.3473      1.00000
     51      -7.1081      1.00000
     52      -7.0022      1.00000
     53      -6.4582      1.00000
     54      -6.3694      1.00000
     55      -6.2067      1.00000
     56      -6.1501      1.00000
     57      -6.0745      1.00000
     58      -5.9813      1.00000
     59      -5.9571      1.00000
     60      -5.8840      1.00000
     61      -5.7895      1.00000
     62      -5.7169      1.00000
     63      -5.6113      1.00000
     64      -5.4695      1.00000
     65      -5.4495      1.00000
     66      -5.4196      1.00000
     67      -5.3768      1.00000
     68      -5.3267      1.00000
     69      -5.2863      1.00000
     70      -5.2165      1.00000
     71      -4.9890      1.00000
     72      -4.9114      1.00000
     73      -4.8847      1.00000
     74      -4.8477      1.00000
     75      -4.6968      1.00000
     76      -4.6738      1.00000
     77      -4.6635      1.00000
     78      -4.6104      1.00000
     79      -4.5045      1.00000
     80      -4.4389      1.00000
     81      -4.2631      1.00000
     82      -4.2430      1.00000
     83      -4.2170      1.00000
     84      -4.0454      1.00000
     85      -4.0213      1.00000
     86      -3.9265      1.00000
     87      -3.8170      1.00000
     88      -3.7311      1.00000
     89      -3.6817      1.00000
     90      -3.6626      1.00000
     91      -3.5559      1.00000
     92      -3.5338      1.00000
     93      -3.5099      1.00000
     94      -3.4706      1.00000
     95      -3.3791      1.00000
     96      -3.3596      1.00000
     97      -3.3127      1.00000
     98      -3.2693      1.00000
     99      -3.1016      1.00000
    100      -3.0862      1.00000
    101      -2.9281      1.00000
    102      -2.7176      1.00000
    103      -2.6503      1.00000
    104      -2.6155      1.00000
    105      -2.5535      1.00000
    106      -2.4490      1.00000
    107      -2.4276      1.00000
    108      -2.2548      1.00000
    109      -2.1344      1.00000
    110      -2.0893      1.00000
    111      -1.9060      1.00000
    112      -1.6925      1.00000
    113      -1.4035      1.00000
    114      -1.3045      1.00000
    115      -1.1835      1.00000
    116      -1.0739      1.00000
    117      -0.8480      1.00000
    118      -0.5525      1.00000
    119      -0.4537      1.00000
    120      -0.1803      1.00000
    121       1.7858      0.00000
    122       2.0719      0.00000
    123       2.0780      0.00000
    124       2.3042      0.00000
    125       2.3615      0.00000
    126       2.3702      0.00000
    127       2.5782      0.00000
    128       2.7687      0.00000
    129       2.7948      0.00000
    130       2.8292      0.00000
    131       2.8606      0.00000
    132       2.9832      0.00000
    133       3.0461      0.00000
    134       3.0911      0.00000
    135       3.1783      0.00000
    136       3.3518      0.00000
    137       3.3923      0.00000
    138       3.4416      0.00000
    139       3.4571      0.00000
    140       3.4852      0.00000
    141       3.5677      0.00000
    142       3.6599      0.00000
    143       3.7078      0.00000
    144       3.9178      0.00000
    145       4.0705      0.00000
    146       4.1500      0.00000
    147       4.2381      0.00000
    148       4.3094      0.00000
    149       4.3443      0.00000
    150       4.3811      0.00000
    151       4.4903      0.00000
    152       4.5570      0.00000
    153       4.9319      0.00000
    154       5.1814      0.00000
    155       5.3596      0.00000
    156       5.4860      0.00000
    157       5.8460      0.00000
    158       6.3868      0.00000
    159       6.4589      0.00000
    160       6.6016      0.00000

 k-point     3 :       0.2500   -0.2500    0.2500
  band No.  band energies     occupation 
      1     -35.6060      1.00000
      2     -35.5526      1.00000
      3     -35.3573      1.00000
      4     -35.3147      1.00000
      5     -35.2716      1.00000
      6     -35.2058      1.00000
      7     -35.1753      1.00000
      8     -35.1736      1.00000
      9     -35.0125      1.00000
     10     -34.9989      1.00000
     11     -34.9311      1.00000
     12     -34.9166      1.00000
     13     -34.7068      1.00000
     14     -34.5747      1.00000
     15     -34.5049      1.00000
     16     -34.5025      1.00000
     17     -34.4501      1.00000
     18     -34.2239      1.00000
     19     -34.1683      1.00000
     20     -34.1131      1.00000
     21     -34.0711      1.00000
     22     -33.9850      1.00000
     23     -33.9153      1.00000
     24     -33.7735      1.00000
     25     -23.9575      1.00000
     26     -23.8269      1.00000
     27     -23.6159      1.00000
     28     -23.5264      1.00000
     29     -23.4637      1.00000
     30     -23.3988      1.00000
     31     -23.2845      1.00000
     32     -23.1195      1.00000
     33     -22.9531      1.00000
     34     -22.6088      1.00000
     35     -22.5418      1.00000
     36     -22.2620      1.00000
     37     -22.2459      1.00000
     38     -22.1756      1.00000
     39     -22.0077      1.00000
     40     -21.5376      1.00000
     41     -17.0984      1.00000
     42     -16.7325      1.00000
     43     -16.6915      1.00000
     44     -16.6432      1.00000
     45     -16.2880      1.00000
     46     -15.9526      1.00000
     47     -15.5890      1.00000
     48     -15.0510      1.00000
     49      -7.4566      1.00000
     50      -7.3474      1.00000
     51      -7.1080      1.00000
     52      -7.0016      1.00000
     53      -6.4601      1.00000
     54      -6.3694      1.00000
     55      -6.2055      1.00000
     56      -6.1501      1.00000
     57      -6.0732      1.00000
     58      -5.9763      1.00000
     59      -5.9584      1.00000
     60      -5.8846      1.00000
     61      -5.7917      1.00000
     62      -5.7303      1.00000
     63      -5.6090      1.00000
     64      -5.4583      1.00000
     65      -5.4276      1.00000
     66      -5.4061      1.00000
     67      -5.3762      1.00000
     68      -5.3479      1.00000
     69      -5.3079      1.00000
     70      -5.2092      1.00000
     71      -4.9984      1.00000
     72      -4.9303      1.00000
     73      -4.8756      1.00000
     74      -4.8526      1.00000
     75      -4.7052      1.00000
     76      -4.6732      1.00000
     77      -4.6465      1.00000
     78      -4.6099      1.00000
     79      -4.5092      1.00000
     80      -4.4121      1.00000
     81      -4.2626      1.00000
     82      -4.2446      1.00000
     83      -4.1963      1.00000
     84      -4.0589      1.00000
     85      -4.0085      1.00000
     86      -3.9012      1.00000
     87      -3.8603      1.00000
     88      -3.7915      1.00000
     89      -3.6824      1.00000
     90      -3.6402      1.00000
     91      -3.5570      1.00000
     92      -3.5262      1.00000
     93      -3.4945      1.00000
     94      -3.4485      1.00000
     95      -3.3680      1.00000
     96      -3.3648      1.00000
     97      -3.3057      1.00000
     98      -3.2836      1.00000
     99      -3.1687      1.00000
    100      -3.1070      1.00000
    101      -2.8451      1.00000
    102      -2.7335      1.00000
    103      -2.6384      1.00000
    104      -2.5575      1.00000
    105      -2.5041      1.00000
    106      -2.4577      1.00000
    107      -2.4095      1.00000
    108      -2.3693      1.00000
    109      -2.1901      1.00000
    110      -2.1129      1.00000
    111      -1.8281      1.00000
    112      -1.7199      1.00000
    113      -1.4029      1.00000
    114      -1.2269      1.00000
    115      -1.1860      1.00000
    116      -1.1272      1.00000
    117      -0.8500      1.00000
    118      -0.5526      1.00000
    119      -0.4560      1.00000
    120      -0.1804      1.00000
    121       1.7861      0.00000
    122       2.0741      0.00000
    123       2.1049      0.00000
    124       2.2433      0.00000
    125       2.3593      0.00000
    126       2.4302      0.00000
    127       2.5784      0.00000
    128       2.7627      0.00000
    129       2.7797      0.00000
    130       2.8034      0.00000
    131       2.9108      0.00000
    132       2.9597      0.00000
    133       3.0462      0.00000
    134       3.0835      0.00000
    135       3.1782      0.00000
    136       3.3196      0.00000
    137       3.3785      0.00000
    138       3.4177      0.00000
    139       3.4719      0.00000
    140       3.5389      0.00000
    141       3.5842      0.00000
    142       3.6576      0.00000
    143       3.7078      0.00000
    144       3.9095      0.00000
    145       4.0707      0.00000
    146       4.1305      0.00000
    147       4.2468      0.00000
    148       4.3045      0.00000
    149       4.3269      0.00000
    150       4.4028      0.00000
    151       4.5021      0.00000
    152       4.5606      0.00000
    153       4.9466      0.00000
    154       5.1740      0.00000
    155       5.3132      0.00000
    156       5.5462      0.00000
    157       5.8185      0.00000
    158       6.3829      0.00000
    159       6.4668      0.00000
    160       6.5962      0.00000

 k-point     4 :      -0.2500   -0.2500    0.2500
  band No.  band energies     occupation 
      1     -35.6060      1.00000
      2     -35.5526      1.00000
      3     -35.3573      1.00000
[...]
 -0.000   0.000   0.000  -0.000  -0.000  -0.000  -0.000  -0.000   0.000   0.000  -0.000   0.000   0.000  -0.000   0.000   0.000
 -0.000   0.000   0.000  -0.000   0.000   0.000   0.000   0.000  -0.000  -0.000   0.000  -0.000  -0.000  -0.000   0.000  -0.000
  0.000   0.000   0.000  -0.000  -0.000  -0.000  -0.000  -0.000   0.000   0.000  -0.000   0.000   0.000  -0.000   0.000   0.000
 -0.000  -0.000   0.000   0.000   0.000  -0.000  -0.000  -0.000  -0.000   0.000  -0.000   0.000  -0.000   0.000   0.000   0.000
 -0.000   0.000   0.000  -0.000   0.000  -0.000   0.000  -0.000   0.000  -0.000  -0.000  -0.000   0.000  -0.000   0.000  -0.000
  0.000  -0.000  -0.000   0.000   0.000   0.000  -0.000  -0.000  -0.000   0.000   0.000   0.000   0.000   0.000  -0.000  -0.000
  0.000   0.000  -0.000  -0.000  -0.000   0.000  -0.000  -0.000   0.000   0.000  -0.000   0.000   0.000  -0.000  -0.000   0.000
  0.000  -0.000  -0.000  -0.000  -0.000  -0.000  -0.000   0.000  -0.000   0.000  -0.000   0.000  -0.000   0.000  -0.000   0.000
  0.000   0.000   0.000   0.000   0.000   0.000   0.000  -0.000  -0.000  -0.000  -0.000  -0.000   0.000   0.000   0.000   0.000


------------------------ aborting loop because EDIFF is reached ----------------------------------------


 


 total charge     
 
# of ion       s       p       d       tot
------------------------------------------
    1        0.317   6.475   1.841   8.633
    2        0.317   6.451   1.753   8.521
    3        0.317   6.461   1.783   8.562
    4        0.319   6.465   1.777   8.561
    5        0.314   6.473   1.850   8.636
    6        0.303   6.426   1.666   8.395
    7        0.322   6.478   1.803   8.603
    8        0.295   6.453   1.744   8.492
    9        1.570   3.455   0.000   5.024
   10        1.570   3.458   0.000   5.028
   11        1.571   3.465   0.000   5.036
   12        1.566   3.419   0.000   4.985
   13        1.565   3.417   0.000   4.982
   14        1.574   3.451   0.000   5.026
   15        1.571   3.460   0.000   5.031
   16        1.576   3.445   0.000   5.020
   17        1.730   4.394   0.000   6.124
   18        1.729   4.365   0.000   6.094
   19        1.728   4.371   0.000   6.099
   20        1.731   4.392   0.000   6.123
   21        1.729   4.391   0.000   6.120
   22        1.730   4.389   0.000   6.119
   23        1.731   4.399   0.000   6.130
   24        1.729   4.376   0.000   6.106
   25        1.731   4.398   0.000   6.129
   26        1.731   4.397   0.000   6.128
   27        1.731   4.397   0.000   6.128
   28        1.728   4.374   0.000   6.103
   29        1.728   4.372   0.000   6.100
   30        1.729   4.375   0.000   6.104
   31        1.731   4.389   0.000   6.120
   32        1.732   4.392   0.000   6.123
--------------------------------------------------
tot         42.744 149.423  14.217 206.384
 


 magnetization (x)
 
# of ion       s       p       d       tot
------------------------------------------
    1        0.000   0.000  -0.000   0.000
    2        0.000  -0.000  -0.000  -0.000
    3        0.000   0.000   0.000   0.000
    4       -0.000   0.000  -0.000   0.000
    5        0.000   0.000  -0.000   0.000
    6        0.000   0.000   0.000   0.000
    7        0.000  -0.000   0.000   0.000
    8        0.000   0.000  -0.000   0.000
    9        0.000  -0.000   0.000  -0.000
   10        0.000  -0.000   0.000   0.000
   11       -0.000  -0.000   0.000  -0.000
   12       -0.000   0.000   0.000  -0.000
   13       -0.000  -0.000   0.000  -0.000
   14       -0.000  -0.000   0.000  -0.000
   15        0.000  -0.000   0.000   0.000
   16       -0.000  -0.000   0.000  -0.000
   17        0.000  -0.000   0.000   0.000
   18        0.000  -0.000   0.000   0.000
   19       -0.000   0.000   0.000  -0.000
   20       -0.000  -0.000   0.000  -0.000
   21       -0.000   0.000   0.000  -0.000
   22       -0.000  -0.000   0.000  -0.000
   23        0.000  -0.000   0.000   0.000
   24        0.000  -0.000   0.000  -0.000
   25       -0.000   0.000   0.000   0.000
   26       -0.000   0.000   0.000   0.000
   27       -0.000   0.000   0.000   0.000
   28       -0.000   0.000   0.000  -0.000
   29        0.000  -0.000   0.000   0.000
   30        0.000   0.000   0.000   0.000
   31        0.000   0.000   0.000   0.000
   32       -0.000   0.000   0.000  -0.000
--------------------------------------------------
tot         -0.000  -0.000   0.000  -0.000
 
    CHARGE:  cpu time    0.3809: real time    0.3793
    FORLOC:  cpu time    0.0120: real time    0.0116
    FORNL :  cpu time    2.1267: real time    2.1200
    STRESS:  cpu time    6.5800: real time    6.5627
    FORCOR:  cpu time    0.1290: real time    0.1291
    FORHAR:  cpu time    0.0210: real time    0.0213
    MIXING:  cpu time    0.0020: real time    0.0016
    OFIELD:  cpu time    0.0000: real time    0.0000

  FORCE on cell =-STRESS in cart. coord.  units (eV):
  Direction    XX          YY          ZZ          XY          YZ          ZX
  --------------------------------------------------------------------------------------
  Alpha Z   756.24882   756.24882   756.24882
  Ewald   -4267.23573 -4172.91726 -4319.87942    -1.30332     1.31275     7.05058
  Hartree  2753.95979  2813.30294  2703.50878     0.21542     0.48747     2.35472
  E(xc)   -1232.23813 -1232.30063 -1232.42921     0.00845    -0.00730    -0.00954
  Local   -2151.97524 -2320.50405 -2062.22183     1.35385    -2.12004    -9.93352
  n-local  -969.65394  -967.05111  -969.02656    -0.19045     0.24915     0.39941
  augment   752.57635   758.07238   758.42921    -0.17162     0.17768     0.34747
  Kinetic  4358.43037  4365.27730  4365.49521     0.08423    -0.10541    -0.21422
  Fock        0.00000     0.00000     0.00000     0.00000     0.00000     0.00000
  -------------------------------------------------------------------------------------
  Total       0.11229     0.12840     0.12500    -0.00344    -0.00571    -0.00510
  in kB       0.38855     0.44429     0.43252    -0.01190    -0.01976    -0.01765
  external pressure =        0.42 kB  Pullay stress =        0.00 kB


 VOLUME and BASIS-vectors are now :
 -----------------------------------------------------------------------------
  energy-cutoff  :      700.00
  volume of cell :      463.03
      direct lattice vectors                 reciprocal lattice vectors
     7.779724366  0.001013035  0.002149538     0.128539270 -0.000016419 -0.000034725
     0.000981782  7.681875173  0.001895571    -0.000016942  0.130176559 -0.000031037
     0.002093308  0.001847537  7.747792887    -0.000035658 -0.000031844  0.129069033

  length of vectors
     7.779724729  7.681875469  7.747793390     0.128539276  0.130176564  0.129069042


 FORCES acting on ions
    electron-ion (+dipol)            ewald-force                    non-local-force                 convergence-correction
 -----------------------------------------------------------------------------------------------
   0.152E+02 0.618E+01 0.686E+00   -.151E+02 -.615E+01 -.465E+00   -.151E+00 -.337E-01 -.228E+00   0.799E-04 0.658E-04 -.274E-03
   -.125E+01 0.151E+02 -.247E+01   0.411E+00 -.162E+02 0.344E+01   0.839E+00 0.106E+01 -.971E+00   0.347E-03 -.177E-04 -.372E-03
   0.273E+02 -.504E+01 -.804E+00   -.281E+02 0.502E+01 0.127E+01   0.804E+00 0.216E-01 -.461E+00   0.757E-03 0.597E-04 -.196E-04
   0.132E+02 -.962E+01 0.140E+02   -.131E+02 0.101E+02 -.151E+02   -.877E-01 -.522E+00 0.103E+01   0.859E-04 0.123E-03 0.391E-03
   -.152E+02 0.112E+01 -.101E+02   0.150E+02 -.112E+01 0.969E+01   0.149E+00 0.826E-02 0.443E+00   -.110E-03 -.956E-04 0.417E-03
   -.348E+01 0.886E+01 0.108E+02   0.458E+01 -.884E+01 -.117E+02   -.110E+01 -.248E-01 0.912E+00   -.696E-03 0.256E-03 -.512E-03
   -.237E+02 -.161E+01 -.132E+02   0.241E+02 0.161E+01 0.132E+02   -.320E+00 -.180E-02 0.895E-01   -.561E-03 -.925E-04 0.184E-03
   -.165E+02 -.112E+02 0.184E+02   0.163E+02 0.112E+02 -.182E+02   0.128E+00 -.854E-02 -.205E+00   -.950E-04 -.268E-03 0.237E-03
   0.371E+02 -.230E+01 0.271E+01   -.400E+02 0.310E+01 -.279E+01   0.291E+01 -.790E+00 0.789E-01   0.130E-02 -.524E-04 0.680E-04
   -.549E+02 -.177E+01 0.401E+01   0.605E+02 0.180E+01 -.524E+01   -.562E+01 -.256E-01 0.124E+01   -.617E-03 0.224E-04 -.174E-03
   -.628E+01 -.460E+02 -.363E+00   0.759E+01 0.501E+02 0.696E+00   -.131E+01 -.413E+01 -.335E+00   0.192E-03 0.828E-03 0.628E-04
   -.159E+01 0.487E+02 0.501E+01   0.126E+01 -.510E+02 -.495E+01   0.319E+00 0.225E+01 -.572E-01   -.672E-04 0.704E-03 -.976E-04
   -.102E+01 -.448E+02 0.480E+01   0.726E+00 0.466E+02 -.474E+01   0.292E+00 -.181E+01 -.568E-01   -.172E-03 0.954E-04 -.903E-04
   -.184E+01 -.445E+00 0.916E+02   0.271E+01 0.959E+00 -.100E+03   -.871E+00 -.510E+00 0.844E+01   0.173E-03 -.129E-03 -.616E-04
   0.363E+01 0.467E+01 -.501E+02   -.317E+01 -.584E+01 0.551E+02   -.451E+00 0.118E+01 -.503E+01   0.778E-04 -.644E-04 -.551E-03
   -.573E+00 0.230E+01 -.108E+03   0.103E+00 -.229E+01 0.118E+03   0.467E+00 -.104E-01 -.920E+01   -.480E-04 0.810E-04 0.253E-03
   -.184E+01 0.262E+01 -.351E+01   0.197E+01 -.269E+01 0.374E+01   -.129E+00 0.700E-01 -.238E+00   -.365E-03 0.764E-05 0.200E-03
   -.142E+02 0.259E+01 0.249E+01   0.138E+02 -.188E+01 -.252E+01   0.408E+00 -.713E+00 0.244E-01   -.835E-03 0.298E-04 0.369E-06
   -.187E+01 -.236E+01 0.437E+01   0.539E+01 0.240E+01 -.624E+01   -.352E+01 -.386E-01 0.187E+01   0.184E-03 -.231E-05 -.788E-04
   -.125E+02 0.709E+01 -.199E+01   0.140E+02 -.990E+01 0.343E+01   -.145E+01 0.282E+01 -.143E+01   0.267E-03 -.118E-03 -.146E-03
   0.168E+01 0.219E+01 -.366E+01   -.179E+01 -.225E+01 0.388E+01   0.112E+00 0.602E-01 -.225E+00   0.411E-03 -.125E-04 0.133E-03
   0.145E+02 0.103E+02 -.369E+01   -.161E+02 -.133E+02 0.529E+01   0.155E+01 0.299E+01 -.159E+01   -.248E-03 -.184E-04 -.134E-03
   0.248E+01 -.113E+02 -.327E+01   -.132E+01 0.120E+02 0.369E+01   -.115E+01 -.701E+00 -.417E+00   0.111E-03 -.106E-03 0.358E-04
   -.552E+01 0.128E+02 0.153E+01   0.738E+01 -.116E+02 -.121E+01   -.186E+01 -.115E+01 -.316E+00   0.496E-04 -.843E-03 0.570E-04
   0.268E+01 0.111E+02 -.251E+01   -.159E+01 -.119E+02 0.288E+01   -.109E+01 0.816E+00 -.377E+00   0.150E-03 -.730E-04 0.528E-04
   0.837E+01 0.112E+02 0.100E+02   -.118E+02 -.123E+02 -.132E+02   0.344E+01 0.117E+01 0.325E+01   -.146E-03 0.846E-03 0.562E-04
   0.854E+01 -.110E+02 0.103E+02   -.120E+02 0.123E+02 -.135E+02   0.345E+01 -.122E+01 0.326E+01   -.158E-03 -.566E-03 0.644E-04
   -.296E+01 -.686E+00 -.368E+02   0.440E+01 0.144E+01 0.362E+02   -.144E+01 -.751E+00 0.527E+00   0.109E-03 -.618E-04 0.755E-03
   0.627E+01 0.416E+01 0.593E+01   -.579E+01 -.574E+01 -.469E+01   -.476E+00 0.158E+01 -.124E+01   0.130E-03 -.651E-04 0.112E-03
   -.316E+00 0.239E+01 0.577E+02   -.496E+00 -.236E+01 -.586E+02   0.812E+00 -.412E-01 0.963E+00   -.120E-03 0.752E-04 0.269E-03
   0.120E+02 -.314E+01 -.521E+02   -.159E+02 0.324E+01 0.571E+02   0.390E+01 -.104E+00 -.501E+01   -.162E-03 0.114E-04 -.771E-03
   0.103E+02 -.340E+01 0.489E+02   -.141E+02 0.350E+01 -.540E+02   0.380E+01 -.102E+00 0.504E+01   -.204E-03 0.246E-04 0.123E-03
 -----------------------------------------------------------------------------------------------
   -.235E+01 -.134E+01 0.223E+00   -.238E-12 -.426E-13 0.156E-12   0.234E+01 0.134E+01 -.226E+00   -.176E-03 0.644E-03 0.188E-03
 
 
 POSITION                                       TOTAL-FORCE (eV/Angst)
 -----------------------------------------------------------------------------------
      0.00404      0.00425      7.55779        -0.001727      0.001945     -0.007370
      7.65151      7.64126      3.86651         0.000667      0.002247     -0.002972
      7.75671      3.83979      0.16160         0.002298      0.001516      0.001679
      0.00676      3.97720      3.84073        -0.000476      0.000545      0.003469
      3.88190      7.68041      0.16504        -0.001103     -0.001445     -0.001309
      3.96053      7.67437      3.87311        -0.003242     -0.002073     -0.000970
      4.06261      3.84165      7.74090         0.001029     -0.001625      0.003668
      3.88532      3.82822      3.87697         0.000250     -0.005381      0.003173
      5.85262      0.01574      3.86316        -0.005153      0.001796     -0.007555
      5.82338      3.84173      0.00297         0.003147     -0.000587      0.006090
      0.01173      5.74819      3.86676        -0.003366      0.002034     -0.001272
      3.89053      1.96079      3.87863        -0.001951     -0.000653      0.000787
      3.89335      5.70871      3.87969         0.000879      0.000242      0.001347
      7.77812      0.01729      5.83514        -0.002733      0.002818     -0.001005
      0.01023      3.83767      1.92307         0.002326      0.001823      0.002459
      3.88515      7.67791      1.88401        -0.002640     -0.002084     -0.000147
      1.94251      7.68086      7.74411        -0.000703     -0.000867     -0.006446
      1.92184      0.02042      3.86355        -0.000564     -0.001704     -0.005207
      1.96867      3.84413      7.73530         0.002065      0.000048      0.004312
      1.92695      3.80096      3.91825        -0.000094      0.002418      0.008304
      5.83640      7.68169      7.74554        -0.001684     -0.000337     -0.003560
      5.85699      3.79244      3.92717         0.000280     -0.002579      0.007438
      0.03435      1.91641      7.74437         0.004329      0.002945     -0.002383
      0.03184      1.94897      3.86849         0.001061      0.001594     -0.003433
      0.03274      5.77031      7.74302         0.002833      0.001436     -0.003752
      3.85065      1.93160      7.70879         0.001194     -0.001623      0.001589
      3.85092      5.75103      7.70902         0.001275     -0.001401      0.000955
      0.01039      0.02524      1.85224        -0.001334      0.001898     -0.004931
      0.02016      3.82411      5.85365         0.001189      0.002132      0.002384
      3.87797      7.67927      5.89614        -0.000423     -0.001915     -0.002566
      3.83368      3.83837      1.88354        -0.000031     -0.001567      0.003998
      3.84234      3.83915      5.85899         0.002405     -0.001592      0.003226
 -----------------------------------------------------------------------------------
    total drift:                               -0.002184      0.001937     -0.003115


--------------------------------------------------------------------------------------------------------



  FREE ENERGIE OF THE ION-ELECTRON SYSTEM (eV)
  ---------------------------------------------------
  free  energy   TOTEN  =      -212.03468123 eV

  energy  without entropy=     -212.03468123  energy(sigma->0) =     -212.03468123
 


--------------------------------------------------------------------------------------------------------


    POTLOK:  cpu time    0.9789: real time    0.9777


--------------------------------------------------------------------------------------------------------


 stress matrix after NEB project (eV)
      0.11229     -0.00344     -0.00510
     -0.00344      0.12840     -0.00571
     -0.00510     -0.00571      0.12500
  FORCES: max atom, RMS     0.009320    0.004994
  FORCE total and by dimension    0.028248    0.008304
  Stress total and by dimension    0.211804    0.128400
 Quasi-Newton relaxation of ions (Broydens 2nd method)
  g(Force)  = 0.385E-04   g(Stress)= 0.676E-04

 Reset! Starting new Quasi-Newton update for ions 


--------------------------------------------------------------------------------------------------------


  
 reached required accuracy - stopping structural energy minimisation
 writing wavefunctions
     LOOP+:  cpu time   44.3543: real time   45.5106
    4ORBIT:  cpu time    0.0000: real time    0.0000
 


 total charge     
 
# of ion       s       p       d       tot
------------------------------------------
    1        0.317   6.475   1.841   8.633
    2        0.317   6.451   1.753   8.521
    3        0.317   6.461   1.783   8.562
    4        0.319   6.465   1.777   8.561
    5        0.314   6.473   1.850   8.636
    6        0.303   6.426   1.666   8.395
    7        0.322   6.478   1.803   8.603
    8        0.295   6.453   1.744   8.492
    9        1.570   3.455   0.000   5.024
   10        1.570   3.458   0.000   5.028
   11        1.571   3.465   0.000   5.036
   12        1.566   3.419   0.000   4.985
   13        1.565   3.417   0.000   4.982
   14        1.574   3.451   0.000   5.026
   15        1.571   3.460   0.000   5.031
   16        1.576   3.445   0.000   5.020
   17        1.730   4.394   0.000   6.124
   18        1.729   4.365   0.000   6.094
   19        1.728   4.371   0.000   6.099
   20        1.731   4.392   0.000   6.123
   21        1.729   4.391   0.000   6.120
   22        1.730   4.389   0.000   6.119
   23        1.731   4.399   0.000   6.130
   24        1.729   4.376   0.000   6.106
   25        1.731   4.398   0.000   6.129
   26        1.731   4.397   0.000   6.128
   27        1.731   4.397   0.000   6.128
   28        1.728   4.374   0.000   6.103
   29        1.728   4.372   0.000   6.100
   30        1.729   4.375   0.000   6.104
   31        1.731   4.389   0.000   6.120
   32        1.732   4.392   0.000   6.123
--------------------------------------------------
tot         42.744 149.423  14.217 206.384
 


 magnetization (x)
 
# of ion       s       p       d       tot
------------------------------------------
    1        0.000   0.000  -0.000   0.000
    2        0.000  -0.000  -0.000  -0.000
    3        0.000   0.000   0.000   0.000
    4       -0.000   0.000  -0.000   0.000
    5        0.000   0.000  -0.000   0.000
    6        0.000   0.000   0.000   0.000
    7        0.000  -0.000   0.000   0.000
    8        0.000   0.000  -0.000   0.000
    9        0.000  -0.000   0.000  -0.000
   10        0.000  -0.000   0.000   0.000
   11       -0.000  -0.000   0.000  -0.000
   12       -0.000   0.000   0.000  -0.000
   13       -0.000  -0.000   0.000  -0.000
   14       -0.000  -0.000   0.000  -0.000
   15        0.000  -0.000   0.000   0.000
   16       -0.000  -0.000   0.000  -0.000
   17        0.000  -0.000   0.000   0.000
   18        0.000  -0.000   0.000   0.000
   19       -0.000   0.000   0.000  -0.000
   20       -0.000  -0.000   0.000  -0.000
   21       -0.000   0.000   0.000  -0.000
   22       -0.000  -0.000   0.000  -0.000
   23        0.000  -0.000   0.000   0.000
   24        0.000  -0.000   0.000  -0.000
   25       -0.000   0.000   0.000   0.000
   26       -0.000   0.000   0.000   0.000
   27       -0.000   0.000   0.000   0.000
   28       -0.000   0.000   0.000  -0.000
   29        0.000  -0.000   0.000   0.000
   30        0.000   0.000   0.000   0.000
   31        0.000   0.000   0.000   0.000
   32       -0.000   0.000   0.000  -0.000
--------------------------------------------------
tot         -0.000  -0.000   0.000  -0.000
 

 total amount of memory used by VASP MPI-rank0    62264. kBytes
=======================================================================

   base      :      30000. kBytes
   nonlr-proj:       8565. kBytes
   fftplans  :       8423. kBytes
   grid      :       8783. kBytes
   one-center:        124. kBytes
   wavefun   :       6369. kBytes
 
  
  
 General timing and accounting informations for this job:
 ========================================================
  
                  Total CPU time used (sec):       61.078
                            User time (sec):       56.206
                          System time (sec):        4.871
                         Elapsed time (sec):       71.301
  
                   Maximum memory used (kb):      175564.
                   Average memory used (kb):           0.
  
                          Minor page faults:        29651
                          Major page faults:            2
                 Voluntary context switches:        18295
