       N       E                     dE             d eps       ncg     rms          rms(c)
DAV:   1    -0.210809281443E+03   -0.21081E+03   -0.36938E-03 20480   0.392E-01    0.563E-03
DAV:   2    -0.210809281342E+03    0.10057E-06   -0.22415E-06 20512   0.109E-02
   1 F= -.21080928E+03 E0= -.21080928E+03  d E =-.210809E+03  mag=     0.0000
