LTO                                     
           1
     7.737044    0.000001    0.001896
     0.000025    7.686101    0.001135
     0.001904    0.001114    7.813308
   Ti   O    F 
   8   8  16
Direct configuration=     1
   0.00078896  0.00006418  0.97619009
   0.98673239  0.98783675  0.49566152
   0.97985725  0.49965316  0.00121812
   0.98499381  0.51212093  0.50087610
   0.49967320  0.00024972  0.99927745
   0.51080711  0.00084110  0.49939056
   0.50248348  0.50030383  0.02252223
   0.50749128  0.49992255  0.50135005
   0.75387462  0.00415484  0.49486612
   0.75330080  0.50063902  0.00098365
   0.75500506  0.49634234  0.50490340
   0.00694862  0.74967516  0.49626764
   0.49683645  0.24721636  0.50280672
   0.49655622  0.75363872  0.50275283
   0.99958527  0.00041754  0.75692026
   0.49696192  0.50040520  0.24381841
   0.25449809  0.99999883  0.00159484
   0.24773881  0.00446193  0.49416260
   0.24580399  0.50053406  0.99832787
   0.24603096  0.49570405  0.50634647
   0.74583230  0.99970550  0.00244999
   0.00539418  0.24912894  0.00431684
   0.01132145  0.25034383  0.49575936
   0.00554077  0.75049515  0.00507778
   0.49713514  0.24354084  0.99629865
   0.49692210  0.75701035  0.99621001
   0.00136485  0.00190414  0.23519711
   0.00946027  0.49617908  0.24419128
   0.00781922  0.49647851  0.75805845
   0.49864146  0.00023975  0.23623431
   0.49903784  0.00034805  0.76238416
   0.49556212  0.50044561  0.76358513
