 vasp.5.4.4.18Apr17-6-g9f103f2a35 (build Apr 30 2017 20:10:35) complex          
  
 executed on             LinuxIFC date 2017.08.07  22:35:27
 running on   64 total cores
 distrk:  each k-point on   64 cores,    1 groups
 distr:  one band on NCORES_PER_BAND=   8 cores,    8 groups


--------------------------------------------------------------------------------------------------------


 INCAR:
 POTCAR:   PAW_PBE Ti_pv 07Sep2000                
 POTCAR:   PAW_PBE O 08Apr2002                    
 POTCAR:    PAW_PBE F 08Apr2002                   
 POTCAR:   PAW_PBE Ti_pv 07Sep2000                
   VRHFIN =Ti: d3 s1                                                            
   LEXCH  = PE                                                                  
   EATOM  =  1042.3781 eV,   76.6126 Ry                                         
                                                                                
   TITEL  = PAW_PBE Ti_pv 07Sep2000                                             
   LULTRA =        F    use ultrasoft PP ?                                      
   IUNSCR =        1    unscreen: 0-lin 1-nonlin 2-no                           
   RPACOR =    2.200    partial core radius                                     
   POMASS =   47.880; ZVAL   =   10.000    mass and valenz                      
   RCORE  =    2.500    outmost cutoff radius                                   
   RWIGS  =    2.500; RWIGS  =    1.323    wigner-seitz radius (au A)           
   ENMAX  =  222.338; ENMIN  =  166.753 eV                                      
   RCLOC  =    1.701    cutoff for local pot                                    
   LCOR   =        T    correct aug charges                                     
   LPAW   =        T    paw PP                                                  
   EAUG   =  482.848                                                            
   DEXC   =    -.008                                                            
   RMAX   =    3.092    core radius for proj-oper                               
   RAUG   =    1.300    factor for augmentation sphere                          
   RDEP   =    2.538    radius for radial grids                                 
   QCUT   =   -4.042; QGAM   =    8.085    optimization parameters              
                                                                                
   Description                                                                  
     l     E      TYP  RCUT    TYP  RCUT                                        
     1   .000     23  2.300                                                     
     1  -.100     23  2.300                                                     
     2   .000     23  2.500                                                     
     2   .000     23  2.500                                                     
     0   .000     23  2.500                                                     
     0  1.500     23  2.500                                                     
     3   .000      7   .000                                                     
  local pseudopotential read in
  partial core-charges read in
  atomic valenz-charges read in
  non local Contribution for L=           1  read in
    real space projection operators read in
  non local Contribution for L=           1  read in
    real space projection operators read in
  non local Contribution for L=           2  read in
    real space projection operators read in
  non local Contribution for L=           2  read in
    real space projection operators read in
  non local Contribution for L=           0  read in
    real space projection operators read in
  non local Contribution for L=           0  read in
    real space projection operators read in
    PAW grid and wavefunctions read in
 
   number of l-projection  operators is LMAX  =           6
   number of lm-projection operators is LMMAX =          18
 
 POTCAR:   PAW_PBE O 08Apr2002                    
   VRHFIN =O: s2p4                                                              
   LEXCH  = PE                                                                  
   EATOM  =   432.3788 eV,   31.7789 Ry                                         
                                                                                
   TITEL  = PAW_PBE O 08Apr2002                                                 
   LULTRA =        F    use ultrasoft PP ?                                      
   IUNSCR =        0    unscreen: 0-lin 1-nonlin 2-no                           
   RPACOR =     .000    partial core radius                                     
   POMASS =   16.000; ZVAL   =    6.000    mass and valenz                      
   RCORE  =    1.520    outmost cutoff radius                                   
   RWIGS  =    1.550; RWIGS  =     .820    wigner-seitz radius (au A)           
   ENMAX  =  400.000; ENMIN  =  300.000 eV                                      
   ICORE  =        2    local potential                                         
   LCOR   =        T    correct aug charges                                     
   LPAW   =        T    paw PP                                                  
   EAUG   =  605.392                                                            
   DEXC   =     .000                                                            
   RMAX   =    2.264    core radius for proj-oper                               
   RAUG   =    1.300    factor for augmentation sphere                          
   RDEP   =    1.550    radius for radial grids                                 
   QCUT   =   -5.520; QGAM   =   11.041    optimization parameters              
                                                                                
   Description                                                                  
     l     E      TYP  RCUT    TYP  RCUT                                        
     0   .000     23  1.200                                                     
     0  -.700     23  1.200                                                     
     1   .000     23  1.520                                                     
     1   .600     23  1.520                                                     
     2   .000      7  1.500                                                     
  local pseudopotential read in
  atomic valenz-charges read in
  non local Contribution for L=           0  read in
    real space projection operators read in
  non local Contribution for L=           0  read in
    real space projection operators read in
  non local Contribution for L=           1  read in
    real space projection operators read in
  non local Contribution for L=           1  read in
    real space projection operators read in
    PAW grid and wavefunctions read in
 
   number of l-projection  operators is LMAX  =           4
   number of lm-projection operators is LMMAX =           8
 
 POTCAR:    PAW_PBE F 08Apr2002                   
   VRHFIN =F: s2p5                                                              
   LEXCH  = PE                                                                  
   EATOM  =   659.6475 eV,   48.4827 Ry                                         
                                                                                
   TITEL  = PAW_PBE F 08Apr2002                                                 
   LULTRA =        F    use ultrasoft PP ?                                      
   IUNSCR =        1    unscreen: 0-lin 1-nonlin 2-no                           
   RPACOR =    1.200    partial core radius                                     
   POMASS =   18.998; ZVAL   =    7.000    mass and valenz                      
   RCORE  =    1.520    outmost cutoff radius                                   
   RWIGS  =    1.500; RWIGS  =    0.794    wigner-seitz radius (au A)           
   ENMAX  =  400.000; ENMIN  =  300.000 eV                                      
   ICORE  =        2    local potential                                         
   LCOR   =        T    correct aug charges                                     
   LPAW   =        T    paw PP                                                  
   EAUG   =  613.614                                                            
   RMAX   =    1.555    core radius for proj-oper                               
   RAUG   =    1.300    factor for augmentation sphere                          
   RDEP   =    1.539    radius for radial grids                                 
   RDEPT  =    1.299    core radius for aug-charge                              
                                                                                
   Atomic configuration                                                         
    4 entries                                                                   
     n  l   j            E        occ.                                          
     1  0  0.50      -663.3661   2.0000                                         
     2  0  0.50       -29.8995   2.0000                                         
     2  1  0.50       -11.1114   5.0000                                         
     3  2  1.50       -10.8847   0.0000                                         
   Description                                                                  
     l       E           TYP  RCUT    TYP  RCUT                                 
     0    -29.8995018     23  1.200                                             
     0     -9.5240782     23  1.200                                             
     1    -11.1113914     23  1.520                                             
     1      1.3605826     23  1.520                                             
     2    -10.8846608      7  1.500                                             
  local pseudopotential read in
  partial core-charges read in
  partial kinetic energy density read in
  atomic valenz-charges read in
  non local Contribution for L=           0  read in
    real space projection operators read in
  non local Contribution for L=           0  read in
    real space projection operators read in
  non local Contribution for L=           1  read in
    real space projection operators read in
  non local Contribution for L=           1  read in
    real space projection operators read in
    PAW grid and wavefunctions read in
 
   number of l-projection  operators is LMAX  =           4
   number of lm-projection operators is LMMAX =           8
 
 Optimization of the real space projectors (new method)

 maximal supplied QI-value         = 15.12
 optimisation between [QCUT,QGAM] = [ 13.45, 27.06] = [ 50.69,205.06] Ry 
 Optimized for a Real-space Cutoff    1.49 Angstroem

   l    n(q)    QCUT    max X(q) W(low)/X(q) W(high)/X(q)  e(spline) 
   1     12    13.455     4.841    0.13E-05    0.83E-06    0.56E-07
   1     12    13.455     5.701    0.32E-04    0.25E-04    0.17E-06
   2     11    13.455     4.569    0.64E-05    0.34E-05    0.50E-07
   2     11    13.455    32.276    0.49E-04    0.38E-04    0.46E-06
   0     12    13.455    30.046    0.17E-04    0.41E-05    0.51E-07
   0     12    13.455    45.433    0.12E-04    0.27E-04    0.38E-06
 Optimization of the real space projectors (new method)

 maximal supplied QI-value         = 24.76
 optimisation between [QCUT,QGAM] = [ 13.37, 26.98] = [ 50.04,203.89] Ry 
 Optimized for a Real-space Cutoff    1.17 Angstroem

   l    n(q)    QCUT    max X(q) W(low)/X(q) W(high)/X(q)  e(spline) 
   0      9    13.368     4.192    0.20E-04    0.58E-05    0.56E-07
   0      9    13.368     8.473    0.60E-04    0.52E-04    0.21E-06
   1      9    13.368     2.474    0.22E-04    0.17E-04    0.28E-07
   1      9    13.368     3.912    0.94E-04    0.97E-04    0.20E-06
 Optimization of the real space projectors (new method)

 maximal supplied QI-value         = 24.76
 optimisation between [QCUT,QGAM] = [ 13.37, 26.98] = [ 50.04,203.89] Ry 
 Optimized for a Real-space Cutoff    1.17 Angstroem

   l    n(q)    QCUT    max X(q) W(low)/X(q) W(high)/X(q)  e(spline) 
   0      9    13.368    14.049    0.39E-04    0.34E-04    0.16E-06
   0      9    13.368     8.945    0.54E-04    0.47E-04    0.20E-06
   1      9    13.368     7.086    0.99E-04    0.10E-03    0.23E-06
   1      9    13.368     6.747    0.86E-04    0.89E-04    0.21E-06

 ----------------------------------------------------------------------------- 
|                                                                             |
|  ADVICE TO THIS USER RUNNING 'VASP/VAMP'   (HEAR YOUR MASTER'S VOICE ...):  |
|                                                                             |
|      You enforced a specific xc-type in the INCAR file,                     |
|      a different type was found on the POTCAR file                          |
|          I HOPE YOU KNOW, WHAT YOU ARE  DOING                               |
|                                                                             |
 ----------------------------------------------------------------------------- 

 PAW_PBE Ti_pv 07Sep2000                :
 energy of atom  1       EATOM=-1042.3781
 kinetic energy error for atom=    0.0006 (will be added to EATOM!!)
 PAW_PBE O 08Apr2002                    :
 energy of atom  2       EATOM= -432.3788
 kinetic energy error for atom=    0.0091 (will be added to EATOM!!)
  PAW_PBE F 08Apr2002                   :
 energy of atom  3       EATOM= -659.6475
 kinetic energy error for atom=    0.0140 (will be added to EATOM!!)
 
 
 POSCAR: TiOF2 2x2x2 config 2652                 
  positions in direct lattice
  velocities in cartesian coordinates
 exchange correlation table for  LEXCH =       14
   RHO(1)=    0.500       N(1)  =     2000
   RHO(2)=  100.500       N(2)  =     4000

 VTST: version 3.1, (03/28/14)

 CHAIN: initializing optimizer
 
 OPT: Using VASP QUASI-newton optimizer
 CHAIN: Read ICHAIN            0
 
 POSCAR: TiOF2 2x2x2 config 2652                 
  positions in direct lattice
  velocities in cartesian coordinates
 


--------------------------------------------------------------------------------------------------------


 ion  position               nearest neighbor table
   1  0.978  0.001  0.001-  10 1.72  23 1.93  25 1.93  28 1.95  29 1.95  17 2.03
   2  1.000  0.981  0.501-  11 1.74  28 1.93  29 1.94  20 1.94  18 1.94  24 2.02
   3  0.000  0.500  0.979-  14 1.75  21 1.90  19 1.91  23 1.93  25 1.93  30 2.06
   4  0.018  0.502  0.503-   9 1.80  14 1.93  11 1.94  24 1.99  30 2.00  22 2.06
   5  0.499  0.000  0.001-  12 1.92  13 1.92  15 1.98  10 2.01  31 2.01  17 2.03
   6  0.500  0.001  0.481-  15 1.73  26 1.92  27 1.92  18 1.97  20 1.97  31 2.02
   7  0.500  0.500  0.008-  16 1.91  13 1.92  12 1.92  19 2.00  21 2.00  32 2.02
   8  0.492  0.500  0.484-  16 1.77   9 1.90  26 1.95  27 1.96  32 2.03  22 2.04
   9  0.249  0.498  0.499-   4 1.80   8 1.90
  10  0.757  1.000  0.998-   1 1.72   5 2.01
  11  0.999  0.754  0.498-   2 1.74   4 1.94
  12  0.498  0.250  0.998-   5 1.92   7 1.92
  13  0.498  0.750  0.998-   7 1.92   5 1.92
  14  0.999  0.498  0.752-   3 1.75   4 1.93
  15  0.497  0.000  0.258-   6 1.73   5 1.98
  16  0.503  0.500  0.255-   8 1.77   7 1.91
  17  0.238  1.000  0.997-   1 2.03   5 2.03
  18  0.248  0.006  0.504-   2 1.94   6 1.97
  19  0.244  0.501  0.003-   3 1.91   7 2.00
  20  0.752  0.005  0.504-   2 1.94   6 1.97
  21  0.757  0.501  0.003-   3 1.90   7 2.00
  22  0.753  0.497  0.500-   8 2.04   4 2.06
  23  0.006  0.251  0.007-   3 1.93   1 1.93
  24  0.996  0.244  0.497-   4 1.99   2 2.02
  25  0.005  0.750  0.007-   3 1.93   1 1.93
  26  0.506  0.248  0.514-   6 1.92   8 1.95
  27  0.506  0.753  0.513-   6 1.92   8 1.96
  28  0.004  0.005  0.252-   2 1.93   1 1.95
  29  0.004  0.006  0.749-   2 1.94   1 1.95
  30  0.996  0.497  0.246-   4 2.00   3 2.06
  31  0.496  1.000  0.742-   5 2.01   6 2.02
  32  0.505  0.501  0.747-   7 2.02   8 2.03
 

IMPORTANT INFORMATION: All symmetrisations will be switched off!
NOSYMM: (Re-)initialisation of all symmetry stuff for point group C_1.

 
 
 KPOINTS: Title                                   

Automatic generation of k-mesh.
Space group operators:
 irot       det(A)        alpha          n_x          n_y          n_z        tau_x        tau_y        tau_z
    1     1.000000     0.000001     1.000000     0.000000     0.000000     0.000000     0.000000     0.000000
 
 Subroutine IBZKPT returns following result:
 ===========================================
 
 Found     32 irreducible k-points:
 
 Following reciprocal coordinates:
            Coordinates               Weight
  0.125000  0.125000  0.125000      2.000000
  0.375000  0.125000  0.125000      2.000000
 -0.375000  0.125000  0.125000      2.000000
 -0.125000  0.125000  0.125000      2.000000
  0.125000  0.375000  0.125000      2.000000
  0.375000  0.375000  0.125000      2.000000
 -0.375000  0.375000  0.125000      2.000000
 -0.125000  0.375000  0.125000      2.000000
  0.125000 -0.375000  0.125000      2.000000
  0.375000 -0.375000  0.125000      2.000000
 -0.375000 -0.375000  0.125000      2.000000
 -0.125000 -0.375000  0.125000      2.000000
  0.125000 -0.125000  0.125000      2.000000
  0.375000 -0.125000  0.125000      2.000000
 -0.375000 -0.125000  0.125000      2.000000
 -0.125000 -0.125000  0.125000      2.000000
  0.125000  0.125000  0.375000      2.000000
  0.375000  0.125000  0.375000      2.000000
 -0.375000  0.125000  0.375000      2.000000
 -0.125000  0.125000  0.375000      2.000000
  0.125000  0.375000  0.375000      2.000000
  0.375000  0.375000  0.375000      2.000000
 -0.375000  0.375000  0.375000      2.000000
 -0.125000  0.375000  0.375000      2.000000
  0.125000 -0.375000  0.375000      2.000000
  0.375000 -0.375000  0.375000      2.000000
 -0.375000 -0.375000  0.375000      2.000000
 -0.125000 -0.375000  0.375000      2.000000
  0.125000 -0.125000  0.375000      2.000000
  0.375000 -0.125000  0.375000      2.000000
 -0.375000 -0.125000  0.375000      2.000000
 -0.125000 -0.125000  0.375000      2.000000
 
 Following cartesian coordinates:
            Coordinates               Weight
  0.016054  0.016290  0.016161      2.000000
  0.048156  0.016291  0.016165      2.000000
 -0.048150  0.016287  0.016153      2.000000
 -0.016048  0.016288  0.016157      2.000000
  0.016055  0.048860  0.016170      2.000000
  0.048157  0.048861  0.016174      2.000000
 -0.048149  0.048857  0.016162      2.000000
 -0.016047  0.048858  0.016166      2.000000
  0.016051 -0.048850  0.016144      2.000000
  0.048153 -0.048848  0.016148      2.000000
 -0.048153 -0.048853  0.016136      2.000000
 -0.016051 -0.048851  0.016140      2.000000
  0.016052 -0.016280  0.016153      2.000000
  0.048154 -0.016279  0.016157      2.000000
 -0.048152 -0.016283  0.016145      2.000000
 -0.016050 -0.016281  0.016149      2.000000
  0.016058  0.016298  0.048471      2.000000
  0.048160  0.016300  0.048475      2.000000
 -0.048146  0.016296  0.048463      2.000000
 -0.016044  0.016297  0.048467      2.000000
  0.016059  0.048868  0.048480      2.000000
  0.048161  0.048869  0.048484      2.000000
 -0.048145  0.048865  0.048472      2.000000
 -0.016043  0.048867  0.048476      2.000000
  0.016055 -0.048841  0.048455      2.000000
  0.048157 -0.048840  0.048459      2.000000
 -0.048149 -0.048844  0.048447      2.000000
 -0.016047 -0.048843  0.048451      2.000000
  0.016057 -0.016272  0.048463      2.000000
  0.048159 -0.016270  0.048467      2.000000
 -0.048148 -0.016274  0.048455      2.000000
 -0.016046 -0.016273  0.048459      2.000000
 


--------------------------------------------------------------------------------------------------------




 Dimension of arrays:
   k-points           NKPTS =     32   k-points in BZ     NKDIM =     32   number of bands    NBANDS=    160
   number of dos      NEDOS =   3001   number of ions     NIONS =     32
   non local maximal  LDIM  =      6   non local SUM 2l+1 LMDIM =     18
   total plane-waves  NPLWV = 343000
   max r-space proj   IRMAX =  10282   max aug-charges    IRDMAX= 230504
   dimension x,y,z NGX =    70 NGY =   70 NGZ =   70
   dimension x,y,z NGXF=   140 NGYF=  140 NGZF=  140
   support grid    NGXF=   280 NGYF=  280 NGZF=  280
   ions per type =               8   8  16
   NGX,Y,Z   is equivalent  to a cutoff of  14.94, 15.16, 15.04 a.u.
   NGXF,Y,Z  is equivalent  to a cutoff of  29.89, 30.32, 30.08 a.u.

 SYSTEM =  LTO                                     
 POSCAR =  TiOF2 2x2x2 config 2652                 

 Startparameter for this run:
   NWRITE =      2    write-flag & timer
   PREC   = accura    normal or accurate (medium, high low for compatibility)
   ISTART =      1    job   : 0-new  1-cont  2-samecut
   ICHARG =      0    charge: 1-file 2-atom 10-const
   ISPIN  =      2    spin polarized calculation?
   LNONCOLLINEAR =      F non collinear calculations
   LSORBIT =      F    spin-orbit coupling
   INIWAV =      1    electr: 0-lowe 1-rand  2-diag
   LASPH  =      T    aspherical Exc in radial PAW
   METAGGA=      F    non-selfconsistent MetaGGA calc.

 Electronic Relaxation 1
   ENCUT  =  700.0 eV  51.45 Ry    7.17 a.u.  16.80 16.56 16.69*2*pi/ulx,y,z
   ENINI  =  700.0     initial cutoff
   ENAUG  =  613.6 eV  augmentation charge cutoff
   NELM   =     60;   NELMIN=  2; NELMDL=  0     # of ELM steps 
   EDIFF  = 0.1E-05   stopping-criterion for ELM
   LREAL  =      T    real-space projection
   NLSPLINE    = F    spline interpolate recip. space projectors
   LCOMPAT=      F    compatible to vasp.4.4
   GGA_COMPAT  = T    GGA compatible to vasp.4.4-vasp.4.6
   LMAXPAW     = -100 max onsite density
   LMAXMIX     =    4 max onsite mixed and CHGCAR
   VOSKOWN=      0    Vosko Wilk Nusair interpolation
   ROPT   =   -0.00010  -0.00010  -0.00010
 Ionic relaxation
   EDIFFG = -.1E-01   stopping-criterion for IOM
   NSW    =    100    number of steps for IOM
   NBLOCK =      1;   KBLOCK =    100    inner block; outer block 
   IBRION =      1    ionic relax: 0-MD 1-quasi-New 2-CG
   NFREE  =      0    steps in history (QN), initial steepest desc. (CG)
   ISIF   =      3    stress and relaxation
   IWAVPR =     11    prediction:  0-non 1-charg 2-wave 3-comb
   ISYM   =      0    0-nonsym 1-usesym 2-fastsym
   LCORR  =      T    Harris-Foulkes like correction to forces

   POTIM  = 0.5000    time-step for ionic-motion
   TEIN   =    0.0    initial temperature
   TEBEG  =    0.0;   TEEND  =   0.0 temperature during run
   SMASS  =  -3.00    Nose mass-parameter (am)
   estimated Nose-frequenzy (Omega)   =  0.10E-29 period in steps =****** mass=  -0.139E-26a.u.
   SCALEE = 1.0000    scale energy and forces
   NPACO  =    256;   APACO  = 16.0  distance and # of slots for P.C.
   PSTRESS=    0.0 pullay stress

  Mass of Ions in am
   POMASS =  47.88 16.00 19.00
  Ionic Valenz
   ZVAL   =  10.00  6.00  7.00
  Atomic Wigner-Seitz radii
   RWIGS  =  -1.00 -1.00 -1.00
  virtual crystal weights 
   VCA    =   1.00  1.00  1.00
   NELECT =     240.0000    total number of electrons
   NUPDOWN=      -1.0000    fix difference up-down

 DOS related values:
   EMIN   =  10.00;   EMAX   =-10.00  energy-range for DOS
   EFERMI =   0.00
   ISMEAR =     0;   SIGMA  =   0.01  broadening in eV -4-tet -1-fermi 0-gaus

 Electronic relaxation 2 (details)
   IALGO  =     38    algorithm
   LDIAG  =      T    sub-space diagonalisation (order eigenvalues)
   LSUBROT=      F    optimize rotation matrix (better conditioning)
   TURBO    =      0    0=normal 1=particle mesh
   IRESTART =      0    0=no restart 2=restart with 2 vectors
   NREBOOT  =      0    no. of reboots
   NMIN     =      0    reboot dimension
   EREF     =   0.00    reference energy to select bands
   IMIX   =      4    mixing-type and parameters
     AMIX     =   0.40;   BMIX     =  1.00
     AMIX_MAG =   1.60;   BMIX_MAG =  1.00
     AMIN     =   0.10
     WC   =   100.;   INIMIX=   1;  MIXPRE=   1;  MAXMIX= -45

 Intra band minimization:
   WEIMIN = 0.0010     energy-eigenvalue tresh-hold
   EBREAK =  0.16E-08  absolut break condition
   DEPER  =   0.30     relativ break condition  

   TIME   =   0.40     timestep for ELM

  volume/ion in A,a.u.               =      14.45        97.54
  Fermi-wavevector in a.u.,A,eV,Ry     =   1.315529  2.485989 23.546466  1.730616
  Thomas-Fermi vector in A             =   2.445705
 
 Write flags
   LWAVE        =      T    write WAVECAR
   LDOWNSAMPLE  =      F    k-point downsampling of WAVECAR
   LCHARG       =      T    write CHGCAR
   LVTOT        =      F    write LOCPOT, total local potential
   LVHAR        =      F    write LOCPOT, Hartree potential only
   LELF         =      F    write electronic localiz. function (ELF)
   LORBIT       =     11    0 simple, 1 ext, 2 COOP (PROOUT), +10 PAW based schemes


 Dipole corrections
   LMONO  =      F    monopole corrections only (constant potential shift)
   LDIPOL =      F    correct potential (dipole corrections)
   IDIPOL =      0    1-x, 2-y, 3-z, 4-all directions 
   EPSILON=  1.0000000 bulk dielectric constant

 LDA+U is selected, type is set to LDAUTYPE =  2
   angular momentum for each species LDAUL =     2   -1   -1
   U (eV)           for each species LDAUU =   4.2  0.0  0.0
   J (eV)           for each species LDAUJ =   0.0  0.0  0.0
 Exchange correlation treatment:
   GGA     =    PS    GGA type
   LEXCH   =    14    internal setting for exchange type
   VOSKOWN=      0    Vosko Wilk Nusair interpolation
   LHFCALC =     F    Hartree Fock is set to
   LHFONE  =     F    Hartree Fock one center treatment
   AEXX    =    0.0000 exact exchange contribution

 Linear response parameters
   LEPSILON=     F    determine dielectric tensor
   LRPA    =     F    only Hartree local field effects (RPA)
   LNABLA  =     F    use nabla operator in PAW spheres
   LVEL    =     F    velocity operator in full k-point grid
   LINTERFAST=   F  fast interpolation
   KINTER  =     0    interpolate to denser k-point grid
   CSHIFT  =0.1000    complex shift for real part using Kramers Kronig
   OMEGAMAX=  -1.0    maximum frequency
   DEG_THRESHOLD= 0.2000000E-02 threshold for treating states as degnerate
   RTIME   =   -0.100 relaxation time in fs
  (WPLASMAI=    0.000 imaginary part of plasma frequency in eV, 0.658/RTIME)
   DFIELD  = 0.0000000 0.0000000 0.0000000 field for delta impulse in time
 
 Orbital magnetization related:
   ORBITALMAG=     F  switch on orbital magnetization
   LCHIMAG   =     F  perturbation theory with respect to B field
   DQ        =  0.001000  dq finite difference perturbation B field
   LLRAUG    =     F  two centre corrections for induced B field



--------------------------------------------------------------------------------------------------------


 quasi-Newton-method for relaxation of ions
 charge density and potential will be updated during run
 spin polarized calculation
 Variant of blocked Davidson
 Davidson routine will perform the subspace rotation
 perform sub-space diagonalisation
    after iterative eigenvector-optimisation
 modified Broyden-mixing scheme, WC =      100.0
 initial mixing is a Kerker type mixing with AMIX =  0.4000 and BMIX =      1.0000
 Hartree-type preconditioning will be used
 using additional bands           40
 real space projection scheme for non local part
 use partial core corrections
 calculate Harris-corrections to forces 
   (improved forces if not selfconsistent)
 use gradient corrections 
 use of overlap-Matrix (Vanderbilt PP)
 Gauss-broadening in eV      SIGMA  =   0.01


--------------------------------------------------------------------------------------------------------


  energy-cutoff  :      700.00
  volume of cell :      462.52
      direct lattice vectors                 reciprocal lattice vectors
     7.787670104 -0.000287101 -0.000978675     0.128408112  0.000005353  0.000016001
    -0.000319744  7.675819154 -0.002005017     0.000004807  0.130279264  0.000033517
    -0.000964103 -0.001990588  7.737528563     0.000016243  0.000033760  0.129240244

  length of vectors
     7.787670171  7.675819423  7.737528879     0.128408113  0.130279268  0.129240250


 
 old parameters found on file WAVECAR:
  energy-cutoff  :      700.00
  volume of cell :      462.51
      direct lattice vectors                 reciprocal lattice vectors
     7.787277518 -0.000398456 -0.000372949     0.128414584  0.000007189  0.000006003
    -0.000429649  7.675958348 -0.002106874     0.000006668  0.130276902  0.000035220
    -0.000361588 -0.002091782  7.737527466     0.000006191  0.000035474  0.129240262

  length of vectors

 
 k-points in units of 2pi/SCALE and weight: Title                                   
   0.01605365  0.01628980  0.01616122       0.031
   0.04815567  0.01629114  0.01616522       0.031
  -0.04815041  0.01628712  0.01615322       0.031
  -0.01604838  0.01628846  0.01615722       0.031
   0.01605485  0.04885961  0.01616960       0.031
   0.04815688  0.04886095  0.01617360       0.031
  -0.04814921  0.04885694  0.01616160       0.031
  -0.01604718  0.04885827  0.01616560       0.031
   0.01605124 -0.04884983  0.01614446       0.031
   0.04815327 -0.04884850  0.01614846       0.031
  -0.04815281 -0.04885251  0.01613646       0.031
  -0.01605079 -0.04885117  0.01614046       0.031
   0.01605244 -0.01628002  0.01615284       0.031
   0.04815447 -0.01627868  0.01615684       0.031
  -0.04815161 -0.01628270  0.01614484       0.031
  -0.01604958 -0.01628136  0.01614884       0.031
   0.01605771  0.01629824  0.04847128       0.031
   0.04815973  0.01629958  0.04847528       0.031
  -0.04814635  0.01629556  0.04846328       0.031
  -0.01604432  0.01629690  0.04846728       0.031
   0.01605891  0.04886805  0.04847966       0.031
   0.04816094  0.04886939  0.04848366       0.031
  -0.04814515  0.04886538  0.04847166       0.031
  -0.01604312  0.04886671  0.04847566       0.031
   0.01605530 -0.04884139  0.04845452       0.031
   0.04815733 -0.04884006  0.04845852       0.031
  -0.04814875 -0.04884407  0.04844652       0.031
  -0.01604673 -0.04884273  0.04845052       0.031
   0.01605650 -0.01627158  0.04846290       0.031
   0.04815853 -0.01627024  0.04846690       0.031
  -0.04814755 -0.01627426  0.04845490       0.031
  -0.01604552 -0.01627292  0.04845890       0.031
 
 k-points in reciprocal lattice and weights: Title                                   
   0.12500000  0.12500000  0.12500000       0.031
   0.37500000  0.12500000  0.12500000       0.031
  -0.37500000  0.12500000  0.12500000       0.031
  -0.12500000  0.12500000  0.12500000       0.031
   0.12500000  0.37500000  0.12500000       0.031
   0.37500000  0.37500000  0.12500000       0.031
  -0.37500000  0.37500000  0.12500000       0.031
  -0.12500000  0.37500000  0.12500000       0.031
   0.12500000 -0.37500000  0.12500000       0.031
   0.37500000 -0.37500000  0.12500000       0.031
  -0.37500000 -0.37500000  0.12500000       0.031
  -0.12500000 -0.37500000  0.12500000       0.031
   0.12500000 -0.12500000  0.12500000       0.031
   0.37500000 -0.12500000  0.12500000       0.031
  -0.37500000 -0.12500000  0.12500000       0.031
  -0.12500000 -0.12500000  0.12500000       0.031
   0.12500000  0.12500000  0.37500000       0.031
   0.37500000  0.12500000  0.37500000       0.031
  -0.37500000  0.12500000  0.37500000       0.031
  -0.12500000  0.12500000  0.37500000       0.031
   0.12500000  0.37500000  0.37500000       0.031
   0.37500000  0.37500000  0.37500000       0.031
  -0.37500000  0.37500000  0.37500000       0.031
  -0.12500000  0.37500000  0.37500000       0.031
   0.12500000 -0.37500000  0.37500000       0.031
   0.37500000 -0.37500000  0.37500000       0.031
  -0.37500000 -0.37500000  0.37500000       0.031
  -0.12500000 -0.37500000  0.37500000       0.031
   0.12500000 -0.12500000  0.37500000       0.031
   0.37500000 -0.12500000  0.37500000       0.031
  -0.37500000 -0.12500000  0.37500000       0.031
  -0.12500000 -0.12500000  0.37500000       0.031
 
 position of ions in fractional coordinates (direct lattice) 
   0.97796954  0.00071688  0.00072817
   0.99976888  0.98078083  0.50051919
   0.00035520  0.50002936  0.97906893
   0.01759918  0.50209161  0.50318927
   0.49888411  0.00030733  0.00148729
   0.49976100  0.00085384  0.48127318
   0.50025800  0.50041135  0.00808778
   0.49184251  0.50012805  0.48401219
   0.24888819  0.49802574  0.49908109
   0.75656155  0.99986046  0.99838372
   0.99881018  0.75437655  0.49788632
   0.49775475  0.25021400  0.99775386
   0.49783439  0.75013243  0.99800954
   0.99889590  0.49812751  0.75235232
   0.49678696  0.00015878  0.25774002
   0.50278061  0.50042463  0.25512335
   0.23829184  0.99959136  0.99744106
   0.24772826  0.00554954  0.50404779
   0.24384914  0.50074481  0.00329269
   0.75211284  0.00465174  0.50398095
   0.75691837  0.50068322  0.00315277
   0.75268740  0.49740538  0.50044975
   0.00559214  0.25054797  0.00657617
   0.99622673  0.24361402  0.49658935
   0.00533273  0.75033461  0.00690527
   0.50574566  0.24811682  0.51406157
   0.50623809  0.75296455  0.51326323
   0.00396772  0.00543141  0.25187789
   0.00363950  0.00597007  0.74949757
   0.99638040  0.49729654  0.24581162
   0.49560774  0.99968031  0.74182569
   0.50493048  0.50077832  0.74653040
 
 position of ions in cartesian coordinates  (Angst):
   7.61610326  0.00522041  0.00467567
   7.78507403  7.52701293  3.86983658
   0.00166236  3.83618593  7.57457093
   0.13641098  3.85295769  3.89241743
   3.88514332  0.00221282  0.01101910
   3.89150949  0.00545245  3.72337413
   3.89567649  3.84090727  0.06108651
   3.82968066  3.83778776  3.74357402
   1.93761869  3.82169057  3.86041206
   5.89056949  7.67254350  7.72227742
   7.77768296  5.78918015  3.84991955
   3.87530787  1.91846836  7.71916017
   3.87576795  5.75575128  7.72013605
   7.77818710  3.82175226  5.81937122
   3.86856441  0.00056310  1.99378423
   3.91508352  3.84051679  1.97252881
   1.85445700  7.67062862  7.71549125
   1.92873823  0.04152277  3.89983064
   1.89885336  3.84355007  0.02423464
   5.85671934  0.03448674  3.89882159
   5.89446745  3.84293025  0.02264997
   5.86103964  3.81678149  3.87051032
   0.04346331  1.92314620  0.05037548
   7.75772848  1.86866262  3.84091088
   0.04128299  5.75941747  0.05192006
   3.93800540  1.90333132  3.97657367
   3.94167968  5.77845269  3.96938379
   0.03065475  0.04118801  1.94889759
   0.02761873  0.04433216  5.79924332
   7.75908588  3.81638296  1.90000224
   3.85859477  7.67174629  5.73740805
   3.93135213  3.84225279  5.77480207
 


--------------------------------------------------------------------------------------------------------


 k-point  1 :   0.1250 0.1250 0.1250  plane waves:   19466
 k-point  2 :   0.3750 0.1250 0.1250  plane waves:   19469
 k-point  3 :  -0.3750 0.1250 0.1250  plane waves:   19468
 k-point  4 :  -0.1250 0.1250 0.1250  plane waves:   19465
 k-point  5 :   0.1250 0.3750 0.1250  plane waves:   19449
 k-point  6 :   0.3750 0.3750 0.1250  plane waves:   19427
 k-point  7 :  -0.3750 0.3750 0.1250  plane waves:   19425
 k-point  8 :  -0.1250 0.3750 0.1250  plane waves:   19447
 k-point  9 :   0.1250-0.3750 0.1250  plane waves:   19442
 k-point 10 :   0.3750-0.3750 0.1250  plane waves:   19432
 k-point 11 :  -0.3750-0.3750 0.1250  plane waves:   19431
 k-point 12 :  -0.1250-0.3750 0.1250  plane waves:   19443
 k-point 13 :   0.1250-0.1250 0.1250  plane waves:   19466
 k-point 14 :   0.3750-0.1250 0.1250  plane waves:   19466
 k-point 15 :  -0.3750-0.1250 0.1250  plane waves:   19467
 k-point 16 :  -0.1250-0.1250 0.1250  plane waves:   19467
 k-point 17 :   0.1250 0.1250 0.3750  plane waves:   19459
 k-point 18 :   0.3750 0.1250 0.3750  plane waves:   19449
 k-point 19 :  -0.3750 0.1250 0.3750  plane waves:   19449
 k-point 20 :  -0.1250 0.1250 0.3750  plane waves:   19460
 k-point 21 :   0.1250 0.3750 0.3750  plane waves:   19439
 k-point 22 :   0.3750 0.3750 0.3750  plane waves:   19458
 k-point 23 :  -0.3750 0.3750 0.3750  plane waves:   19457
 k-point 24 :  -0.1250 0.3750 0.3750  plane waves:   19439
 k-point 25 :   0.1250-0.3750 0.3750  plane waves:   19438
 k-point 26 :   0.3750-0.3750 0.3750  plane waves:   19458
 k-point 27 :  -0.3750-0.3750 0.3750  plane waves:   19457
 k-point 28 :  -0.1250-0.3750 0.3750  plane waves:   19440
 k-point 29 :   0.1250-0.1250 0.3750  plane waves:   19455
 k-point 30 :   0.3750-0.1250 0.3750  plane waves:   19448
 k-point 31 :  -0.3750-0.1250 0.3750  plane waves:   19449
 k-point 32 :  -0.1250-0.1250 0.3750  plane waves:   19457

 maximum and minimum number of plane-waves per node :      2460     2391

 maximum number of plane-waves:     19469
 maximum index in each direction: 
   IXMAX=   17   IYMAX=   16   IZMAX=   16
   IXMIN=  -17   IYMIN=  -16   IZMIN=  -17


 real space projection operators:
  total allocation   :      18507.61 KBytes
  max/ min on nodes  :       2453.73       1928.17


 parallel 3D FFT for wavefunctions:
    minimum data exchange during FFTs selected (reduces bandwidth)
 parallel 3D FFT for charge:
    minimum data exchange during FFTs selected (reduces bandwidth)


 total amount of memory used by VASP MPI-rank0   107035. kBytes
=======================================================================

   base      :      30000. kBytes
   nonlr-proj:       8586. kBytes
   fftplans  :       8424. kBytes
   grid      :       8783. kBytes
   one-center:        124. kBytes
   wavefun   :      51118. kBytes
 
     INWAV:  cpu time   29.8645: real time   34.7005
 Broyden mixing: mesh for mixing (old mesh)
   NGX = 33   NGY = 33   NGZ = 33
  (NGX  =140   NGY  =140   NGZ  =140)
  gives a total of  35937 points

 charge density for first step will be calculated from the start-wavefunctions


--------------------------------------------------------------------------------------------------------


 Maximum index for non-local projection operator         1394
 Maximum index for augmentation-charges         7828 (set IRDMAX)


--------------------------------------------------------------------------------------------------------


 initial charge from wavefunction
 First call to EWALD:  gamma=   0.229
 Maximum number of real-space cells 3x 3x 3
 Maximum number of reciprocal cells 3x 3x 3

    FEWALD:  cpu time    0.0030: real time    0.0035


--------------------------------------- Iteration      1(   1)  ---------------------------------------


    POTLOK:  cpu time    0.1530: real time    0.2836
    SETDIJ:  cpu time    0.8859: real time    0.8948
     EDDAV:  cpu time   26.6260: real time   26.7317
       DOS:  cpu time    0.0030: real time    0.0033
    CHARGE:  cpu time    1.2688: real time    1.2770
    MIXING:  cpu time    0.0510: real time    0.0519
    --------------------------------------------
      LOOP:  cpu time   28.9876: real time   29.2424

 eigenvalue-minimisations  : 17952
 total energy-change (2. order) :-0.2119917E+03  (-0.8048787E-04)
 number of electron     240.0000003 magnetization      -0.0000000
 augmentation part       61.9876721 magnetization      -0.0000000

 Broyden mixing:
  rms(total) = 0.18102E-03    rms(broyden)= 0.17733E-03
  rms(prec ) = 0.29751E-03
  weight for this iteration     100.00

 Free energy of the ion-electron system (eV)
  ---------------------------------------------------
  alpha Z        PSCENC =       757.07620281
  Ewald energy   TEWEN  =    -12767.96344301
  -Hartree energ DENC   =     -8264.99643546
  -exchange      EXHF   =         0.00000000
  -V(xc)+E(xc)   XCENC  =      1119.69667492
  PAW double counting   =     18032.38496257   -18154.99564743
  entropy T*S    EENTRO =        -0.00000000
  eigenvalues    EBANDS =     -3235.54719258
  atomic energy  EATOM  =     22302.35321627
  Solvation  Ediel_sol  =         0.00000000
  ---------------------------------------------------
  free energy    TOTEN  =      -211.99166191 eV

  energy without entropy =     -211.99166191  energy(sigma->0) =     -211.99166191


--------------------------------------------------------------------------------------------------------




--------------------------------------- Iteration      1(   2)  ---------------------------------------


    POTLOK:  cpu time    0.1720: real time    0.1819
    SETDIJ:  cpu time    0.8849: real time    0.8827
     EDDAV:  cpu time   19.2331: real time   19.2271
       DOS:  cpu time    0.0040: real time    0.0036
    --------------------------------------------
      LOOP:  cpu time   20.2939: real time   20.2953

 eigenvalue-minimisations  : 10432
 total energy-change (2. order) : 0.2628803E-07  (-0.2516930E-07)
 number of electron     240.0000003 magnetization      -0.0000000
 augmentation part       61.9876721 magnetization      -0.0000000

 Free energy of the ion-electron system (eV)
  ---------------------------------------------------
  alpha Z        PSCENC =       757.07620281
  Ewald energy   TEWEN  =    -12767.96344301
  -Hartree energ DENC   =     -8264.99846538
  -exchange      EXHF   =         0.00000000
  -V(xc)+E(xc)   XCENC  =      1119.69669821
  PAW double counting   =     18032.38892103   -18154.99955420
  entropy T*S    EENTRO =        -0.00000000
  eigenvalues    EBANDS =     -3235.54523763
  atomic energy  EATOM  =     22302.35321627
  Solvation  Ediel_sol  =         0.00000000
  ---------------------------------------------------
  free energy    TOTEN  =      -211.99166189 eV

  energy without entropy =     -211.99166189  energy(sigma->0) =     -211.99166189


--------------------------------------------------------------------------------------------------------




 average (electrostatic) potential at core
  the test charge radii are     1.0397  0.7215  0.7167
  (the norm of the test charge is              1.0000)
       1 -59.1284       2 -59.5145       3 -59.2474       4 -58.7755       5 -58.1494
       6 -59.0058       7 -58.1631       8 -58.5044       9 -73.9267      10 -74.3085
      11 -74.6428      12 -72.7243      13 -72.7245      14 -74.3744      15 -74.1748
      16 -73.7065      17 -78.4532      18 -79.8276      19 -79.3093      20 -79.8278
      21 -79.3220      22 -78.2719      23 -79.9240      24 -79.0235      25 -79.9357
      26 -79.5056      27 -79.5144      28 -79.9937      29 -80.0055      30 -78.6674
      31 -78.4133      32 -78.0902
 
 
 
 E-fermi :  -0.0908     XC(G=0):  -8.9765     alpha+bet : -7.6397


 spin component 1

 k-point     1 :       0.1250    0.1250    0.1250
  band No.  band energies     occupation 
      1     -35.5683      1.00000
      2     -35.5332      1.00000
      3     -35.3390      1.00000
      4     -35.3318      1.00000
      5     -35.2489      1.00000
      6     -35.2218      1.00000
      7     -35.1750      1.00000
      8     -35.0830      1.00000
      9     -35.0629      1.00000
     10     -35.0601      1.00000
     11     -34.9243      1.00000
     12     -34.8104      1.00000
     13     -34.7041      1.00000
     14     -34.6456      1.00000
     15     -34.5856      1.00000
     16     -34.5564      1.00000
     17     -34.3896      1.00000
     18     -34.3263      1.00000
     19     -34.2245      1.00000
     20     -34.0923      1.00000
     21     -34.0716      1.00000
     22     -34.0436      1.00000
     23     -33.7716      1.00000
     24     -33.7096      1.00000
     25     -23.9708      1.00000
     26     -23.7955      1.00000
     27     -23.6679      1.00000
     28     -23.4053      1.00000
     29     -23.3746      1.00000
     30     -23.3204      1.00000
     31     -23.2414      1.00000
     32     -23.1632      1.00000
     33     -22.9054      1.00000
     34     -22.7078      1.00000
     35     -22.7041      1.00000
     36     -22.3246      1.00000
     37     -22.1489      1.00000
     38     -22.0554      1.00000
     39     -21.9343      1.00000
     40     -21.7386      1.00000
     41     -17.0578      1.00000
     42     -16.7709      1.00000
     43     -16.6653      1.00000
     44     -16.4831      1.00000
     45     -16.3896      1.00000
     46     -16.1304      1.00000
     47     -15.5175      1.00000
     48     -14.8599      1.00000
     49      -7.5648      1.00000
     50      -7.3864      1.00000
     51      -7.2727      1.00000
     52      -6.9363      1.00000
     53      -6.7792      1.00000
     54      -6.3535      1.00000
     55      -6.1605      1.00000
     56      -6.0602      1.00000
     57      -6.0166      1.00000
     58      -5.9757      1.00000
     59      -5.9377      1.00000
     60      -5.9068      1.00000
     61      -5.7966      1.00000
     62      -5.7386      1.00000
     63      -5.6940      1.00000
     64      -5.6421      1.00000
     65      -5.6333      1.00000
     66      -5.4897      1.00000
     67      -5.3958      1.00000
     68      -5.3083      1.00000
     69      -5.1081      1.00000
     70      -5.0063      1.00000
     71      -4.9734      1.00000
     72      -4.9042      1.00000
     73      -4.8637      1.00000
     74      -4.7347      1.00000
     75      -4.6947      1.00000
     76      -4.6209      1.00000
     77      -4.5770      1.00000
     78      -4.5052      1.00000
     79      -4.4437      1.00000
     80      -4.3304      1.00000
     81      -4.2787      1.00000
     82      -4.2195      1.00000
     83      -4.2045      1.00000
     84      -4.1131      1.00000
     85      -4.0523      1.00000
     86      -3.9959      1.00000
     87      -3.8771      1.00000
     88      -3.7347      1.00000
     89      -3.6930      1.00000
     90      -3.6856      1.00000
     91      -3.5653      1.00000
     92      -3.3797      1.00000
     93      -3.3534      1.00000
     94      -3.3388      1.00000
     95      -3.2520      1.00000
     96      -3.2257      1.00000
     97      -3.2096      1.00000
     98      -3.1424      1.00000
     99      -3.0500      1.00000
    100      -2.9653      1.00000
    101      -2.8325      1.00000
    102      -2.7968      1.00000
    103      -2.6346      1.00000
    104      -2.5519      1.00000
    105      -2.4902      1.00000
    106      -2.4335      1.00000
    107      -2.3267      1.00000
    108      -2.2595      1.00000
    109      -2.1877      1.00000
    110      -2.0024      1.00000
    111      -1.9364      1.00000
    112      -1.9039      1.00000
    113      -1.7704      1.00000
    114      -1.5664      1.00000
    115      -0.9222      1.00000
    116      -0.7679      1.00000
    117      -0.6968      1.00000
    118      -0.3280      1.00000
    119      -0.2589      1.00000
    120      -0.1564      1.00000
    121       1.7234      0.00000
    122       1.8511      0.00000
    123       1.9135      0.00000
    124       2.1289      0.00000
    125       2.2010      0.00000
    126       2.5034      0.00000
    127       2.5884      0.00000
    128       2.6220      0.00000
    129       2.7291      0.00000
    130       2.7583      0.00000
    131       2.8485      0.00000
    132       2.9336      0.00000
    133       2.9945      0.00000
    134       3.0889      0.00000
    135       3.1633      0.00000
    136       3.2198      0.00000
    137       3.2979      0.00000
    138       3.3785      0.00000
    139       3.3921      0.00000
    140       3.4608      0.00000
    141       3.5732      0.00000
    142       3.6900      0.00000
    143       3.7248      0.00000
    144       3.9244      0.00000
    145       3.9592      0.00000
    146       4.0132      0.00000
    147       4.0370      0.00000
    148       4.0535      0.00000
    149       4.3005      0.00000
    150       4.3809      0.00000
    151       4.6042      0.00000
    152       4.7255      0.00000
    153       4.7539      0.00000
    154       4.9345      0.00000
    155       5.3321      0.00000
    156       5.7528      0.00000
    157       6.0379      0.00000
    158       6.2356      0.00000
    159       6.4497      0.00000
    160       6.7724      0.00000

 k-point     2 :       0.3750    0.1250    0.1250
  band No.  band energies     occupation 
      1     -35.5683      1.00000
      2     -35.5288      1.00000
      3     -35.3390      1.00000
      4     -35.3318      1.00000
      5     -35.2471      1.00000
      6     -35.2218      1.00000
      7     -35.1750      1.00000
      8     -35.0882      1.00000
      9     -35.0629      1.00000
     10     -35.0601      1.00000
     11     -34.9232      1.00000
     12     -34.8103      1.00000
     13     -34.7041      1.00000
     14     -34.6456      1.00000
     15     -34.5810      1.00000
     16     -34.5564      1.00000
     17     -34.3946      1.00000
     18     -34.3265      1.00000
     19     -34.2272      1.00000
     20     -34.0937      1.00000
     21     -34.0716      1.00000
     22     -34.0436      1.00000
     23     -33.7716      1.00000
     24     -33.7096      1.00000
     25     -23.9621      1.00000
     26     -23.7778      1.00000
     27     -23.5778      1.00000
     28     -23.4296      1.00000
     29     -23.3980      1.00000
     30     -23.3194      1.00000
     31     -23.3146      1.00000
     32     -23.0501      1.00000
     33     -22.9051      1.00000
     34     -22.8297      1.00000
     35     -22.7048      1.00000
     36     -22.3229      1.00000
     37     -22.1433      1.00000
     38     -22.0547      1.00000
     39     -21.9289      1.00000
     40     -21.7385      1.00000
     41     -17.0593      1.00000
     42     -16.7719      1.00000
     43     -16.6850      1.00000
     44     -16.4828      1.00000
     45     -16.4054      1.00000
     46     -16.1296      1.00000
     47     -15.5161      1.00000
     48     -14.8599      1.00000
     49      -7.5540      1.00000
     50      -7.3651      1.00000
     51      -7.0119      1.00000
     52      -6.8653      1.00000
     53      -6.4097      1.00000
     54      -6.3824      1.00000
     55      -6.3447      1.00000
     56      -6.1606      1.00000
     57      -6.0600      1.00000
     58      -5.9785      1.00000
     59      -5.9099      1.00000
     60      -5.8894      1.00000
     61      -5.8107      1.00000
     62      -5.6886      1.00000
     63      -5.6679      1.00000
     64      -5.6418      1.00000
     65      -5.5262      1.00000
     66      -5.4578      1.00000
     67      -5.3395      1.00000
     68      -5.1624      1.00000
     69      -5.1288      1.00000
     70      -5.0908      1.00000
     71      -5.0558      1.00000
     72      -4.9249      1.00000
     73      -4.8874      1.00000
     74      -4.8162      1.00000
     75      -4.7808      1.00000
     76      -4.6438      1.00000
     77      -4.6138      1.00000
     78      -4.4700      1.00000
     79      -4.4255      1.00000
     80      -4.3868      1.00000
     81      -4.3556      1.00000
     82      -4.2626      1.00000
     83      -4.2080      1.00000
     84      -4.1132      1.00000
     85      -4.0053      1.00000
     86      -3.9583      1.00000
     87      -3.8728      1.00000
     88      -3.7756      1.00000
     89      -3.6939      1.00000
     90      -3.6789      1.00000
     91      -3.6281      1.00000
     92      -3.5785      1.00000
     93      -3.4724      1.00000
     94      -3.3197      1.00000
     95      -3.3126      1.00000
     96      -3.2345      1.00000
     97      -3.2219      1.00000
     98      -3.1282      1.00000
     99      -3.0696      1.00000
    100      -3.0245      1.00000
    101      -2.9096      1.00000
    102      -2.8284      1.00000
    103      -2.6485      1.00000
    104      -2.6078      1.00000
    105      -2.5230      1.00000
    106      -2.4191      1.00000
    107      -2.3868      1.00000
    108      -2.3609      1.00000
    109      -2.1989      1.00000
    110      -1.9490      1.00000
    111      -1.9199      1.00000
    112      -1.8190      1.00000
    113      -1.7731      1.00000
    114      -1.5902      1.00000
    115      -1.0045      1.00000
    116      -0.7754      1.00000
    117      -0.6695      1.00000
    118      -0.3283      1.00000
    119      -0.2801      1.00000
    120      -0.1589      1.00000
    121       1.7251      0.00000
    122       2.0049      0.00000
    123       2.1147      0.00000
    124       2.3044      0.00000
    125       2.3820      0.00000
    126       2.5011      0.00000
    127       2.5514      0.00000
    128       2.5768      0.00000
    129       2.6045      0.00000
    130       2.7663      0.00000
    131       2.8696      0.00000
    132       2.9346      0.00000
    133       3.0584      0.00000
    134       3.0685      0.00000
    135       3.1097      0.00000
    136       3.3088      0.00000
    137       3.3888      0.00000
    138       3.4115      0.00000
    139       3.5302      0.00000
    140       3.5619      0.00000
    141       3.6232      0.00000
    142       3.6846      0.00000
    143       3.7798      0.00000
    144       3.8738      0.00000
    145       3.9406      0.00000
    146       3.9740      0.00000
    147       4.0648      0.00000
    148       4.1941      0.00000
    149       4.4196      0.00000
    150       4.5565      0.00000
    151       4.6166      0.00000
    152       4.7261      0.00000
    153       4.7699      0.00000
    154       5.0000      0.00000
    155       5.3038      0.00000
    156       5.7232      0.00000
    157       6.0257      0.00000
    158       6.1202      0.00000
    159       6.2762      0.00000
    160       6.5777      0.00000

 k-point     3 :      -0.3750    0.1250    0.1250
  band No.  band energies     occupation 
      1     -35.5683      1.00000
      2     -35.5288      1.00000
      3     -35.3390      1.00000
      4     -35.3318      1.00000
      5     -35.2471      1.00000
      6     -35.2218      1.00000
      7     -35.1750      1.00000
      8     -35.0882      1.00000
      9     -35.0629      1.00000
     10     -35.0601      1.00000
     11     -34.9232      1.00000
     12     -34.8103      1.00000
     13     -34.7041      1.00000
     14     -34.6456      1.00000
     15     -34.5810      1.00000
     16     -34.5564      1.00000
     17     -34.3946      1.00000
     18     -34.3265      1.00000
     19     -34.2272      1.00000
     20     -34.0937      1.00000
     21     -34.0716      1.00000
     22     -34.0436      1.00000
     23     -33.7716      1.00000
     24     -33.7096      1.00000
     25     -23.9621      1.00000
     26     -23.7778      1.00000
     27     -23.5778      1.00000
     28     -23.4294      1.00000
     29     -23.3981      1.00000
     30     -23.3194      1.00000
     31     -23.3146      1.00000
     32     -23.0501      1.00000
     33     -22.9051      1.00000
     34     -22.8297      1.00000
     35     -22.7048      1.00000
     36     -22.3229      1.00000
     37     -22.1433      1.00000
     38     -22.0547      1.00000
     39     -21.9288      1.00000
     40     -21.7386      1.00000
     41     -17.0593      1.00000
     42     -16.7719      1.00000
     43     -16.6849      1.00000
     44     -16.4828      1.00000
     45     -16.4052      1.00000
     46     -16.1297      1.00000
     47     -15.5161      1.00000
     48     -14.8599      1.00000
     49      -7.5538      1.00000
     50      -7.3649      1.00000
     51      -7.0104      1.00000
     52      -6.8685      1.00000
     53      -6.4094      1.00000
     54      -6.3833      1.00000
     55      -6.3409      1.00000
     56      -6.1589      1.00000
     57      -6.0606      1.00000
     58      -5.9777      1.00000
     59      -5.9109      1.00000
     60      -5.8754      1.00000
     61      -5.8132      1.00000
     62      -5.6904      1.00000
     63      -5.6815      1.00000
     64      -5.6398      1.00000
     65      -5.5342      1.00000
     66      -5.4599      1.00000
     67      -5.3444      1.00000
     68      -5.1946      1.00000
     69      -5.1095      1.00000
     70      -5.0679      1.00000
     71      -5.0535      1.00000
     72      -4.9290      1.00000
     73      -4.9063      1.00000
     74      -4.8184      1.00000
     75      -4.7531      1.00000
     76      -4.6464      1.00000
     77      -4.6107      1.00000
     78      -4.4560      1.00000
     79      -4.4348      1.00000
     80      -4.3874      1.00000
     81      -4.3534      1.00000
     82      -4.2582      1.00000
     83      -4.2103      1.00000
     84      -4.1139      1.00000
     85      -4.0078      1.00000
     86      -3.9358      1.00000
     87      -3.8900      1.00000
     88      -3.7645      1.00000
     89      -3.7238      1.00000
     90      -3.6835      1.00000
     91      -3.6047      1.00000
     92      -3.5845      1.00000
     93      -3.4538      1.00000
     94      -3.3224      1.00000
     95      -3.2746      1.00000
     96      -3.2413      1.00000
     97      -3.2289      1.00000
     98      -3.1197      1.00000
     99      -3.0834      1.00000
    100      -3.0353      1.00000
    101      -2.9266      1.00000
    102      -2.8991      1.00000
    103      -2.6497      1.00000
    104      -2.6307      1.00000
    105      -2.4879      1.00000
    106      -2.4181      1.00000
    107      -2.3814      1.00000
    108      -2.3396      1.00000
    109      -2.2015      1.00000
    110      -1.9498      1.00000
    111      -1.9196      1.00000
    112      -1.7976      1.00000
    113      -1.7222      1.00000
    114      -1.6011      1.00000
    115      -1.0492      1.00000
    116      -0.7755      1.00000
    117      -0.6698      1.00000
    118      -0.3284      1.00000
    119      -0.2801      1.00000
    120      -0.1592      1.00000
    121       1.7246      0.00000
    122       2.0089      0.00000
    123       2.1323      0.00000
    124       2.3043      0.00000
    125       2.4198      0.00000
    126       2.4962      0.00000
    127       2.5277      0.00000
    128       2.5633      0.00000
    129       2.6052      0.00000
    130       2.7676      0.00000
    131       2.8759      0.00000
    132       2.9584      0.00000
    133       3.0019      0.00000
    134       3.0705      0.00000
    135       3.1190      0.00000
    136       3.3055      0.00000
    137       3.3773      0.00000
    138       3.3956      0.00000
    139       3.5299      0.00000
    140       3.5680      0.00000
    141       3.6259      0.00000
    142       3.6879      0.00000
    143       3.7868      0.00000
    144       3.8867      0.00000
    145       3.9461      0.00000
    146       3.9722      0.00000
    147       4.0531      0.00000
    148       4.2088      0.00000
    149       4.3815      0.00000
    150       4.5600      0.00000
    151       4.6203      0.00000
    152       4.7307      0.00000
    153       4.8191      0.00000
    154       5.0009      0.00000
    155       5.2771      0.00000
    156       5.7308      0.00000
    157       6.0288      0.00000
    158       6.1192      0.00000
    159       6.2633      0.00000
    160       6.5727      0.00000

 k-point     4 :      -0.1250    0.1250    0.1250
  band No.  band energies     occupation 
      1     -35.5683      1.00000
      2     -35.5332      1.00000
      3     -35.3390      1.00000
      4     -35.3318      1.00000
      5     -35.2489      1.00000
      6     -35.2218      1.00000
      7     -35.1750      1.00000
      8     -35.0830      1.00000
      9     -35.0629      1.00000
     10     -35.0601      1.00000
     11     -34.9243      1.00000
     12     -34.8104      1.00000
     13     -34.7041      1.00000
     14     -34.6456      1.00000
     15     -34.5856      1.00000
     16     -34.5564      1.00000
     17     -34.3896      1.00000
     18     -34.3263      1.00000
     19     -34.2245      1.00000
     20     -34.0923      1.00000
     21     -34.0716      1.00000
     22     -34.0436      1.00000
     23     -33.7716      1.00000
     24     -33.7096      1.00000
     25     -23.9708      1.00000
     26     -23.7955      1.00000
     27     -23.6680      1.00000
     28     -23.4052      1.00000
     29     -23.3746      1.00000
     30     -23.3204      1.00000
     31     -23.2414      1.00000
     32     -23.1632      1.00000
     33     -22.9053      1.00000
     34     -22.7079      1.00000
     35     -22.7040      1.00000
     36     -22.3246      1.00000
     37     -22.1489      1.00000
     38     -22.0554      1.00000
     39     -21.9342      1.00000
     40     -21.7387      1.00000
     41     -17.0578      1.00000
     42     -16.7709      1.00000
     43     -16.6652      1.00000
     44     -16.4832      1.00000
     45     -16.3895      1.00000
     46     -16.1305      1.00000
     47     -15.5175      1.00000
     48     -14.8599      1.00000
     49      -7.5645      1.00000
     50      -7.3861      1.00000
     51      -7.2732      1.00000
     52      -6.9369      1.00000
     53      -6.7791      1.00000
     54      -6.3519      1.00000
     55      -6.1606      1.00000
     56      -6.0606      1.00000
     57      -6.0121      1.00000
     58      -5.9740      1.00000
     59      -5.9216      1.00000
     60      -5.9061      1.00000
     61      -5.8246      1.00000
     62      -5.7395      1.00000
     63      -5.6902      1.00000
     64      -5.6479      1.00000
     65      -5.6334      1.00000
     66      -5.4788      1.00000
     67      -5.4113      1.00000
     68      -5.3068      1.00000
     69      -5.1075      1.00000
     70      -5.0138      1.00000
     71      -4.9702      1.00000
     72      -4.9106      1.00000
     73      -4.8570      1.00000
     74      -4.7281      1.00000
     75      -4.6832      1.00000
     76      -4.6160      1.00000
     77      -4.5905      1.00000
     78      -4.5019      1.00000
     79      -4.4446      1.00000
     80      -4.3239      1.00000
     81      -4.2768      1.00000
     82      -4.2164      1.00000
     83      -4.1969      1.00000
     84      -4.1131      1.00000
     85      -4.0536      1.00000
     86      -3.9867      1.00000
     87      -3.9022      1.00000
     88      -3.7342      1.00000
     89      -3.6987      1.00000
     90      -3.6884      1.00000
     91      -3.5267      1.00000
     92      -3.3703      1.00000
     93      -3.3555      1.00000
     94      -3.3376      1.00000
     95      -3.2590      1.00000
     96      -3.2252      1.00000
     97      -3.2044      1.00000
     98      -3.1415      1.00000
     99      -3.0537      1.00000
    100      -2.9815      1.00000
    101      -2.8519      1.00000
    102      -2.8472      1.00000
    103      -2.6354      1.00000
    104      -2.5697      1.00000
    105      -2.4626      1.00000
    106      -2.4313      1.00000
    107      -2.3147      1.00000
    108      -2.2874      1.00000
    109      -2.1897      1.00000
    110      -1.9501      1.00000
    111      -1.9056      1.00000
    112      -1.8711      1.00000
    113      -1.7879      1.00000
    114      -1.5779      1.00000
    115      -0.9569      1.00000
    116      -0.7680      1.00000
    117      -0.6972      1.00000
    118      -0.3281      1.00000
    119      -0.2588      1.00000
    120      -0.1566      1.00000
    121       1.7225      0.00000
    122       1.8526      0.00000
    123       1.9218      0.00000
    124       2.1290      0.00000
    125       2.2250      0.00000
    126       2.5028      0.00000
    127       2.5813      0.00000
    128       2.6168      0.00000
    129       2.7306      0.00000
    130       2.7453      0.00000
    131       2.8725      0.00000
    132       2.9381      0.00000
    133       3.0003      0.00000
    134       3.0783      0.00000
    135       3.1541      0.00000
    136       3.1862      0.00000
    137       3.2841      0.00000
    138       3.3676      0.00000
    139       3.3916      0.00000
    140       3.4592      0.00000
    141       3.5945      0.00000
    142       3.6912      0.00000
    143       3.7326      0.00000
    144       3.9281      0.00000
    145       3.9517      0.00000
    146       3.9923      0.00000
    147       4.0461      0.00000
    148       4.0826      0.00000
    149       4.3032      0.00000
    150       4.3825      0.00000
    151       4.6041      0.00000
    152       4.7245      0.00000
    153       4.7664      0.00000
    154       4.9258      0.00000
    155       5.3303      0.00000
    156       5.7561      0.00000
    157       6.0350      0.00000
    158       6.2345      0.00000
    159       6.4479      0.00000
    160       6.7662      0.00000

 k-point     5 :       0.1250    0.3750    0.1250
  band No.  band energies     occupation 
      1     -35.5683      1.00000
      2     -35.5332      1.00000
      3     -35.3298      1.00000
      4     -35.3178      1.00000
      5     -35.2489      1.00000
      6     -35.2218      1.00000
      7     -35.1975      1.00000
      8     -35.0830      1.00000
      9     -35.0626      1.00000
     10     -35.0546      1.00000
     11     -34.9242      1.00000
     12     -34.8105      1.00000
     13     -34.7066      1.00000
     14     -34.6457      1.00000
     15     -34.5856      1.00000
     16     -34.5630      1.00000
     17     -34.3896      1.00000
     18     -34.3263      1.00000
     19     -34.2245      1.00000
     20     -34.0923      1.00000
     21     -34.0715      1.00000
     22     -34.0437      1.00000
     23     -33.7573      1.00000
     24     -33.7241      1.00000
     25     -23.9427      1.00000
     26     -23.7016      1.00000
     27     -23.6454      1.00000
     28     -23.4726      1.00000
     29     -23.4012      1.00000
     30     -23.2648      1.00000
     31     -23.2271      1.00000
     32     -23.1563      1.00000
     33     -23.0485      1.00000
     34     -22.7058      1.00000
     35     -22.6985      1.00000
     36     -22.3244      1.00000
     37     -22.1480      1.00000
     38     -22.0542      1.00000
     39     -21.9334      1.00000
     40     -21.7381      1.00000
     41     -17.0820      1.00000
     42     -16.7697      1.00000
     43     -16.6620      1.00000
     44     -16.4821      1.00000
     45     -16.3892      1.00000
     46     -16.1278      1.00000
     47     -15.3417      1.00000
     48     -15.0695      1.00000
     49      -7.5175      1.00000
     50      -7.2716      1.00000
     51      -7.0419      1.00000
     52      -6.7777      1.00000
     53      -6.6011      1.00000
     54      -6.4735      1.00000
     55      -6.1567      1.00000
     56      -6.1171      1.00000
     57      -6.0654      1.00000
     58      -6.0110      1.00000
     59      -5.9435      1.00000
     60      -5.9244      1.00000
     61      -5.8058      1.00000
     62      -5.7855      1.00000
     63      -5.6782      1.00000
     64      -5.6228      1.00000
     65      -5.5524      1.00000
     66      -5.4680      1.00000
     67      -5.3722      1.00000
     68      -5.3298      1.00000
     69      -5.1906      1.00000
     70      -5.0335      1.00000
     71      -4.9324      1.00000
     72      -4.9170      1.00000
     73      -4.8817      1.00000
     74      -4.8677      1.00000
     75      -4.7467      1.00000
     76      -4.6964      1.00000
     77      -4.6602      1.00000
     78      -4.5442      1.00000
     79      -4.5179      1.00000
     80      -4.4089      1.00000
     81      -4.3058      1.00000
     82      -4.2384      1.00000
     83      -4.1927      1.00000
     84      -4.1769      1.00000
     85      -4.0183      1.00000
     86      -3.9770      1.00000
     87      -3.8654      1.00000
     88      -3.8248      1.00000
     89      -3.7180      1.00000
     90      -3.5406      1.00000
     91      -3.4246      1.00000
     92      -3.3815      1.00000
     93      -3.3506      1.00000
     94      -3.2509      1.00000
     95      -3.2437      1.00000
     96      -3.2220      1.00000
     97      -3.1708      1.00000
     98      -3.0892      1.00000
     99      -3.0106      1.00000
    100      -2.9110      1.00000
    101      -2.8249      1.00000
    102      -2.7710      1.00000
    103      -2.6697      1.00000
    104      -2.5549      1.00000
    105      -2.5179      1.00000
    106      -2.3982      1.00000
    107      -2.3282      1.00000
    108      -2.2611      1.00000
    109      -2.1283      1.00000
    110      -2.0016      1.00000
    111      -1.9723      1.00000
    112      -1.9413      1.00000
    113      -1.7717      1.00000
    114      -1.6245      1.00000
    115      -1.5254      1.00000
    116      -0.9241      1.00000
    117      -0.6550      1.00000
    118      -0.4444      1.00000
    119      -0.3751      1.00000
    120      -0.2106      1.00000
    121       1.8489      0.00000
    122       1.9632      0.00000
    123       2.1230      0.00000
    124       2.2019      0.00000
    125       2.3555      0.00000
    126       2.4519      0.00000
    127       2.6077      0.00000
    128       2.6786      0.00000
    129       2.7457      0.00000
    130       2.7744      0.00000
    131       2.8217      0.00000
    132       2.8594      0.00000
    133       2.9195      0.00000
    134       3.1574      0.00000
    135       3.1761      0.00000
    136       3.2267      0.00000
    137       3.3685      0.00000
    138       3.4115      0.00000
    139       3.5407      0.00000
    140       3.5887      0.00000
    141       3.6377      0.00000
    142       3.7229      0.00000
    143       3.8371      0.00000
    144       3.8995      0.00000
    145       3.9472      0.00000
    146       4.0450      0.00000
    147       4.1073      0.00000
    148       4.2162      0.00000
    149       4.3259      0.00000
    150       4.3342      0.00000
    151       4.4202      0.00000
    152       4.7199      0.00000
    153       4.8196      0.00000
    154       4.9174      0.00000
    155       5.4801      0.00000
    156       5.7998      0.00000
    157       5.9480      0.00000
    158       6.3416      0.00000
    159       6.4636      0.00000
    160       6.7731      0.00000

 k-point     6 :       0.3750    0.3750    0.1250
  band No.  band energies     occupation 
      1     -35.5683      1.00000
      2     -35.5288      1.00000
      3     -35.3299      1.00000
      4     -35.3178      1.00000
      5     -35.2471      1.00000
      6     -35.2218      1.00000
      7     -35.1975      1.00000
      8     -35.0881      1.00000
      9     -35.0627      1.00000
     10     -35.0546      1.00000
     11     -34.9231      1.00000
     12     -34.8105      1.00000
     13     -34.7066      1.00000
     14     -34.6456      1.00000
     15     -34.5810      1.00000
     16     -34.5630      1.00000
     17     -34.3945      1.00000
     18     -34.3264      1.00000
     19     -34.2272      1.00000
     20     -34.0937      1.00000
     21     -34.0716      1.00000
     22     -34.0437      1.00000
     23     -33.7573      1.00000
     24     -33.7241      1.00000
     25     -23.9303      1.00000
     26     -23.6725      1.00000
     27     -23.5638      1.00000
     28     -23.4710      1.00000
     29     -23.4065      1.00000
     30     -23.3853      1.00000
     31     -23.2288      1.00000
     32     -23.0483      1.00000
     33     -23.0437      1.00000
     34     -22.8293      1.00000
     35     -22.6975      1.00000
     36     -22.3227      1.00000
     37     -22.1424      1.00000
     38     -22.0536      1.00000
     39     -21.9280      1.00000
     40     -21.7380      1.00000
     41     -17.0835      1.00000
     42     -16.7707      1.00000
     43     -16.6817      1.00000
     44     -16.4817      1.00000
     45     -16.4048      1.00000
     46     -16.1270      1.00000
     47     -15.3406      1.00000
     48     -15.0691      1.00000
     49      -7.4992      1.00000
     50      -7.0383      1.00000
     51      -6.9280      1.00000
     52      -6.6037      1.00000
     53      -6.4832      1.00000
     54      -6.4027      1.00000
     55      -6.3751      1.00000
     56      -6.1566      1.00000
     57      -6.1112      1.00000
     58      -6.0703      1.00000
     59      -5.9446      1.00000
     60      -5.8921      1.00000
     61      -5.8251      1.00000
     62      -5.7839      1.00000
     63      -5.6738      1.00000
     64      -5.6198      1.00000
     65      -5.4590      1.00000
     66      -5.3675      1.00000
     67      -5.2771      1.00000
     68      -5.2208      1.00000
     69      -5.1578      1.00000
     70      -5.0324      1.00000
     71      -4.9728      1.00000
     72      -4.9443      1.00000
     73      -4.9001      1.00000
     74      -4.8813      1.00000
     75      -4.8390      1.00000
     76      -4.7865      1.00000
     77      -4.6896      1.00000
     78      -4.5710      1.00000
     79      -4.5421      1.00000
     80      -4.3857      1.00000
     81      -4.3652      1.00000
     82      -4.3187      1.00000
     83      -4.2759      1.00000
     84      -4.0874      1.00000
     85      -4.0316      1.00000
     86      -3.9159      1.00000
     87      -3.8880      1.00000
     88      -3.8318      1.00000
     89      -3.7312      1.00000
     90      -3.6411      1.00000
     91      -3.5832      1.00000
     92      -3.4792      1.00000
     93      -3.4304      1.00000
     94      -3.3353      1.00000
     95      -3.2743      1.00000
     96      -3.2496      1.00000
     97      -3.1705      1.00000
     98      -3.1162      1.00000
     99      -3.0346      1.00000
    100      -2.9480      1.00000
    101      -2.8719      1.00000
    102      -2.8010      1.00000
    103      -2.6866      1.00000
    104      -2.6095      1.00000
    105      -2.5235      1.00000
    106      -2.4041      1.00000
    107      -2.3828      1.00000
    108      -2.3652      1.00000
    109      -2.1460      1.00000
    110      -1.9927      1.00000
    111      -1.9518      1.00000
    112      -1.8135      1.00000
    113      -1.7760      1.00000
    114      -1.6277      1.00000
    115      -1.5102      1.00000
    116      -1.0041      1.00000
    117      -0.6225      1.00000
    118      -0.3847      1.00000
    119      -0.3738      1.00000
    120      -0.2123      1.00000
    121       1.9555      0.00000
    122       2.0092      0.00000
    123       2.2676      0.00000
    124       2.3775      0.00000
    125       2.4067      0.00000
    126       2.4580      0.00000
    127       2.5544      0.00000
    128       2.6101      0.00000
    129       2.7699      0.00000
    130       2.7814      0.00000
    131       2.8589      0.00000
    132       2.9140      0.00000
    133       2.9689      0.00000
    134       3.0626      0.00000
    135       3.1741      0.00000
    136       3.1867      0.00000
    137       3.4967      0.00000
    138       3.5268      0.00000
    139       3.5682      0.00000
    140       3.6394      0.00000
    141       3.6930      0.00000
    142       3.8409      0.00000
    143       3.8846      0.00000
    144       3.9472      0.00000
    145       4.0441      0.00000
    146       4.1188      0.00000
    147       4.1548      0.00000
    148       4.2190      0.00000
    149       4.3188      0.00000
    150       4.3946      0.00000
    151       4.6152      0.00000
    152       4.6592      0.00000
    153       4.7746      0.00000
    154       5.0477      0.00000
    155       5.3691      0.00000
    156       5.6502      0.00000
    157       5.9197      0.00000
    158       6.0238      0.00000
    159       6.3257      0.00000
    160       6.9100      0.00000

 k-point     7 :      -0.3750    0.3750    0.1250
  band No.  band energies     occupation 
      1     -35.5683      1.00000
      2     -35.5288      1.00000
      3     -35.3299      1.00000
      4     -35.3178      1.00000
      5     -35.2471      1.00000
      6     -35.2218      1.00000
      7     -35.1975      1.00000
      8     -35.0881      1.00000
      9     -35.0627      1.00000
     10     -35.0546      1.00000
     11     -34.9231      1.00000
     12     -34.8105      1.00000
     13     -34.7066      1.00000
     14     -34.6456      1.00000
     15     -34.5810      1.00000
     16     -34.5630      1.00000
     17     -34.3945      1.00000
     18     -34.3264      1.00000
     19     -34.2272      1.00000
     20     -34.0937      1.00000
     21     -34.0716      1.00000
     22     -34.0437      1.00000
     23     -33.7573      1.00000
     24     -33.7241      1.00000
     25     -23.9303      1.00000
     26     -23.6725      1.00000
     27     -23.5638      1.00000
     28     -23.4709      1.00000
     29     -23.4063      1.00000
     30     -23.3855      1.00000
     31     -23.2288      1.00000
     32     -23.0481      1.00000
     33     -23.0439      1.00000
     34     -22.8293      1.00000
     35     -22.6974      1.00000
     36     -22.3227      1.00000
     37     -22.1424      1.00000
     38     -22.0537      1.00000
     39     -21.9279      1.00000
     40     -21.7381      1.00000
     41     -17.0835      1.00000
     42     -16.7707      1.00000
     43     -16.6816      1.00000
     44     -16.4817      1.00000
     45     -16.4047      1.00000
     46     -16.1271      1.00000
     47     -15.3406      1.00000
     48     -15.0691      1.00000
     49      -7.4989      1.00000
     50      -7.0382      1.00000
     51      -6.9277      1.00000
     52      -6.6077      1.00000
     53      -6.4839      1.00000
     54      -6.4017      1.00000
     55      -6.3726      1.00000
     56      -6.1538      1.00000
     57      -6.1076      1.00000
     58      -6.0707      1.00000
     59      -5.9428      1.00000
     60      -5.8788      1.00000
     61      -5.8263      1.00000
     62      -5.7819      1.00000
     63      -5.7034      1.00000
     64      -5.6095      1.00000
     65      -5.4713      1.00000
     66      -5.3712      1.00000
     67      -5.2848      1.00000
     68      -5.2206      1.00000
     69      -5.1781      1.00000
     70      -4.9953      1.00000
     71      -4.9730      1.00000
     72      -4.9378      1.00000
     73      -4.9180      1.00000
     74      -4.8796      1.00000
     75      -4.8479      1.00000
     76      -4.7611      1.00000
     77      -4.6835      1.00000
     78      -4.5662      1.00000
     79      -4.5419      1.00000
     80      -4.3835      1.00000
     81      -4.3650      1.00000
     82      -4.3223      1.00000
     83      -4.2875      1.00000
     84      -4.0641      1.00000
     85      -4.0113      1.00000
     86      -3.9457      1.00000
     87      -3.9022      1.00000
     88      -3.8483      1.00000
     89      -3.7201      1.00000
     90      -3.6246      1.00000
     91      -3.5859      1.00000
     92      -3.4568      1.00000
     93      -3.4330      1.00000
     94      -3.3046      1.00000
     95      -3.2799      1.00000
     96      -3.2562      1.00000
     97      -3.1595      1.00000
     98      -3.1184      1.00000
     99      -3.0664      1.00000
    100      -2.9604      1.00000
    101      -2.8996      1.00000
    102      -2.8457      1.00000
    103      -2.6828      1.00000
    104      -2.6317      1.00000
    105      -2.4928      1.00000
    106      -2.4046      1.00000
    107      -2.3790      1.00000
    108      -2.3411      1.00000
    109      -2.1470      1.00000
    110      -1.9950      1.00000
    111      -1.9514      1.00000
    112      -1.7936      1.00000
    113      -1.7217      1.00000
    114      -1.6301      1.00000
    115      -1.5183      1.00000
    116      -1.0490      1.00000
    117      -0.6230      1.00000
    118      -0.3851      1.00000
    119      -0.3735      1.00000
    120      -0.2125      1.00000
    121       1.9540      0.00000
    122       2.0142      0.00000
    123       2.3008      0.00000
    124       2.4050      0.00000
    125       2.4188      0.00000
    126       2.4572      0.00000
    127       2.5233      0.00000
[...]
  0.000   0.000  -0.000   0.000   0.000   0.000   0.000   0.000  -0.000  -0.000   0.000  -0.000   0.000   0.000  -0.000  -0.000
 -0.000  -0.000   0.000   0.000  -0.000  -0.000   0.000   0.000  -0.000   0.000   0.000  -0.000   0.000  -0.000  -0.000  -0.000
 -0.000   0.000  -0.000   0.000  -0.000   0.000  -0.000  -0.000   0.000  -0.000  -0.000  -0.000   0.000  -0.000  -0.000   0.000
  0.000   0.000   0.000   0.000  -0.000   0.000   0.000  -0.000   0.000   0.000   0.000   0.000   0.000  -0.000  -0.000  -0.000
  0.000  -0.000  -0.000   0.000  -0.000  -0.000  -0.000   0.000   0.000   0.000  -0.000  -0.000  -0.000   0.000  -0.000  -0.000
  0.000  -0.000   0.000   0.000  -0.000   0.000  -0.000  -0.000   0.000  -0.000  -0.000  -0.000  -0.000  -0.000   0.000   0.000
  0.000   0.000  -0.000   0.000  -0.000   0.000   0.000  -0.000   0.000  -0.000  -0.000   0.000  -0.000  -0.000   0.000   0.000
 -0.000   0.000  -0.000   0.000  -0.000   0.000   0.000  -0.000   0.000  -0.000   0.000   0.000   0.000  -0.000   0.000  -0.000
 -0.000   0.000  -0.000   0.000  -0.000   0.000   0.000  -0.000   0.000  -0.000   0.000  -0.000   0.000  -0.000   0.000  -0.000


------------------------ aborting loop because EDIFF is reached ----------------------------------------


 


 total charge     
 
# of ion       s       p       d       tot
------------------------------------------
    1        0.314   6.474   1.846   8.634
    2        0.317   6.477   1.811   8.606
    3        0.321   6.479   1.808   8.608
    4        0.317   6.452   1.739   8.508
    5        0.299   6.434   1.673   8.406
    6        0.315   6.475   1.832   8.622
    7        0.299   6.439   1.698   8.437
    8        0.316   6.459   1.786   8.561
    9        1.568   3.459   0.000   5.027
   10        1.574   3.441   0.000   5.015
   11        1.573   3.460   0.000   5.034
   12        1.564   3.418   0.000   4.982
   13        1.564   3.419   0.000   4.983
   14        1.571   3.460   0.000   5.031
   15        1.574   3.448   0.000   5.021
   16        1.571   3.459   0.000   5.030
   17        1.729   4.374   0.000   6.102
   18        1.730   4.390   0.000   6.119
   19        1.731   4.388   0.000   6.118
   20        1.730   4.390   0.000   6.120
   21        1.731   4.387   0.000   6.118
   22        1.728   4.368   0.000   6.096
   23        1.731   4.398   0.000   6.129
   24        1.729   4.381   0.000   6.110
   25        1.731   4.397   0.000   6.128
   26        1.731   4.396   0.000   6.127
   27        1.731   4.394   0.000   6.125
   28        1.730   4.394   0.000   6.124
   29        1.730   4.393   0.000   6.123
   30        1.728   4.373   0.000   6.102
   31        1.729   4.378   0.000   6.107
   32        1.729   4.373   0.000   6.102
--------------------------------------------------
tot         42.737 149.425  14.194 206.356
 


 magnetization (x)
 
# of ion       s       p       d       tot
------------------------------------------
    1        0.000   0.000  -0.000   0.000
    2       -0.000  -0.000   0.000  -0.000
    3        0.000   0.000  -0.000  -0.000
    4       -0.000  -0.000   0.000  -0.000
    5       -0.000  -0.000   0.000  -0.000
    6        0.000   0.000  -0.000   0.000
    7       -0.000  -0.000  -0.000  -0.000
    8        0.000  -0.000   0.000   0.000
    9        0.000  -0.000   0.000  -0.000
   10       -0.000  -0.000   0.000  -0.000
   11        0.000  -0.000   0.000  -0.000
   12       -0.000  -0.000   0.000  -0.000
   13        0.000  -0.000   0.000  -0.000
   14        0.000   0.000   0.000   0.000
   15       -0.000  -0.000   0.000  -0.000
   16       -0.000  -0.000   0.000  -0.000
   17       -0.000  -0.000   0.000  -0.000
   18        0.000  -0.000   0.000  -0.000
   19       -0.000  -0.000   0.000  -0.000
   20        0.000  -0.000   0.000   0.000
   21        0.000   0.000   0.000   0.000
   22       -0.000  -0.000   0.000  -0.000
   23        0.000   0.000   0.000   0.000
   24        0.000   0.000   0.000   0.000
   25        0.000   0.000   0.000   0.000
   26        0.000   0.000   0.000   0.000
   27        0.000  -0.000   0.000  -0.000
   28        0.000   0.000   0.000   0.000
   29        0.000  -0.000   0.000  -0.000
   30        0.000  -0.000   0.000  -0.000
   31       -0.000   0.000   0.000   0.000
   32        0.000   0.000   0.000   0.000
--------------------------------------------------
tot          0.000  -0.000  -0.000  -0.000
 
    CHARGE:  cpu time    1.2028: real time    1.2012
    FORLOC:  cpu time    0.0100: real time    0.0098
    FORNL :  cpu time    7.1569: real time    7.2043
    STRESS:  cpu time   21.3758: real time   21.5418
    FORCOR:  cpu time    0.1310: real time    0.1312
    FORHAR:  cpu time    0.0930: real time    0.0930
    MIXING:  cpu time    0.0420: real time    0.0425
    OFIELD:  cpu time    0.0000: real time    0.0000

  FORCE on cell =-STRESS in cart. coord.  units (eV):
  Direction    XX          YY          ZZ          XY          YZ          ZX
  --------------------------------------------------------------------------------------
  Alpha Z   757.07620   757.07620   757.07620
  Ewald   -4313.57052 -4178.92911 -4275.51875     1.70281     0.90831     0.97452
  Hartree  2715.63163  2811.59605  2737.76976     0.54179    -0.12961    -0.48570
  E(xc)   -1232.19977 -1232.25050 -1232.33000     0.00529     0.00010     0.01611
  Local   -2067.91419 -2313.65878 -2142.41735    -1.89263    -0.73680     0.26000
  n-local  -970.26038  -967.08721  -967.81652    -0.12414    -0.07767    -0.34979
  augment   753.00344   758.23749   757.97788    -0.13550    -0.00186    -0.34379
  Kinetic  4358.23187  4365.03405  4365.26005    -0.10031     0.03398    -0.07342
  Fock        0.00000     0.00000     0.00000     0.00000     0.00000     0.00000
  -------------------------------------------------------------------------------------
  Total      -0.00172     0.01819     0.00127    -0.00271    -0.00354    -0.00207
  in kB      -0.00595     0.06303     0.00441    -0.00938    -0.01226    -0.00716
  external pressure =        0.02 kB  Pullay stress =        0.00 kB


 VOLUME and BASIS-vectors are now :
 -----------------------------------------------------------------------------
  energy-cutoff  :      700.00
  volume of cell :      462.52
      direct lattice vectors                 reciprocal lattice vectors
     7.787670104 -0.000287101 -0.000978675     0.128408112  0.000005353  0.000016001
    -0.000319744  7.675819154 -0.002005017     0.000004807  0.130279264  0.000033517
    -0.000964103 -0.001990588  7.737528563     0.000016243  0.000033760  0.129240244

  length of vectors
     7.787670171  7.675819423  7.737528879     0.128408113  0.130279268  0.129240250


 FORCES acting on ions
    electron-ion (+dipol)            ewald-force                    non-local-force                 convergence-correction
 -----------------------------------------------------------------------------------------------
   0.196E+02 0.113E+02 0.345E+01   -.192E+02 -.112E+02 -.338E+01   -.415E+00 -.107E+00 -.738E-01   0.710E-04 0.268E-03 -.480E-04
   0.262E+01 0.187E+02 -.912E+00   -.260E+01 -.186E+02 0.882E+00   -.182E-01 -.985E-01 0.297E-01   -.253E-03 0.103E-02 0.776E-04
   0.534E+01 -.949E+01 0.137E+02   -.529E+01 0.941E+01 -.139E+02   -.489E-01 0.790E-01 0.219E+00   -.194E-03 -.309E-03 -.183E-02
   -.783E+00 -.230E+02 -.145E+02   0.157E+01 0.238E+02 0.154E+02   -.787E+00 -.871E+00 -.869E+00   0.391E-03 -.108E-02 0.150E-02
   -.204E+02 0.148E+01 -.272E+02   0.211E+02 -.148E+01 0.279E+02   -.732E+00 0.410E-02 -.700E+00   -.288E-03 -.278E-03 -.159E-02
   0.240E+01 0.100E+02 0.277E+02   -.235E+01 -.992E+01 -.273E+02   -.563E-01 -.856E-01 -.350E+00   0.190E-03 0.169E-03 0.229E-02
   -.142E+01 -.466E+00 -.118E+02   0.141E+01 0.483E+00 0.129E+02   0.102E-01 -.105E-01 -.103E+01   0.205E-03 -.979E-03 0.314E-03
   0.197E+02 -.913E+01 0.118E+02   -.207E+02 0.903E+01 -.123E+02   0.107E+01 0.947E-01 0.539E+00   0.156E-03 -.210E-03 -.325E-03
   -.237E+02 -.164E+01 -.411E+01   0.265E+02 0.117E+01 0.483E+01   -.277E+01 0.469E+00 -.730E+00   -.209E-03 -.402E-03 0.680E-04
   0.108E+03 0.364E+01 -.354E+00   -.118E+03 -.372E+01 0.107E-01   0.930E+01 0.806E-01 0.343E+00   0.727E-03 0.134E-03 -.102E-03
   0.845E+01 0.759E+02 0.283E+01   -.975E+01 -.828E+02 -.337E+01   0.130E+01 0.689E+01 0.540E+00   0.745E-04 0.850E-03 0.197E-03
   -.208E+01 0.501E+01 -.800E+00   0.189E+01 -.500E+01 0.724E-01   0.195E+00 -.119E-01 0.729E+00   -.891E-04 0.219E-02 -.935E-04
   -.235E+01 -.658E+01 -.129E+01   0.217E+01 0.672E+01 0.586E+00   0.187E+00 -.136E+00 0.704E+00   -.598E-04 -.867E-03 -.894E-04
   0.872E+01 -.236E+01 0.634E+02   -.101E+02 0.196E+01 -.693E+02   0.139E+01 0.398E+00 0.589E+01   0.128E-03 -.435E-03 -.140E-02
   0.716E+00 0.310E+01 0.982E+02   -.107E+01 -.315E+01 -.107E+03   0.350E+00 0.523E-01 0.839E+01   -.156E-03 0.881E-04 0.254E-02
   -.722E+01 -.253E+01 0.503E+02   0.833E+01 0.254E+01 -.548E+02   -.111E+01 -.163E-01 0.441E+01   0.459E-03 -.226E-03 -.145E-02
   -.542E+02 0.417E+01 -.158E+01   0.549E+02 -.427E+01 0.111E+01   -.704E+00 0.104E+00 0.466E+00   -.112E-02 0.123E-03 -.643E-04
   -.170E+02 -.877E+01 -.591E+01   0.187E+02 0.117E+02 0.846E+01   -.172E+01 -.298E+01 -.255E+01   0.785E-03 0.416E-03 0.244E-03
   -.603E+02 -.341E+01 -.108E+02   0.655E+02 0.349E+01 0.131E+02   -.523E+01 -.859E-01 -.232E+01   0.178E-02 -.134E-03 0.317E-03
   0.156E+02 -.561E+01 -.698E+01   -.176E+02 0.845E+01 0.952E+01   0.199E+01 -.284E+01 -.254E+01   -.832E-03 0.642E-04 0.644E-04
   0.588E+02 -.346E+01 -.107E+02   -.642E+02 0.354E+01 0.130E+02   0.535E+01 -.808E-01 -.232E+01   -.182E-02 -.190E-03 -.371E-03
   -.839E+01 -.522E+01 -.380E+01   0.953E+01 0.478E+01 0.484E+01   -.114E+01 0.436E+00 -.103E+01   0.458E-03 -.404E-03 0.331E-03
   -.129E+02 -.819E+00 -.143E+02   0.166E+02 0.703E+00 0.178E+02   -.367E+01 0.117E+00 -.356E+01   -.695E-03 -.129E-02 -.179E-03
   0.954E+01 -.280E+02 0.204E+01   -.116E+02 0.273E+02 -.281E+01   0.207E+01 0.724E+00 0.769E+00   0.892E-05 -.525E-03 0.170E-03
   -.118E+02 0.345E+00 -.158E+02   0.153E+02 -.362E+00 0.193E+02   -.357E+01 0.151E-01 -.358E+01   -.722E-03 0.135E-02 -.280E-03
   -.733E+01 -.252E+02 -.247E+02   0.928E+01 0.275E+02 0.317E+02   -.194E+01 -.228E+01 -.696E+01   0.727E-03 -.179E-02 0.961E-04
   -.886E+01 0.252E+02 -.224E+02   0.109E+02 -.275E+02 0.291E+02   -.204E+01 0.232E+01 -.669E+01   0.486E-03 0.185E-02 -.995E-04
   -.112E+02 -.673E+01 0.871E+01   0.144E+02 0.977E+01 -.992E+01   -.314E+01 -.305E+01 0.121E+01   -.703E-03 0.270E-03 0.167E-03
   -.920E+01 -.898E+01 -.949E+01   0.123E+02 0.121E+02 0.105E+02   -.306E+01 -.314E+01 -.106E+01   -.833E-03 0.272E-03 -.156E-03
   0.113E+02 -.455E+01 -.141E+02   -.133E+02 0.404E+01 0.118E+02   0.200E+01 0.503E+00 0.231E+01   0.387E-04 -.505E-03 0.826E-03
   0.261E-01 0.411E+01 -.486E+02   -.513E+00 -.421E+01 0.488E+02   0.483E+00 0.104E+00 -.220E+00   -.244E-03 0.204E-04 -.191E-02
   -.433E+01 -.345E+01 -.222E+02   0.551E+01 0.351E+01 0.219E+02   -.118E+01 -.520E-01 0.238E+00   0.711E-03 -.111E-03 0.117E-02
 -----------------------------------------------------------------------------------------------
   0.762E+01 0.345E+01 0.981E+01   -.135E-12 0.142E-12 0.355E-13   -.761E+01 -.345E+01 -.981E+01   -.813E-03 -.640E-03 0.375E-03
 
 
 POSITION                                       TOTAL-FORCE (eV/Angst)
 -----------------------------------------------------------------------------------
      7.61610      0.00522      0.00468        -0.005221      0.000060     -0.000049
      7.78507      7.52701      3.86984        -0.000703      0.000328     -0.000654
      0.00166      3.83619      7.57457         0.000082     -0.000261     -0.002403
      0.13641      3.85296      3.89242         0.001987     -0.000971     -0.000783
      3.88514      0.00221      0.01102        -0.001693      0.005649      0.001152
      3.89151      0.00545      3.72337        -0.000233      0.000079     -0.000599
      3.89568      3.84091      0.06109         0.000585      0.005405     -0.001182
      3.82968      3.83779      3.74357         0.003094     -0.000361     -0.000324
      1.93762      3.82169      3.86041         0.003832     -0.001236     -0.001156
      5.89057      7.67254      7.72228        -0.001033      0.000845     -0.000052
      7.77768      5.78918      3.84992         0.003539      0.000138     -0.000858
      3.87531      1.91847      7.71916         0.000503     -0.002323      0.001310
      3.87577      5.75575      7.72014         0.000683     -0.001946      0.001800
      7.77819      3.82175      5.81937         0.004635     -0.001630      0.001142
      3.86856      0.00056      1.99378        -0.003221      0.000655      0.001443
      3.91508      3.84052      1.97253         0.000438     -0.000223      0.000107
      1.85446      7.67063      7.71549        -0.002795      0.000560      0.001244
      1.92874      0.04152      3.89983        -0.000178      0.002358      0.000966
      1.89885      3.84355      0.02423         0.000238      0.000705      0.003264
      5.85672      0.03449      3.89882        -0.000331     -0.003653     -0.001188
      5.89447      3.84293      0.02265         0.000444      0.000161     -0.002474
      5.86104      3.81678      3.87051         0.002178     -0.000656     -0.000110
      0.04346      1.92315      0.05038        -0.003430     -0.000288      0.000549
      7.75773      1.86866      3.84091         0.001427     -0.000817     -0.001734
      0.04128      5.75942      0.05192        -0.004052      0.000116     -0.000577
      3.93801      1.90333      3.97657         0.007900     -0.000399      0.002318
      3.94168      5.77845      3.96938         0.004129      0.000154     -0.000717
      0.03065      0.04119      1.94890        -0.005392     -0.001268     -0.000355
      0.02762      0.04433      5.79924        -0.006349     -0.000251     -0.000127
      7.75909      3.81638      1.90000         0.001655     -0.001444     -0.000588
      3.85859      7.67175      5.73741        -0.004281     -0.000524      0.000179
      3.93135      3.84225      5.77480         0.001565      0.001038      0.000454
 -----------------------------------------------------------------------------------
    total drift:                                0.003090     -0.002235      0.006205


--------------------------------------------------------------------------------------------------------



  FREE ENERGIE OF THE ION-ELECTRON SYSTEM (eV)
  ---------------------------------------------------
  free  energy   TOTEN  =      -211.99166189 eV

  energy  without entropy=     -211.99166189  energy(sigma->0) =     -211.99166189
 


--------------------------------------------------------------------------------------------------------


    POTLOK:  cpu time    1.0698: real time    1.0756


--------------------------------------------------------------------------------------------------------


 stress matrix after NEB project (eV)
     -0.00172     -0.00271     -0.00207
     -0.00271      0.01819     -0.00354
     -0.00207     -0.00354      0.00127
  FORCES: max atom, RMS     0.008242    0.003855
  FORCE total and by dimension    0.021810    0.007900
  Stress total and by dimension    0.019592    0.018194
 Quasi-Newton relaxation of ions (Broydens 2nd method)
  g(Force)  = 0.229E-04   g(Stress)= 0.579E-06

 Reset! Starting new Quasi-Newton update for ions 


--------------------------------------------------------------------------------------------------------


  
 reached required accuracy - stopping structural energy minimisation
 writing wavefunctions
     LOOP+:  cpu time  112.2449: real time  117.8917
    4ORBIT:  cpu time    0.0000: real time    0.0000
 


 total charge     
 
# of ion       s       p       d       tot
------------------------------------------
    1        0.314   6.474   1.846   8.634
    2        0.317   6.477   1.811   8.606
    3        0.321   6.479   1.808   8.608
    4        0.317   6.452   1.739   8.508
    5        0.299   6.434   1.673   8.406
    6        0.315   6.475   1.832   8.622
    7        0.299   6.439   1.698   8.437
    8        0.316   6.459   1.786   8.561
    9        1.568   3.459   0.000   5.027
   10        1.574   3.441   0.000   5.015
   11        1.573   3.460   0.000   5.034
   12        1.564   3.418   0.000   4.982
   13        1.564   3.419   0.000   4.983
   14        1.571   3.460   0.000   5.031
   15        1.574   3.448   0.000   5.021
   16        1.571   3.459   0.000   5.030
   17        1.729   4.374   0.000   6.102
   18        1.730   4.390   0.000   6.119
   19        1.731   4.388   0.000   6.118
   20        1.730   4.390   0.000   6.120
   21        1.731   4.387   0.000   6.118
   22        1.728   4.368   0.000   6.096
   23        1.731   4.398   0.000   6.129
   24        1.729   4.381   0.000   6.110
   25        1.731   4.397   0.000   6.128
   26        1.731   4.396   0.000   6.127
   27        1.731   4.394   0.000   6.125
   28        1.730   4.394   0.000   6.124
   29        1.730   4.393   0.000   6.123
   30        1.728   4.373   0.000   6.102
   31        1.729   4.378   0.000   6.107
   32        1.729   4.373   0.000   6.102
--------------------------------------------------
tot         42.737 149.425  14.194 206.356
 


 magnetization (x)
 
# of ion       s       p       d       tot
------------------------------------------
    1        0.000   0.000  -0.000   0.000
    2       -0.000  -0.000   0.000  -0.000
    3        0.000   0.000  -0.000  -0.000
    4       -0.000  -0.000   0.000  -0.000
    5       -0.000  -0.000   0.000  -0.000
    6        0.000   0.000  -0.000   0.000
    7       -0.000  -0.000  -0.000  -0.000
    8        0.000  -0.000   0.000   0.000
    9        0.000  -0.000   0.000  -0.000
   10       -0.000  -0.000   0.000  -0.000
   11        0.000  -0.000   0.000  -0.000
   12       -0.000  -0.000   0.000  -0.000
   13        0.000  -0.000   0.000  -0.000
   14        0.000   0.000   0.000   0.000
   15       -0.000  -0.000   0.000  -0.000
   16       -0.000  -0.000   0.000  -0.000
   17       -0.000  -0.000   0.000  -0.000
   18        0.000  -0.000   0.000  -0.000
   19       -0.000  -0.000   0.000  -0.000
   20        0.000  -0.000   0.000   0.000
   21        0.000   0.000   0.000   0.000
   22       -0.000  -0.000   0.000  -0.000
   23        0.000   0.000   0.000   0.000
   24        0.000   0.000   0.000   0.000
   25        0.000   0.000   0.000   0.000
   26        0.000   0.000   0.000   0.000
   27        0.000  -0.000   0.000  -0.000
   28        0.000   0.000   0.000   0.000
   29        0.000  -0.000   0.000  -0.000
   30        0.000  -0.000   0.000  -0.000
   31       -0.000   0.000   0.000   0.000
   32        0.000   0.000   0.000   0.000
--------------------------------------------------
tot          0.000  -0.000  -0.000  -0.000
 

 total amount of memory used by VASP MPI-rank0   107035. kBytes
=======================================================================

   base      :      30000. kBytes
   nonlr-proj:       8586. kBytes
   fftplans  :       8424. kBytes
   grid      :       8783. kBytes
   one-center:        124. kBytes
   wavefun   :      51118. kBytes
 
  
  
 General timing and accounting informations for this job:
 ========================================================
  
                  Total CPU time used (sec):      162.234
                            User time (sec):      149.529
                          System time (sec):       12.705
                         Elapsed time (sec):      175.000
  
                   Maximum memory used (kb):      222876.
                   Average memory used (kb):           0.
  
                          Minor page faults:        86749
                          Major page faults:            2
                 Voluntary context switches:        64135
