 vasp.5.4.4.18Apr17-6-g9f103f2a35 (build Jul 16 2019 12:12:28) complex          
  
 executed on             LinuxIFC date 2020.01.07  01:16:24
 running on   96 total cores
 distrk:  each k-point on   96 cores,    1 groups
 distr:  one band on NCORES_PER_BAND=   8 cores,   12 groups


--------------------------------------------------------------------------------------------------------


 INCAR:
 POTCAR:    PAW_PBE Li_sv 10Sep2004               
 POTCAR:    PAW_PBE Ti_pv 07Sep2000               
 POTCAR:    PAW_PBE O 08Apr2002                   
 POTCAR:    PAW_PBE F 08Apr2002                   
 POTCAR:    PAW_PBE Li_sv 10Sep2004               
   VRHFIN =Li: 1s2s2p                                                           
   LEXCH  = PE                                                                  
   EATOM  =   202.7858 eV,   14.9043 Ry                                         
                                                                                
   TITEL  = PAW_PBE Li_sv 10Sep2004                                             
   LULTRA =        F    use ultrasoft PP ?                                      
   IUNSCR =        0    unscreen: 0-lin 1-nonlin 2-no                           
   RPACOR =    0.000    partial core radius                                     
   POMASS =    7.010; ZVAL   =    3.000    mass and valenz                      
   RCORE  =    1.700    outmost cutoff radius                                   
   RWIGS  =    2.050; RWIGS  =    1.085    wigner-seitz radius (au A)           
   ENMAX  =  499.034; ENMIN  =  374.276 eV                                      
   ICORE  =        2    local potential                                         
   LCOR   =        T    correct aug charges                                     
   LPAW   =        T    paw PP                                                  
   EAUG   =  628.945                                                            
   RMAX   =    1.732    core radius for proj-oper                               
   RAUG   =    1.300    factor for augmentation sphere                          
   RDEP   =    1.728    radius for radial grids                                 
   RDEPT  =    1.329    core radius for aug-charge                              
                                                                                
   Atomic configuration                                                         
    4 entries                                                                   
     n  l   j            E        occ.                                          
     1  0  0.50       -51.8549   2.0000                                         
     2  0  0.50        -2.8742   1.0000                                         
     2  1  0.50        -1.3606   0.0000                                         
     3  2  1.50        -1.3606   0.0000                                         
   Description                                                                  
     l       E           TYP  RCUT    TYP  RCUT                                 
     0    -51.8548813     23  1.400                                             
     0     -2.8742052     23  1.700                                             
     1     -1.3605826     23  1.400                                             
     2     -1.3605826     23  1.400                                             
  local pseudopotential read in
  atomic valenz-charges read in
  non local Contribution for L=           0  read in
    real space projection operators read in
  non local Contribution for L=           0  read in
    real space projection operators read in
  non local Contribution for L=           1  read in
    real space projection operators read in
    PAW grid and wavefunctions read in
 
   number of l-projection  operators is LMAX  =           3
   number of lm-projection operators is LMMAX =           5
 
 POTCAR:    PAW_PBE Ti_pv 07Sep2000               
   VRHFIN =Ti: d3 s1                                                            
   LEXCH  = PE                                                                  
   EATOM  =  1042.5995 eV,   76.6289 Ry                                         
                                                                                
   TITEL  = PAW_PBE Ti_pv 07Sep2000                                             
   LULTRA =        F    use ultrasoft PP ?                                      
   IUNSCR =        1    unscreen: 0-lin 1-nonlin 2-no                           
   RPACOR =    2.200    partial core radius                                     
   POMASS =   47.880; ZVAL   =   10.000    mass and valenz                      
   RCORE  =    2.500    outmost cutoff radius                                   
   RWIGS  =    2.500; RWIGS  =    1.323    wigner-seitz radius (au A)           
   ENMAX  =  222.335; ENMIN  =  166.751 eV                                      
   RCLOC  =    1.701    cutoff for local pot                                    
   LCOR   =        T    correct aug charges                                     
   LPAW   =        T    paw PP                                                  
   EAUG   =  482.848                                                            
   DEXC   =    0.000                                                            
   RMAX   =    2.564    core radius for proj-oper                               
   RAUG   =    1.300    factor for augmentation sphere                          
   RDEP   =    2.538    radius for radial grids                                 
   RDEPT  =    1.952    core radius for aug-charge                              
                                                                                
   Atomic configuration                                                         
    8 entries                                                                   
     n  l   j            E        occ.                                          
     1  0  0.50     -4865.3608   2.0000                                         
     2  0  0.50      -533.1368   2.0000                                         
     2  1  1.50      -440.5031   6.0000                                         
     3  0  0.50       -59.3186   2.0000                                         
     3  1  1.50       -35.7012   6.0000                                         
     3  2  2.50        -1.9157   3.0000                                         
     4  0  0.50        -3.7291   1.0000                                         
     4  3  2.50        -1.3606   0.0000                                         
   Description                                                                  
     l       E           TYP  RCUT    TYP  RCUT                                 
     1    -35.7012140     23  2.300                                             
     1     -1.3605826     23  2.300                                             
     2     -1.9156996     23  2.500                                             
     2     -0.4063033     23  2.500                                             
     0     -3.7290856     23  2.500                                             
     0     20.4087390     23  2.500                                             
  local pseudopotential read in
  partial core-charges read in
  partial kinetic energy density read in
  atomic valenz-charges read in
  non local Contribution for L=           1  read in
    real space projection operators read in
  non local Contribution for L=           1  read in
    real space projection operators read in
  non local Contribution for L=           2  read in
    real space projection operators read in
  non local Contribution for L=           2  read in
    real space projection operators read in
  non local Contribution for L=           0  read in
    real space projection operators read in
  non local Contribution for L=           0  read in
    real space projection operators read in
    PAW grid and wavefunctions read in
 
   number of l-projection  operators is LMAX  =           6
   number of lm-projection operators is LMMAX =          18
 
 POTCAR:    PAW_PBE O 08Apr2002                   
   VRHFIN =O: s2p4                                                              
   LEXCH  = PE                                                                  
   EATOM  =   432.3788 eV,   31.7789 Ry                                         
                                                                                
   TITEL  = PAW_PBE O 08Apr2002                                                 
   LULTRA =        F    use ultrasoft PP ?                                      
   IUNSCR =        1    unscreen: 0-lin 1-nonlin 2-no                           
   RPACOR =    1.200    partial core radius                                     
   POMASS =   16.000; ZVAL   =    6.000    mass and valenz                      
   RCORE  =    1.520    outmost cutoff radius                                   
   RWIGS  =    1.550; RWIGS  =    0.820    wigner-seitz radius (au A)           
   ENMAX  =  400.000; ENMIN  =  300.000 eV                                      
   ICORE  =        2    local potential                                         
   LCOR   =        T    correct aug charges                                     
   LPAW   =        T    paw PP                                                  
   EAUG   =  605.392                                                            
   DEXC   =    0.000                                                            
   RMAX   =    1.553    core radius for proj-oper                               
   RAUG   =    1.300    factor for augmentation sphere                          
   RDEP   =    1.550    radius for radial grids                                 
   RDEPT  =    1.329    core radius for aug-charge                              
                                                                                
   Atomic configuration                                                         
    4 entries                                                                   
     n  l   j            E        occ.                                          
     1  0  0.50      -514.6923   2.0000                                         
     2  0  0.50       -23.9615   2.0000                                         
     2  1  0.50        -9.0305   4.0000                                         
     3  2  1.50        -9.5241   0.0000                                         
   Description                                                                  
     l       E           TYP  RCUT    TYP  RCUT                                 
     0    -23.9615318     23  1.200                                             
     0     -9.5240782     23  1.200                                             
     1     -9.0304911     23  1.520                                             
     1      8.1634956     23  1.520                                             
     2     -9.5240782      7  1.500                                             
  local pseudopotential read in
  partial core-charges read in
  partial kinetic energy density read in
  kinetic energy density of atom read in
  atomic valenz-charges read in
  non local Contribution for L=           0  read in
    real space projection operators read in
  non local Contribution for L=           0  read in
    real space projection operators read in
  non local Contribution for L=           1  read in
    real space projection operators read in
  non local Contribution for L=           1  read in
    real space projection operators read in
    PAW grid and wavefunctions read in
 
   number of l-projection  operators is LMAX  =           4
   number of lm-projection operators is LMMAX =           8
 
 POTCAR:    PAW_PBE F 08Apr2002                   
   VRHFIN =F: s2p5                                                              
   LEXCH  = PE                                                                  
   EATOM  =   659.6475 eV,   48.4827 Ry                                         
                                                                                
   TITEL  = PAW_PBE F 08Apr2002                                                 
   LULTRA =        F    use ultrasoft PP ?                                      
   IUNSCR =        1    unscreen: 0-lin 1-nonlin 2-no                           
   RPACOR =    1.200    partial core radius                                     
   POMASS =   18.998; ZVAL   =    7.000    mass and valenz                      
   RCORE  =    1.520    outmost cutoff radius                                   
   RWIGS  =    1.500; RWIGS  =    0.794    wigner-seitz radius (au A)           
   ENMAX  =  400.000; ENMIN  =  300.000 eV                                      
   ICORE  =        2    local potential                                         
   LCOR   =        T    correct aug charges                                     
   LPAW   =        T    paw PP                                                  
   EAUG   =  613.614                                                            
   RMAX   =    1.555    core radius for proj-oper                               
   RAUG   =    1.300    factor for augmentation sphere                          
   RDEP   =    1.539    radius for radial grids                                 
   RDEPT  =    1.299    core radius for aug-charge                              
                                                                                
   Atomic configuration                                                         
    4 entries                                                                   
     n  l   j            E        occ.                                          
     1  0  0.50      -663.3661   2.0000                                         
     2  0  0.50       -29.8995   2.0000                                         
     2  1  0.50       -11.1114   5.0000                                         
     3  2  1.50       -10.8847   0.0000                                         
   Description                                                                  
     l       E           TYP  RCUT    TYP  RCUT                                 
     0    -29.8995018     23  1.200                                             
     0     -9.5240782     23  1.200                                             
     1    -11.1113914     23  1.520                                             
     1      1.3605826     23  1.520                                             
     2    -10.8846608      7  1.500                                             
  local pseudopotential read in
  partial core-charges read in
  partial kinetic energy density read in
  atomic valenz-charges read in
  non local Contribution for L=           0  read in
    real space projection operators read in
  non local Contribution for L=           0  read in
    real space projection operators read in
  non local Contribution for L=           1  read in
    real space projection operators read in
  non local Contribution for L=           1  read in
    real space projection operators read in
    PAW grid and wavefunctions read in
 
   number of l-projection  operators is LMAX  =           4
   number of lm-projection operators is LMMAX =           8
 
 Optimization of the real space projectors (new method)

 maximal supplied QI-value         = 22.11
 optimisation between [QCUT,QGAM] = [ 11.28, 22.77] = [ 35.61,145.23] Ry 
 Optimized for a Real-space Cutoff    1.31 Angstroem

   l    n(q)    QCUT    max X(q) W(low)/X(q) W(high)/X(q)  e(spline) 
   0      9    11.276    10.506    0.19E-04    0.17E-04    0.32E-07
   0      9    11.276     8.367    0.38E-04    0.40E-04    0.65E-07
   1      8    11.276     8.983    0.55E-04    0.98E-04    0.20E-06
 Optimization of the real space projectors (new method)

 maximal supplied QI-value         = 15.12
 optimisation between [QCUT,QGAM] = [ 11.34, 22.83] = [ 36.00,145.93] Ry 
 Optimized for a Real-space Cutoff    1.56 Angstroem

   l    n(q)    QCUT    max X(q) W(low)/X(q) W(high)/X(q)  e(spline) 
   1     10    11.338     4.216    0.27E-04    0.12E-04    0.66E-07
   1     10    11.338     5.422    0.81E-04    0.24E-04    0.19E-06
   2     10    11.338    72.084    0.64E-04    0.21E-03    0.51E-06
   2     10    11.338    65.965    0.63E-04    0.21E-03    0.50E-06
   0     11    11.338    41.531    0.33E-04    0.54E-04    0.13E-06
   0     11    11.338    16.290    0.26E-04    0.41E-04    0.11E-06
 Optimization of the real space projectors (new method)

 maximal supplied QI-value         = 24.76
 optimisation between [QCUT,QGAM] = [ 11.39, 22.77] = [ 36.31,145.25] Ry 
 Optimized for a Real-space Cutoff    1.20 Angstroem

   l    n(q)    QCUT    max X(q) W(low)/X(q) W(high)/X(q)  e(spline) 
   0      8    11.387    20.381    0.89E-04    0.31E-03    0.27E-06
   0      8    11.387    15.268    0.93E-04    0.32E-03    0.29E-06
   1      8    11.387     5.964    0.53E-04    0.28E-03    0.29E-06
   1      8    11.387     5.382    0.37E-04    0.22E-03    0.26E-06
 Optimization of the real space projectors (new method)

 maximal supplied QI-value         = 24.76
 optimisation between [QCUT,QGAM] = [ 11.39, 22.77] = [ 36.31,145.25] Ry 
 Optimized for a Real-space Cutoff    1.20 Angstroem

   l    n(q)    QCUT    max X(q) W(low)/X(q) W(high)/X(q)  e(spline) 
   0      8    11.387    14.049    0.69E-04    0.23E-03    0.18E-06
   0      8    11.387     8.945    0.88E-04    0.30E-03    0.26E-06
   1      8    11.387     7.086    0.62E-04    0.27E-03    0.27E-06
   1      8    11.387     6.747    0.46E-04    0.23E-03    0.25E-06

 ----------------------------------------------------------------------------- 
|                                                                             |
|  ADVICE TO THIS USER RUNNING 'VASP/VAMP'   (HEAR YOUR MASTER'S VOICE ...):  |
|                                                                             |
|      You enforced a specific xc-type in the INCAR file,                     |
|      a different type was found on the POTCAR file                          |
|          I HOPE YOU KNOW, WHAT YOU ARE  DOING                               |
|                                                                             |
 ----------------------------------------------------------------------------- 

  PAW_PBE Li_sv 10Sep2004               :
 energy of atom  1       EATOM= -202.7858
 kinetic energy error for atom=    0.0143 (will be added to EATOM!!)
  PAW_PBE Ti_pv 07Sep2000               :
 energy of atom  2       EATOM=-1042.5995
 kinetic energy error for atom=    0.0024 (will be added to EATOM!!)
  PAW_PBE O 08Apr2002                   :
 energy of atom  3       EATOM= -432.3788
 kinetic energy error for atom=    0.0224 (will be added to EATOM!!)
  PAW_PBE F 08Apr2002                   :
 energy of atom  4       EATOM= -659.6475
 kinetic energy error for atom=    0.0354 (will be added to EATOM!!)
 
 
 POSCAR: config 48                               
  positions in direct lattice
  velocities in cartesian coordinates
 exchange correlation table for  LEXCH =       14
   RHO(1)=    0.500       N(1)  =     2000
   RHO(2)=  100.500       N(2)  =     4000

 VTST: version 3.2, (02/03/18)

 CHAIN: initializing optimizer
 
 OPT: Using VASP QUASI-newton optimizer
 CHAIN: Read ICHAIN            0
 
 POSCAR: config 48                               
  positions in direct lattice
  velocities in cartesian coordinates
 


--------------------------------------------------------------------------------------------------------


 ion  position               nearest neighbor table
   1  0.665  0.875  0.890-  88 1.97  81 2.04 249 2.17  56 2.87
   2  0.997  0.995  0.994- 118 1.86  68 1.87 103 1.91 171 2.00 212 2.03 130 2.04
   3  1.000  0.992  0.493- 119 1.80  67 1.83 172 1.94 193 1.95 131 2.02 213 2.08
   4  0.006  0.495  0.998-  89 1.84 117 1.86 138 1.93 132 1.98 194 2.01 214 2.02
   5  0.994  0.502  0.507-  66 1.82 104 1.83 215 1.93 223 2.00 173 2.01 137 2.03
   6  0.494  0.994  0.998- 121 1.83 101 1.83 133 1.96 140 1.97 216 2.02 174 2.03
   7  0.501  0.008  0.500- 112 1.77 191 1.90 139 1.92 134 1.92 175 1.93 225 2.01
   8  0.504  0.495  0.996-  90 1.88 120 1.88  70 1.88 192 2.03 135 2.03 217 2.05
   9  0.492  0.499  0.495- 102 1.81  69 1.86 224 1.97 218 1.98 136 2.01 176 2.06
  10  0.007  0.003  0.256-  91 1.83  67 1.86 219 1.94 227 1.97 130 2.00 197 2.06
  11  0.002  0.008  0.757-  68 1.80 113 1.84 177 1.94 198 1.99 228 2.03 131 2.05
  12  0.993  0.494  0.252- 107 1.82 122 1.86 137 1.93 132 1.96 220 2.00 178 2.02
  13  0.992  0.499  0.742- 108 1.82  66 1.82 226 1.93 221 1.96 138 2.02 179 2.04
  14  0.506  0.008  0.249- 114 1.81  92 1.84 133 1.92 139 1.97 195 2.00 231 2.04
  15  0.492  0.005  0.751- 105 1.80 115 1.83 140 1.94 134 1.99 232 2.02 180 2.04
  16  0.493  0.497  0.257-  69 1.82 106 1.84 229 1.96 222 1.99 135 2.01 181 2.04
  17  0.501  0.504  0.758-  70 1.80 116 1.87 182 1.94 196 1.97 230 2.03 136 2.06
  18  0.996  0.257  0.001- 117 1.81 110 1.88 141 1.96 146 1.96 183 2.00 212 2.02
  19  0.999  0.248  0.491-  74 1.77 213 1.91 184 1.93 202 1.93 223 1.94 142 2.01
  20  1.000  0.758  0.007- 118 1.81  71 1.85 203 1.94 185 1.96 148 2.04 214 2.05
  21  0.997  0.757  0.507-  72 1.82 119 1.83 204 1.94 186 1.96 215 2.02 147 2.03
  22  0.495  0.258  0.000- 120 1.80 109 1.84 150 1.96 143 1.97 187 2.03 216 2.06
  23  0.508  0.245  0.499-  93 1.80 112 1.90 144 1.92 149 1.93 224 1.96 199 2.00
  24  0.508  0.755  0.999-  94 1.77 121 1.88 152 1.95 145 1.99 217 2.00 200 2.04
  25  0.506  0.753  0.509-  73 1.79  95 1.83 218 1.96 225 1.96 201 2.01 151 2.06
  26  1.000  0.258  0.255- 122 1.79  74 1.88 209 1.94 188 1.95 141 1.98 219 2.02
  27  0.006  0.242  0.747- 113 1.81  96 1.83 142 1.96 146 1.97 226 2.04 210 2.05
  28  0.006  0.749  0.244-  71 1.82  97 1.83 220 1.95 227 1.98 147 2.04 211 2.05
  29  0.992  0.751  0.745- 111 1.81  72 1.85 228 1.94 221 1.98 148 2.02 189 2.03
  30  0.508  0.242  0.251-  98 1.82 114 1.82 143 1.92 149 1.96 229 2.00 205 2.02
  31  0.506  0.243  0.750-  99 1.84 115 1.84 150 1.92 144 1.97 230 2.01 206 2.01
  32  0.507  0.751  0.252- 100 1.79 151 1.92 231 1.93 145 1.94 222 1.94 207 2.01
  33  0.500  0.742  0.742- 116 1.80  73 1.84 190 1.93 208 1.96 152 2.01 232 2.08
  34  0.256  0.999  0.006-  75 1.84 101 1.85 246 1.93 233 1.96 171 2.01 157 2.04
  35  0.250  0.994  0.506- 128 1.82  76 1.84 172 1.94 191 1.98 234 2.02 156 2.02
  36  0.244  0.508  0.998- 123 1.82  89 1.84 159 1.93 153 1.97 192 2.01 245 2.04
  37  0.254  0.494  0.507-  77 1.85 102 1.87 127 1.88 173 2.03 235 2.04 158 2.04
  38  0.758  0.002  0.995- 103 1.77  81 1.92 249 1.93 236 1.93 154 2.02 174 2.06
  39  0.751  0.007  0.494-  80 1.83 124 1.83 193 1.92 175 1.98 155 2.00 250 2.01
  40  0.742  0.501  0.005-  90 1.80  78 1.88 237 1.90 247 1.96 161 2.03 194 2.06
  41  0.755  0.498  0.506-  79 1.84 104 1.85 248 1.95 238 1.97 176 2.01 160 2.02
  42  0.245  0.002  0.243-  75 1.83  91 1.85 239 1.93 252 1.96 156 2.04 195 2.06
  43  0.257  0.998  0.744-  76 1.84 105 1.84 253 1.92 240 1.96 177 2.01 157 2.02
  44  0.255  0.492  0.252- 129 1.83 106 1.83 158 1.93 153 1.96 241 2.03 178 2.03
  45  0.247  0.506  0.741-  77 1.79 125 1.83 179 1.95 196 1.97 251 2.03 159 2.05
  46  0.745  1.000  0.256-  92 1.85  80 1.85 256 1.94 242 1.95 197 1.99 154 2.02
  47  0.748  0.006  0.755- 126 1.82  81 1.85 180 1.95 198 1.95 257 2.03 155 2.04
  48  0.756  0.499  0.243-  78 1.81 107 1.86 243 1.95 254 1.96 181 2.02 160 2.05
  49  0.757  0.499  0.743- 108 1.83  79 1.84 255 1.94 244 1.97 161 2.01 182 2.03
  50  0.257  0.251  0.006- 109 1.83  82 1.86 245 1.93 233 1.97 168 2.02 183 2.05
  51  0.253  0.257  0.505- 127 1.80  83 1.85 199 1.96 184 2.01 167 2.03 234 2.05
  52  0.253  0.743  0.994- 123 1.82  86 1.83 200 1.93 185 1.96 162 2.04 246 2.04
  53  0.251  0.755  0.493-  85 1.83 128 1.86 201 1.94 186 1.96 235 2.00 163 2.04
  54  0.758  0.251  0.007- 110 1.80  84 1.85 247 1.92 236 1.94 170 2.02 187 2.04
  55  0.743  0.243  0.498- 124 1.81  93 1.84 169 1.93 164 1.95 248 2.00 202 2.03
  56  0.746  0.748  1.000-  94 1.91 237 1.98 203 1.99  88 2.03 249 2.03 165 2.05   1 2.87
  57  0.741  0.752  0.496-  95 1.82  87 1.85 250 1.95 238 1.96 166 1.98 204 2.03
  58  0.251  0.258  0.243- 129 1.82  82 1.82 205 1.96 188 1.99 167 2.03 239 2.03
  59  0.244  0.251  0.744-  83 1.83  96 1.84 251 1.93 240 1.98 168 2.03 206 2.05
  60  0.244  0.748  0.256-  97 1.83  85 1.84 241 1.93 252 1.98 162 2.02 207 2.06
  61  0.247  0.742  0.757- 125 1.81  86 1.84 189 1.92 208 1.98 163 2.04 253 2.04
  62  0.743  0.250  0.242-  84 1.79  98 1.83 254 1.93 242 1.94 209 2.03 169 2.05
  63  0.744  0.243  0.751-  99 1.83 126 1.83 170 1.93 164 1.99 210 2.01 255 2.02
  64  0.745  0.750  0.259-  87 1.81 100 1.90 243 1.94 256 1.96 165 1.97 211 1.98
  65  0.756  0.753  0.758-  88 1.78 111 1.84 257 1.96 244 1.98 190 2.04 166 2.08
  66  0.006  0.501  0.625-   5 1.82  13 1.82
  67  0.996  0.005  0.376-   3 1.83  10 1.86
  68  0.002  0.002  0.873-  11 1.80   2 1.87
  69  0.500  0.496  0.375-  16 1.82   9 1.86
  70  0.495  0.499  0.874-  17 1.80   8 1.88
  71  0.996  0.747  0.126-  28 1.82  20 1.85
  72  0.998  0.747  0.625-  21 1.82  29 1.85
  73  0.496  0.758  0.624-  25 1.79  33 1.84
  74  0.996  0.247  0.377-  19 1.77  26 1.88
  75  0.255  0.003  0.125-  42 1.83  34 1.84
  76  0.255  0.003  0.625-  43 1.84  35 1.84
  77  0.240  0.496  0.626-  45 1.79  37 1.85
  78  0.751  0.496  0.126-  48 1.81  40 1.88
  79  0.746  0.499  0.625-  41 1.84  49 1.84
  80  0.750  0.996  0.376-  39 1.83  46 1.85
  81  0.737  0.984  0.873-  47 1.85  38 1.92   1 2.04
  82  0.248  0.249  0.126-  58 1.82  50 1.86
  83  0.253  0.249  0.625-  59 1.83  51 1.85
  84  0.745  0.253  0.126-  62 1.79  54 1.85
  85  0.253  0.747  0.375-  53 1.83  60 1.84
  86  0.249  0.752  0.875-  52 1.83  61 1.84
  87  0.751  0.756  0.376-  64 1.81  57 1.85
  88  0.738  0.771  0.871-  65 1.78   1 1.97  56 2.03
  89  0.125  0.504  0.996-   4 1.84  36 1.84
  90  0.625  0.507  0.999-  40 1.80   8 1.88
  91  0.125  0.003  0.251-  10 1.83  42 1.85
  92  0.625  0.000  0.248-  14 1.84  46 1.85
  93  0.624  0.254  0.497-  23 1.80  55 1.84
  94  0.622  0.744  0.003-  24 1.77  56 1.91
  95  0.624  0.760  0.499-  57 1.82  25 1.83
  96  0.125  0.250  0.748-  27 1.83  59 1.84
  97  0.125  0.752  0.250-  60 1.83  28 1.83
  98  0.626  0.246  0.260-  30 1.82  62 1.83
  99  0.625  0.251  0.746-  63 1.83  31 1.84
 100  0.622  0.754  0.252-  32 1.79  64 1.90
 101  0.375  0.999  0.992-   6 1.83  34 1.85
 102  0.375  0.503  0.503-   9 1.81  37 1.87
 103  0.873  0.002  0.996-  38 1.77   2 1.91
 104  0.875  0.500  0.499-   5 1.83  41 1.85
 105  0.376  0.995  0.757-  15 1.80  43 1.84
 106  0.374  0.497  0.250-  44 1.83  16 1.84
 107  0.876  0.498  0.253-  12 1.82  48 1.86
 108  0.875  0.506  0.748-  13 1.82  49 1.83
 109  0.376  0.248  0.002-  50 1.83  22 1.84
 110  0.875  0.248  0.004-  54 1.80  18 1.88
 111  0.875  0.746  0.755-  29 1.81  65 1.84
 112  0.507  0.122  0.498-   7 1.77  23 1.90
 113  0.995  0.126  0.744-  27 1.81  11 1.84
 114  0.496  0.125  0.258-  14 1.81  30 1.82
 115  0.500  0.124  0.744-  15 1.83  31 1.84
 116  0.499  0.625  0.746-  33 1.80  17 1.87
 117  0.001  0.375  0.004-  18 1.81   4 1.86
 118  0.003  0.875  0.002-  20 1.81   2 1.86
 119  1.000  0.875  0.499-   3 1.80  21 1.83
 120  0.503  0.374  0.004-  22 1.80   8 1.88
 121  0.507  0.877  0.994-   6 1.83  24 1.88
 122  0.006  0.374  0.248-  26 1.79  12 1.86
 123  0.256  0.625  0.002-  52 1.82  36 1.82
 124  0.745  0.125  0.500-  55 1.81  39 1.83
 125  0.249  0.625  0.750-  61 1.81  45 1.83
 126  0.752  0.124  0.754-  47 1.82  63 1.83
 127  0.250  0.373  0.494-  51 1.80  37 1.88
 128  0.250  0.876  0.500-  35 1.82  53 1.86
 129  0.243  0.374  0.256-  58 1.82  44 1.83
 130  0.998  0.003  0.126-  10 2.00   2 2.04
 131  0.002  0.998  0.624-   3 2.02  11 2.05
 132  1.000  0.507  0.125-  12 1.96   4 1.98
 133  0.495  0.001  0.125-  14 1.92   6 1.96
 134  0.497  0.991  0.623-   7 1.92  15 1.99
 135  0.501  0.505  0.127-  16 2.01   8 2.03
 136  0.506  0.498  0.624-   9 2.01  17 2.06
 137  0.004  0.497  0.376-  12 1.93   5 2.03
 138  0.996  0.498  0.873-   4 1.93  13 2.02
 139  0.504  0.994  0.376-   7 1.92  14 1.97
 140  0.517  0.005  0.874-  15 1.94   6 1.97
 141  0.006  0.246  0.127-  18 1.96  26 1.98
 142  0.998  0.257  0.621-  27 1.96  19 2.01
 143  0.506  0.242  0.126-  30 1.92  22 1.97
 144  0.494  0.250  0.623-  23 1.92  31 1.97
 145  0.495  0.752  0.127-  32 1.94  24 1.99
 146  0.997  0.250  0.874-  18 1.96  27 1.97
 147  0.996  0.750  0.376-  21 2.03  28 2.04
 148  0.006  0.751  0.875-  29 2.02  20 2.04
 149  0.493  0.259  0.376-  23 1.93  30 1.96
 150  0.502  0.249  0.874-  31 1.92  22 1.96
 151  0.493  0.751  0.376-  32 1.92  25 2.06
 152  0.501  0.748  0.873-  24 1.95  33 2.01
 153  0.246  0.495  0.125-  44 1.96  36 1.97
 154  0.751  0.009  0.125-  46 2.02  38 2.02
 155  0.748  0.003  0.623-  39 2.00  47 2.04
 156  0.252  0.001  0.375-  35 2.02  42 2.04
 157  0.243  0.995  0.874-  43 2.02  34 2.04
 158  0.246  0.510  0.375-  44 1.93  37 2.04
 159  0.258  0.497  0.874-  36 1.93  45 2.05
 160  0.746  0.502  0.375-  41 2.02  48 2.05
 161  0.751  0.497  0.874-  49 2.01  40 2.03
 162  0.253  0.754  0.125-  60 2.02  52 2.04
 163  0.250  0.751  0.625-  61 2.04  53 2.04
 164  0.753  0.254  0.624-  55 1.95  63 1.99
 165  0.755  0.742  0.132-  64 1.97  56 2.05
 166  0.750  0.744  0.624-  57 1.98  65 2.08
 167  0.252  0.244  0.375-  51 2.03  58 2.03
 168  0.251  0.251  0.875-  50 2.02  59 2.03
 169  0.760  0.247  0.374-  55 1.93  62 2.05
 170  0.750  0.252  0.876-  63 1.93  54 2.02
 171  0.126  0.003  0.003-   2 2.00  34 2.01
 172  0.125  0.008  0.499-  35 1.94   3 1.94
 173  0.123  0.501  0.494-   5 2.01  37 2.03
 174  0.625  0.004  0.006-   6 2.03  38 2.06
 175  0.624  0.987  0.503-   7 1.93  39 1.98
 176  0.625  0.495  0.499-  41 2.01   9 2.06
 177  0.127  0.002  0.746-  11 1.94  43 2.01
 178  0.124  0.506  0.249-  12 2.02  44 2.03
 179  0.123  0.494  0.761-  45 1.95  13 2.04
 180  0.623  0.996  0.739-  47 1.95  15 2.04
 181  0.625  0.498  0.250-  48 2.02  16 2.04
 182  0.626  0.495  0.754-  17 1.94  49 2.03
 183  0.125  0.249  0.996-  18 2.00  50 2.05
 184  0.124  0.244  0.500-  19 1.93  51 2.01
 185  0.126  0.745  0.004-  20 1.96  52 1.96
 186  0.124  0.747  0.498-  21 1.96  53 1.96
 187  0.626  0.248  0.996-  22 2.03  54 2.04
 188  0.125  0.238  0.255-  26 1.95  58 1.99
 189  0.123  0.753  0.749-  61 1.92  29 2.03
 190  0.624  0.753  0.744-  33 1.93  65 2.04
 191  0.377  0.005  0.496-   7 1.90  35 1.98
 192  0.373  0.495  0.006-  36 2.01   8 2.03
 193  0.875  0.004  0.507-  39 1.92   3 1.95
 194  0.875  0.496  0.999-   4 2.01  40 2.06
 195  0.377  0.997  0.255-  14 2.00  42 2.06
 196  0.374  0.496  0.742-  17 1.97  45 1.97
 197  0.874  0.999  0.247-  46 1.99  10 2.06
 198  0.874  0.993  0.747-  47 1.95  11 1.99
 199  0.379  0.244  0.497-  51 1.96  23 2.00
 200  0.376  0.759  0.001-  52 1.93  24 2.04
 201  0.376  0.745  0.500-  53 1.94  25 2.01
 202  0.874  0.252  0.504-  19 1.93  55 2.03
 203  0.875  0.756  0.993-  20 1.94  56 1.99
 204  0.872  0.746  0.501-  21 1.94  57 2.03
 205  0.378  0.256  0.248-  58 1.96  30 2.02
 206  0.376  0.251  0.753-  31 2.01  59 2.05
 207  0.377  0.748  0.249-  32 2.01  60 2.06
 208  0.374  0.757  0.751-  33 1.96  61 1.98
 209  0.874  0.254  0.246-  26 1.94  62 2.03
 210  0.874  0.254  0.748-  63 2.01  27 2.05
 211  0.874  0.748  0.253-  64 1.98  28 2.05
 212  0.003  0.127  0.001-  18 2.02   2 2.03
 213  0.996  0.125  0.509-  19 1.91   3 2.08
 214  0.994  0.625  0.995-   4 2.02  20 2.05
 215  1.000  0.626  0.494-   5 1.93  21 2.02
 216  0.503  0.124  0.999-   6 2.02  22 2.06
 217  0.488  0.627  0.002-  24 2.00   8 2.05
 218  0.506  0.627  0.500-  25 1.96   9 1.98
 219  0.992  0.128  0.247-  10 1.94  26 2.02
 220  0.999  0.623  0.257-  28 1.95  12 2.00
 221  0.009  0.625  0.755-  13 1.96  29 1.98
 222  0.501  0.626  0.252-  32 1.94  16 1.99
 223  0.003  0.374  0.498-  19 1.94   5 2.00
 224  0.495  0.372  0.505-  23 1.96   9 1.97
 225  0.490  0.878  0.494-  25 1.96   7 2.01
 226  0.996  0.374  0.751-  13 1.93  27 2.04
 227  0.996  0.876  0.251-  10 1.97  28 1.98
 228  0.001  0.876  0.748-  29 1.94  11 2.03
 229  0.503  0.372  0.242-  16 1.96  30 2.00
 230  0.498  0.373  0.747-  31 2.01  17 2.03
 231  0.496  0.876  0.250-  32 1.93  14 2.04
 232  0.506  0.875  0.759-  15 2.02  33 2.08
 233  0.247  0.125  0.993-  34 1.96  50 1.97
 234  0.251  0.124  0.497-  35 2.02  51 2.05
 235  0.247  0.626  0.504-  53 2.00  37 2.04
 236  0.744  0.127  0.993-  38 1.93  54 1.94
 237  0.763  0.621  0.993-  40 1.90  56 1.98
 238  0.745  0.625  0.498-  57 1.96  41 1.97
 239  0.259  0.126  0.254-  42 1.93  58 2.03
 240  0.253  0.124  0.757-  43 1.96  59 1.98
 241  0.251  0.624  0.242-  60 1.93  44 2.03
 242  0.758  0.126  0.252-  62 1.94  46 1.95
 243  0.746  0.625  0.255-  64 1.94  48 1.95
 244  0.741  0.625  0.755-  49 1.97  65 1.98
 245  0.248  0.376  0.998-  50 1.93  36 2.04
 246  0.244  0.874  0.003-  34 1.93  52 2.04
 247  0.748  0.375  0.994-  54 1.92  40 1.96
 248  0.753  0.372  0.495-  41 1.95  55 2.00
 249  0.738  0.879  0.010-  38 1.93  56 2.03   1 2.17
 250  0.758  0.877  0.508-  57 1.95  39 2.01
 251  0.252  0.376  0.755-  59 1.93  45 2.03
 252  0.254  0.876  0.251-  42 1.96  60 1.98
 253  0.245  0.874  0.746-  43 1.92  61 2.04
 254  0.748  0.374  0.260-  62 1.93  48 1.96
 255  0.753  0.374  0.752-  49 1.94  63 2.02
 256  0.754  0.875  0.241-  46 1.94  64 1.96
 257  0.747  0.877  0.733-  65 1.96  47 2.03
 

IMPORTANT INFORMATION: All symmetrisations will be switched off!
NOSYMM: (Re-)initialisation of all symmetry stuff for point group C_1.

 
 
 KPOINTS: Title                                   

Automatic generation of k-mesh.
Space group operators:
 irot       det(A)        alpha          n_x          n_y          n_z        tau_x        tau_y        tau_z
    1     1.000000     0.000001     1.000000     0.000000     0.000000     0.000000     0.000000     0.000000
 
 Subroutine IBZKPT returns following result:
 ===========================================
 
 Found      4 irreducible k-points:
 
 Following reciprocal coordinates:
            Coordinates               Weight
  0.250000  0.250000  0.250000      2.000000
 -0.250000  0.250000  0.250000      2.000000
  0.250000 -0.250000  0.250000      2.000000
 -0.250000 -0.250000  0.250000      2.000000
 
 Following cartesian coordinates:
            Coordinates               Weight
  0.016206  0.016206  0.016206      2.000000
 -0.016206  0.016206  0.016206      2.000000
  0.016206 -0.016206  0.016206      2.000000
 -0.016206 -0.016206  0.016206      2.000000
 


--------------------------------------------------------------------------------------------------------




 Dimension of arrays:
   k-points           NKPTS =      4   k-points in BZ     NKDIM =      4   number of bands    NBANDS=   1164
   number of dos      NEDOS =   3001   number of ions     NIONS =    257
   non local maximal  LDIM  =      6   non local SUM 2l+1 LMDIM =     18
   total plane-waves  NPLWV = ******
   max r-space proj   IRMAX =   7595   max aug-charges    IRDMAX= 146383
   dimension x,y,z NGX =   120 NGY =  120 NGZ =  120
   dimension x,y,z NGXF=   240 NGYF=  240 NGZF=  240
   support grid    NGXF=   480 NGYF=  480 NGZF=  480
   ions per type =               1  64  64 128
   NGX,Y,Z   is equivalent  to a cutoff of  12.93, 12.93, 12.93 a.u.
   NGXF,Y,Z  is equivalent  to a cutoff of  25.86, 25.86, 25.86 a.u.

 SYSTEM =  LTO                                     
 POSCAR =  config 48                               

 Startparameter for this run:
   NWRITE =      2    write-flag & timer
   PREC   = accura    normal or accurate (medium, high low for compatibility)
   ISTART =      1    job   : 0-new  1-cont  2-samecut
   ICHARG =      0    charge: 1-file 2-atom 10-const
   ISPIN  =      2    spin polarized calculation?
   LNONCOLLINEAR =      F non collinear calculations
   LSORBIT =      F    spin-orbit coupling
   INIWAV =      1    electr: 0-lowe 1-rand  2-diag
   LASPH  =      T    aspherical Exc in radial PAW
   METAGGA=      F    non-selfconsistent MetaGGA calc.

 Electronic Relaxation 1
   ENCUT  =  500.0 eV  36.75 Ry    6.06 a.u.  28.13 28.13 28.13*2*pi/ulx,y,z
   ENINI  =  500.0     initial cutoff
   ENAUG  =  628.9 eV  augmentation charge cutoff
   NELM   =     60;   NELMIN=  2; NELMDL=  0     # of ELM steps 
   EDIFF  = 0.1E-05   stopping-criterion for ELM
   LREAL  =      T    real-space projection
   NLSPLINE    = F    spline interpolate recip. space projectors
   LCOMPAT=      F    compatible to vasp.4.4
   GGA_COMPAT  = T    GGA compatible to vasp.4.4-vasp.4.6
   LMAXPAW     = -100 max onsite density
   LMAXMIX     =    4 max onsite mixed and CHGCAR
   VOSKOWN=      0    Vosko Wilk Nusair interpolation
   ROPT   =   -0.00010  -0.00010  -0.00010  -0.00010
 Ionic relaxation
   EDIFFG = -.5E-01   stopping-criterion for IOM
   NSW    =    100    number of steps for IOM
   NBLOCK =      1;   KBLOCK =    100    inner block; outer block 
   IBRION =      1    ionic relax: 0-MD 1-quasi-New 2-CG
   NFREE  =      0    steps in history (QN), initial steepest desc. (CG)
   ISIF   =      2    stress and relaxation
   IWAVPR =     11    prediction:  0-non 1-charg 2-wave 3-comb
   ISYM   =      0    0-nonsym 1-usesym 2-fastsym
   LCORR  =      T    Harris-Foulkes like correction to forces

   POTIM  = 0.5000    time-step for ionic-motion
   TEIN   =    0.0    initial temperature
   TEBEG  =    0.0;   TEEND  =   0.0 temperature during run
   SMASS  =  -3.00    Nose mass-parameter (am)
   estimated Nose-frequenzy (Omega)   =  0.10E-29 period in steps =****** mass=  -0.544E-26a.u.
   SCALEE = 1.0000    scale energy and forces
   NPACO  =    256;   APACO  = 16.0  distance and # of slots for P.C.
   PSTRESS=    0.0 pullay stress

  Mass of Ions in am
   POMASS =   7.01 47.88 16.00 19.00
  Ionic Valenz
   ZVAL   =   3.00 10.00  6.00  7.00
  Atomic Wigner-Seitz radii
   RWIGS  =  -1.00 -1.00 -1.00 -1.00
  virtual crystal weights 
   VCA    =   1.00  1.00  1.00  1.00
   NELECT =    1923.0000    total number of electrons
   NUPDOWN=       1.0000    fix difference up-down

 DOS related values:
   EMIN   =  10.00;   EMAX   =-10.00  energy-range for DOS
   EFERMI =   0.00
   ISMEAR =     0;   SIGMA  =   0.01  broadening in eV -4-tet -1-fermi 0-gaus

 Electronic relaxation 2 (details)
   IALGO  =     38    algorithm
   LDIAG  =      T    sub-space diagonalisation (order eigenvalues)
   LSUBROT=      F    optimize rotation matrix (better conditioning)
   TURBO    =      0    0=normal 1=particle mesh
   IRESTART =      0    0=no restart 2=restart with 2 vectors
   NREBOOT  =      0    no. of reboots
   NMIN     =      0    reboot dimension
   EREF     =   0.00    reference energy to select bands
   IMIX   =      4    mixing-type and parameters
     AMIX     =   0.40;   BMIX     =  1.00
     AMIX_MAG =   1.60;   BMIX_MAG =  1.00
     AMIN     =   0.10
     WC   =   100.;   INIMIX=   1;  MIXPRE=   1;  MAXMIX= -45

 Intra band minimization:
   WEIMIN = 0.0010     energy-eigenvalue tresh-hold
   EBREAK =  0.21E-09  absolut break condition
   DEPER  =   0.30     relativ break condition  

   TIME   =   0.40     timestep for ELM

  volume/ion in A,a.u.               =      14.28        96.39
  Fermi-wavevector in a.u.,A,eV,Ry     =   1.319690  2.493853 23.695660  1.741582
  Thomas-Fermi vector in A             =   2.449570
 
 Write flags
   LWAVE        =      T    write WAVECAR
   LDOWNSAMPLE  =      F    k-point downsampling of WAVECAR
   LCHARG       =      T    write CHGCAR
   LVTOT        =      F    write LOCPOT, total local potential
   LVHAR        =      F    write LOCPOT, Hartree potential only
   LELF         =      F    write electronic localiz. function (ELF)
   LORBIT       =     11    0 simple, 1 ext, 2 COOP (PROOUT), +10 PAW based schemes


 Dipole corrections
   LMONO  =      F    monopole corrections only (constant potential shift)
   LDIPOL =      F    correct potential (dipole corrections)
   IDIPOL =      0    1-x, 2-y, 3-z, 4-all directions 
   EPSILON=  1.0000000 bulk dielectric constant

 LDA+U is selected, type is set to LDAUTYPE =  2
   angular momentum for each species LDAUL =    -1    2   -1   -1
   U (eV)           for each species LDAUU =   0.0  4.2  0.0  0.0
   J (eV)           for each species LDAUJ =   0.0  0.0  0.0  0.0
 Exchange correlation treatment:
   GGA     =    PS    GGA type
   LEXCH   =    14    internal setting for exchange type
   VOSKOWN=      0    Vosko Wilk Nusair interpolation
   LHFCALC =     F    Hartree Fock is set to
   LHFONE  =     F    Hartree Fock one center treatment
   AEXX    =    0.0000 exact exchange contribution

 Linear response parameters
   LEPSILON=     F    determine dielectric tensor
   LRPA    =     F    only Hartree local field effects (RPA)
   LNABLA  =     F    use nabla operator in PAW spheres
   LVEL    =     F    velocity operator in full k-point grid
   LINTERFAST=   F  fast interpolation
   KINTER  =     0    interpolate to denser k-point grid
   CSHIFT  =0.1000    complex shift for real part using Kramers Kronig
   OMEGAMAX=  -1.0    maximum frequency
   DEG_THRESHOLD= 0.2000000E-02 threshold for treating states as degnerate
   RTIME   =   -0.100 relaxation time in fs
  (WPLASMAI=    0.000 imaginary part of plasma frequency in eV, 0.658/RTIME)
   DFIELD  = 0.0000000 0.0000000 0.0000000 field for delta impulse in time
 
 Orbital magnetization related:
   ORBITALMAG=     F  switch on orbital magnetization
   LCHIMAG   =     F  perturbation theory with respect to B field
   DQ        =  0.001000  dq finite difference perturbation B field
   LLRAUG    =     F  two centre corrections for induced B field



--------------------------------------------------------------------------------------------------------


 quasi-Newton-method for relaxation of ions
 charge density and potential will be updated during run
 spin polarized calculation
 Variant of blocked Davidson
 Davidson routine will perform the subspace rotation
 perform sub-space diagonalisation
    after iterative eigenvector-optimisation
 modified Broyden-mixing scheme, WC =      100.0
 initial mixing is a Kerker type mixing with AMIX =  0.4000 and BMIX =      1.0000
 Hartree-type preconditioning will be used
 using additional bands          202
 real space projection scheme for non local part
 use partial core corrections
 calculate Harris-corrections to forces 
   (improved forces if not selfconsistent)
 use gradient corrections 
 use of overlap-Matrix (Vanderbilt PP)
 Gauss-broadening in eV      SIGMA  =   0.01


--------------------------------------------------------------------------------------------------------


  energy-cutoff  :      500.00
  volume of cell :     3671.03
      direct lattice vectors                 reciprocal lattice vectors
    15.426331000  0.000000000  0.000000000     0.064824228  0.000000000  0.000000000
     0.000000000 15.426331000  0.000000000     0.000000000  0.064824228  0.000000000
     0.000000000  0.000000000 15.426331000     0.000000000  0.000000000  0.064824228

  length of vectors
    15.426331000 15.426331000 15.426331000     0.064824228  0.064824228  0.064824228


 
 old parameters found on file WAVECAR:
  energy-cutoff  :      500.00
  volume of cell :     3671.03
      direct lattice vectors                 reciprocal lattice vectors
    15.426331000  0.000000000  0.000000000     0.064824228  0.000000000  0.000000000
     0.000000000 15.426331000  0.000000000     0.000000000  0.064824228  0.000000000
     0.000000000  0.000000000 15.426331000     0.000000000  0.000000000  0.064824228

  length of vectors

 
 k-points in units of 2pi/SCALE and weight: Title                                   
   0.01620606  0.01620606  0.01620606       0.250
  -0.01620606  0.01620606  0.01620606       0.250
   0.01620606 -0.01620606  0.01620606       0.250
  -0.01620606 -0.01620606  0.01620606       0.250
 
 k-points in reciprocal lattice and weights: Title                                   
   0.25000000  0.25000000  0.25000000       0.250
  -0.25000000  0.25000000  0.25000000       0.250
   0.25000000 -0.25000000  0.25000000       0.250
  -0.25000000 -0.25000000  0.25000000       0.250
 
 position of ions in fractional coordinates (direct lattice) 
   0.66488656  0.87465523  0.89020888
   0.99681780  0.99525101  0.99412851
   0.99991813  0.99174561  0.49332880
   0.00595588  0.49519435  0.99798391
   0.99360224  0.50245142  0.50744110
   0.49373281  0.99409451  0.99830147
   0.50056279  0.00789243  0.49960036
   0.50436742  0.49535979  0.99573034
   0.49164393  0.49923368  0.49505334
   0.00677222  0.00291017  0.25591456
   0.00174799  0.00765028  0.75667997
   0.99333457  0.49394267  0.25183410
   0.99236696  0.49906595  0.74239835
   0.50629099  0.00791498  0.24932362
   0.49197219  0.00528981  0.75056959
   0.49273560  0.49707650  0.25716550
   0.50050972  0.50414010  0.75788557
   0.99584095  0.25722454  0.00119056
   0.99878377  0.24803831  0.49129565
   0.99998873  0.75795227  0.00667436
   0.99732165  0.75653693  0.50706592
   0.49494925  0.25778255  0.00021597
   0.50817826  0.24538279  0.49936551
   0.50839710  0.75499351  0.99879902
   0.50589419  0.75304836  0.50872117
   0.99975183  0.25828321  0.25517077
   0.00632627  0.24235612  0.74727147
   0.00641332  0.74868521  0.24372380
   0.99167002  0.75097594  0.74464368
   0.50822348  0.24212951  0.25068875
   0.50636886  0.24284899  0.74951930
   0.50659669  0.75148054  0.25197585
   0.49970619  0.74159525  0.74230537
   0.25649358  0.99852655  0.00575142
   0.24961054  0.99367728  0.50625221
   0.24382493  0.50783197  0.99769676
   0.25390726  0.49422987  0.50659241
   0.75816116  0.00202192  0.99465635
   0.75057360  0.00656068  0.49367776
   0.74201739  0.50075497  0.00493646
   0.75519546  0.49826813  0.50579337
   0.24480116  0.00230440  0.24342552
   0.25726109  0.99767256  0.74400440
   0.25505245  0.49229568  0.25185174
   0.24696550  0.50619256  0.74127268
   0.74474263  0.99975843  0.25557740
   0.74817512  0.00641470  0.75546937
   0.75552701  0.49940550  0.24310321
   0.75691731  0.49911580  0.74318047
   0.25744162  0.25127405  0.00562980
   0.25291916  0.25659849  0.50544231
   0.25288641  0.74260871  0.99363235
   0.25080630  0.75517663  0.49285443
   0.75769225  0.25109104  0.00680409
   0.74312666  0.24258205  0.49776381
   0.74614981  0.74846406  0.99960499
   0.74115802  0.75245309  0.49586865
   0.25143417  0.25753417  0.24349583
   0.24397286  0.25131470  0.74357180
   0.24356740  0.74817357  0.25563391
   0.24707830  0.74183346  0.75672784
   0.74263498  0.25027341  0.24222939
   0.74397409  0.24280715  0.75146094
   0.74545795  0.75011751  0.25896755
   0.75600628  0.75250698  0.75812051
   0.00641089  0.50139776  0.62497243
   0.99618736  0.00545801  0.37581532
   0.00236601  0.00217200  0.87290899
   0.50021896  0.49563037  0.37515251
   0.49530917  0.49931075  0.87422660
   0.99632385  0.74668790  0.12601373
   0.99844653  0.74661433  0.62478160
   0.49643555  0.75759477  0.62425707
   0.99612986  0.24667962  0.37650656
   0.25510038  0.00305950  0.12520348
   0.25457290  0.00310314  0.62519389
   0.24017849  0.49600006  0.62579233
   0.75092873  0.49644811  0.12614747
   0.74644971  0.49858842  0.62454077
   0.75017217  0.99642157  0.37562314
   0.73723870  0.98401465  0.87300703
   0.24759709  0.24934961  0.12553905
   0.25347035  0.24896898  0.62515136
   0.74464217  0.25281577  0.12598693
   0.25250609  0.74711135  0.37462936
   0.24944752  0.75238478  0.87524128
   0.75053634  0.75601234  0.37623146
   0.73763303  0.77129976  0.87054214
   0.12457120  0.50396528  0.99585451
   0.62537872  0.50689108  0.99926638
   0.12531563  0.00314048  0.25097350
   0.62533416  0.00038570  0.24846519
   0.62446256  0.25437223  0.49681901
   0.62235061  0.74372624  0.00321559
   0.62361223  0.75970353  0.49898988
   0.12453180  0.24980841  0.74837627
   0.12510363  0.75172842  0.25020405
   0.62557059  0.24605738  0.25954785
   0.62548006  0.25077611  0.74575992
   0.62243986  0.75379798  0.25160755
   0.37549511  0.99911267  0.99173519
   0.37495357  0.50324999  0.50303431
   0.87301952  0.00191657  0.99597360
   0.87503647  0.49973942  0.49914358
   0.37600266  0.99454211  0.75657443
   0.37378514  0.49676935  0.24987204
   0.87556343  0.49807131  0.25313516
   0.87492862  0.50649237  0.74801887
   0.37578505  0.24835533  0.00162324
   0.87453031  0.24796746  0.00370568
   0.87514021  0.74616348  0.75479481
   0.50747123  0.12245148  0.49847250
   0.99511902  0.12585371  0.74409978
   0.49614186  0.12469716  0.25793821
   0.49961020  0.12365886  0.74413128
   0.49886140  0.62494684  0.74602373
   0.00132014  0.37470529  0.00376545
   0.00308591  0.87540121  0.00175345
   0.99961880  0.87511339  0.49872337
   0.50265364  0.37381430  0.00442258
   0.50732050  0.87660236  0.99377161
   0.00588529  0.37386365  0.24810500
   0.25641646  0.62516401  0.00150040
   0.74500301  0.12495895  0.49976896
   0.24935051  0.62455029  0.75025213
   0.75213319  0.12417403  0.75366680
   0.25029657  0.37287922  0.49445305
   0.24971006  0.87576311  0.49986620
   0.24291961  0.37440026  0.25558333
   0.99817367  0.00260007  0.12631003
   0.00227278  0.99823567  0.62384413
   0.99989590  0.50747712  0.12547827
   0.49481664  0.00107207  0.12537790
   0.49657045  0.99069494  0.62260797
   0.50109105  0.50498500  0.12721270
   0.50580939  0.49750729  0.62443403
   0.00390413  0.49687125  0.37642372
   0.99642572  0.49806879  0.87319357
   0.50377486  0.99374057  0.37630992
   0.51714741  0.00458747  0.87350448
   0.00582896  0.24560569  0.12730131
   0.99806576  0.25748277  0.62136007
   0.50645498  0.24152857  0.12625504
   0.49410839  0.25037424  0.62286488
   0.49469279  0.75179501  0.12699150
   0.99686736  0.25021625  0.87414346
   0.99634310  0.75031011  0.37557582
   0.00614456  0.75098831  0.87471404
   0.49344218  0.25896303  0.37568723
   0.50246670  0.24854566  0.87402546
   0.49316705  0.75090043  0.37583115
   0.50079679  0.74807059  0.87259278
   0.24580866  0.49531185  0.12485352
   0.75090277  0.00876924  0.12526361
   0.74791516  0.00305829  0.62346171
   0.25249273  0.00090129  0.37538459
   0.24303441  0.99517067  0.87417010
   0.24606901  0.51000067  0.37535425
   0.25754960  0.49718326  0.87355743
   0.74586032  0.50166742  0.37549347
   0.75092438  0.49711757  0.87361751
   0.25324119  0.75390514  0.12518624
   0.24996081  0.75074224  0.62496758
   0.75302070  0.25426517  0.62355556
   0.75450514  0.74178764  0.13186553
   0.75000893  0.74426230  0.62377185
   0.25155690  0.24398443  0.37453178
   0.25071453  0.25100464  0.87499605
   0.76017324  0.24727437  0.37414114
   0.75036005  0.25232252  0.87583648
   0.12622705  0.00297217  0.00272340
   0.12471441  0.00764442  0.49905429
   0.12304563  0.50113034  0.49376171
   0.62495875  0.00355601  0.00581506
   0.62390102  0.98661647  0.50301767
   0.62486342  0.49511433  0.49871227
   0.12704713  0.00220782  0.74617554
   0.12393837  0.50635990  0.24890538
   0.12298649  0.49439704  0.76133079
   0.62327359  0.99578324  0.73922222
   0.62483436  0.49832676  0.24980965
   0.62601501  0.49466240  0.75362373
   0.12518663  0.24881698  0.99603424
   0.12353973  0.24415017  0.49991022
   0.12609797  0.74488932  0.00368358
   0.12382706  0.74734492  0.49838999
   0.62619674  0.24844243  0.99637179
   0.12462390  0.23792802  0.25490359
   0.12305295  0.75259948  0.74855825
   0.62436373  0.75316982  0.74407276
   0.37720976  0.00478663  0.49553626
   0.37328375  0.49482483  0.00603976
   0.87455718  0.00374877  0.50735962
   0.87540824  0.49571137  0.99922316
   0.37739532  0.99674683  0.25547611
   0.37426970  0.49592454  0.74240682
   0.87366650  0.99907375  0.24711741
   0.87376818  0.99300677  0.74710666
   0.37882902  0.24392819  0.49666586
   0.37643027  0.75897474  0.00065045
   0.37618373  0.74546019  0.50029995
   0.87413358  0.25159475  0.50357629
   0.87476665  0.75568098  0.99333884
   0.87218527  0.74616507  0.50127044
   0.37818429  0.25596227  0.24843471
   0.37631547  0.25051736  0.75332546
   0.37661108  0.74842702  0.24857502
   0.37405770  0.75732552  0.75063377
   0.87413143  0.25419796  0.24617507
   0.87389933  0.25384195  0.74804947
   0.87397343  0.74777955  0.25319397
   0.00331980  0.12660813  0.00121990
   0.99582709  0.12549942  0.50862024
   0.99402891  0.62543244  0.99546287
   0.99979755  0.62641911  0.49356053
   0.50334600  0.12448512  0.99894174
   0.48822520  0.62686221  0.00173878
   0.50577144  0.62660817  0.49989083
   0.99227447  0.12754664  0.24662457
   0.99922872  0.62344903  0.25660621
   0.00897368  0.62451709  0.75530010
   0.50108513  0.62602322  0.25207414
   0.00316945  0.37357735  0.49831902
   0.49502037  0.37183078  0.50455387
   0.49004168  0.87820782  0.49426897
   0.99611458  0.37411177  0.75106346
   0.99551343  0.87611890  0.25113507
   0.00123207  0.87628363  0.74756650
   0.50305140  0.37161536  0.24241299
   0.49785564  0.37278031  0.74666590
   0.49605373  0.87625911  0.25036542
   0.50611479  0.87546679  0.75898833
   0.24687820  0.12468437  0.99343193
   0.25149410  0.12423346  0.49676703
   0.24689593  0.62626426  0.50412000
   0.74404896  0.12658405  0.99262709
   0.76349677  0.62121550  0.99301348
   0.74469427  0.62549718  0.49787380
   0.25914455  0.12636582  0.25379570
   0.25312430  0.12428436  0.75709967
   0.25076800  0.62369232  0.24235243
   0.75804689  0.12558546  0.25222145
   0.74617727  0.62461063  0.25514868
   0.74077993  0.62529690  0.75519830
   0.24814671  0.37593713  0.99781167
   0.24410711  0.87407137  0.00293135
   0.74795334  0.37463835  0.99353511
   0.75251755  0.37214749  0.49457672
   0.73772914  0.87942575  0.01011655
   0.75795841  0.87713555  0.50797940
   0.25218678  0.37562917  0.75549478
   0.25434551  0.87567793  0.25084636
   0.24475023  0.87363416  0.74642036
   0.74838912  0.37389411  0.26031052
   0.75320276  0.37353728  0.75171427
   0.75407228  0.87528662  0.24059828
   0.74695952  0.87694249  0.73339079
 
 position of ions in cartesian coordinates  (Angst):
  10.25676011 13.49272107 13.73265684
  15.37724139 15.35307157 15.33575544
  15.42506809 15.29899608  7.61025330
   0.09187734  7.63903192 15.39523016
  15.32763705  7.75098199  7.82795439
   7.61648579 15.33523096 15.40012885
   7.72184728  0.12175124  7.70700053
   7.78053873  7.64158411 15.36046576
   7.58426206  7.70134393  7.63685662
   0.10447052  0.04489326  3.94782264
   0.02696505  0.11801575 11.67279560
  15.32350786  7.61972310  3.88487623
  15.30858113  7.69875657 11.45248270
   7.81021246  0.12209915  3.84614873
   7.58932585  0.08160244 11.57853498
   7.60110243  7.66806665  3.96712005
   7.72102868  7.77703210 11.69139366
  15.36217215  3.96803093  0.01836590
  15.40756898  3.82632109  7.57888938
  15.42615721 11.69242259  0.10296093
  15.38501385 11.67058902  7.82216668
   7.63525090  3.97663901  0.00333169
   7.83932610  3.78535614  7.70337764
   7.84270191 11.64677972 15.40780423
   7.80409125 11.61677326  7.84770119
  15.42250265  3.98436235  3.93634877
   0.09759108  3.73866568 11.52765702
   0.09893402 11.54946580  3.75976401
  15.29782999 11.58480340 11.48711988
   7.84002369  3.73516997  3.86720762
   7.81141363  3.74626894 11.56233281
   7.81492820 11.59258763  3.88706289
   7.70863302 11.44009385 11.45104833
   3.95675484 15.40360102  0.08872328
   3.85057488 15.32879463  7.80961423
   3.76132414  7.83398405 15.39080038
   3.91685736  7.62415355  7.81486216
  11.69564497  0.03119080 15.34389804
  11.57859675  0.10120721  7.61563646
  11.44660592  7.72481188  0.07615145
  11.64989512  7.68644909  7.80253594
   3.77638377  0.03554838  3.75516269
   3.96859474 15.39042721 11.47725816
   3.93452355  7.59431616  3.88514835
   3.80977147  7.80869392 11.43511768
  11.48864635 15.42260448  3.94262156
  11.54159700  0.09895531 11.65412053
  11.65500971  7.70399455  3.75019062
  11.67645698  7.69952561 11.46454787
   3.97137972  3.87623664  0.08684718
   3.90161469  3.95837317  7.79712035
   3.90110940 11.45572771 15.32810146
   3.86902102 11.64960472  7.60293561
  11.68841146  3.87341345  0.10496214
  11.46371779  3.74215102  7.67866929
  11.51035398 11.54605426 15.42023742
  11.43334900 11.60759046  7.64943390
   3.87870668  3.97280733  3.75624729
   3.76360606  3.87686378 11.47058471
   3.75735136 11.54157312  3.94349334
   3.81151157 11.44376848 11.67353408
  11.45613296  3.86080043  3.73671078
  11.47679061  3.74562344 11.59228518
  11.49968109 11.57156099  3.99491912
  11.66240316 11.60842171 11.69501790
   0.09889648  7.73472782  9.64103164
  15.36751596  0.08419712  5.79745154
   0.03649880  0.03350602 13.46578299
   7.71654328  7.64575808  5.78722681
   7.64080320  7.70253293 13.48610898
  15.36962151 11.51865475  1.94392946
  15.40236668 11.51751974  9.63808779
   7.65817906 11.68690763  9.62999627
  15.36662889  3.80536140  5.80811484
   3.93526296  0.04719688  1.93143025
   3.92712583  0.04787002  9.64444788
   3.70507283  7.65146116  9.65367955
  11.58407515  7.65837282  1.94599257
  11.51498037  7.69139006  9.63437262
  11.57240415 15.37112900  5.79448685
  11.37288827 15.17973570 13.46729537
   3.81951469  3.84654965  1.93660689
   3.91011750  3.84067794  9.64379173
  11.48709663  3.90001976  1.94351612
   3.89524248 11.52518694  5.77915643
   3.84806001 11.60653672 13.50176177
  11.57802200 11.66249663  5.80387108
  11.37897130 11.89832543 13.42927119
   1.92167660  7.77433521 15.36238137
   9.64729918  7.81946958 15.41501393
   1.93316039  0.04844602  3.87160022
   9.64661167  0.00594996  3.83290625
   9.63316607  3.92403027  7.66409449
   9.60058649 11.47296711  0.04960480
   9.62004875 11.71943806  7.69758301
   1.92106877  3.85362720 11.54470001
   1.92988998 11.59641141  3.85973055
   9.65025902  3.79576260  4.00387105
   9.64886244  3.86855529 11.50433936
   9.60196328 11.62833721  3.88138131
   5.79251191 15.41264280 15.29883533
   5.78415781  7.76330086  7.75997384
  13.46748806  0.02956568 15.36421847
  13.49860220  7.70914569  7.69995414
   5.80034154 15.34213580 11.67116766
   5.76613334  7.66332839  3.85460873
  13.50673135  7.68341296  3.90494681
  13.49693856  7.81331892 11.53918672
   5.79698460  3.83121159  0.02504070
  13.49079404  3.82522811  0.05716508
  13.50020262 11.51056478 11.64371460
   7.82841916  1.88897704  7.68960182
  15.35103532  1.94146097 11.47872947
   7.65364853  1.92361963  3.97904020
   7.70715225  1.90760247 11.47921539
   7.69560101  9.64063678 11.50840897
   0.02036498  5.78032777  0.05808710
   0.04760422 13.50422879  0.02704928
  15.42045056 13.49978885  7.69347182
   7.75410150  5.76658320  0.06822411
   7.82609399 13.52275819 15.33024981
   0.09078845  5.76734442  3.82734985
   3.95556516  9.64398700  0.02314572
  11.49266307  1.92765817  7.70960137
   3.84656345  9.63451950 11.57363763
  11.60265559  1.91554963 11.62631348
   3.86115774  5.75215826  7.62759638
   3.85210999 13.50981162  7.71110152
   3.74735823  5.77562231  3.94271311
  15.39815750  0.04010961  1.94850037
   0.03506059 15.39911384  9.62362605
  15.42472509  7.82850997  1.93566928
   7.63320527  0.01653816  1.93412097
   7.66026016 15.28278809  9.60455659
   7.72999633  7.79006580  1.96242515
   7.80278308  7.67471216  9.63272605
   0.06022642  7.66490033  5.80683686
  15.37119301  7.68337408 13.47017303
   7.77139777 15.32977097  5.80508143
   7.97768719  0.07076786 13.47496924
   0.08991950  3.78879470  1.96379212
  15.39649273  3.97201451  9.58530614
   7.81274215  3.72589967  1.94765204
   7.62227955  3.86235591  9.60851975
   7.63129473 11.59743873  1.95901290
  15.37800586  3.85991866 13.48482636
  15.36991848 11.57453213  5.79375687
   0.09478799 11.58499427 13.49362832
   7.61200239  3.99484942  5.79547559
   7.75121767  3.83414765 13.48300609
   7.60775819 11.58363858  5.79769566
   7.72545705 11.53998459 13.46090506
   3.79192579  7.64084452  1.92603165
  11.58367473  0.13527717  1.93235796
  11.53758685  0.04717817  9.61772665
   3.89503642  0.01390364  5.79080701
   3.74912931 15.35183218 13.48523734
   3.79594202  7.86743922  5.79033892
   3.97304537  7.66971346 13.47578606
  11.50588822  7.73888771  5.79248657
  11.58400808  7.66870022 13.47671294
   3.90658243 11.62999021  1.93116430
   3.85597818 11.58119822  9.64095678
  11.61634655  3.92237863  9.61917453
  11.63924600 11.44306172  2.03420135
  11.56988600 11.48123663  9.62251097
   3.88059996  3.76378461  5.77765118
   3.86760535  3.87208061 13.49797862
  11.72668401  3.81453630  5.77162500
  11.57530246  3.89241073 13.51094348
   1.94722025  0.04584967  0.04201204
   1.92388582  0.11792528  7.69857671
   1.89814256  7.73060246  7.61693157
   9.64082057  0.05485614  0.08970502
   9.62450362 15.21987218  7.75971712
   9.63934989  7.63779748  7.69330055
   1.95987102  0.03405855 11.51075093
   1.91191436  7.81127540  3.83969685
   1.89723029  7.62673239 11.74454073
   9.61482464 15.36128194 11.40348669
   9.63890163  7.68735357  3.85364627
   9.65711479  7.63082587 11.62564918
   1.93117047  3.83833311 15.36515384
   1.90576481  3.76634137  7.71178050
   1.94522906 11.49090916  0.05682418
   1.91019725 11.52879016  7.68832898
   9.65991822  3.83255519 15.37036106
   1.92248948  3.67035632  3.93222711
   1.89825561 11.60984875 11.54750731
   9.63164152 11.61864687 11.47831276
   5.81896266  0.07384020  7.64430635
   5.75839862  7.63333157  0.09317129
  13.49120848  0.05782978  7.82669746
  13.50433730  7.64700764 15.41434727
   5.82182511 15.37614652  3.94105903
   5.77360826  7.65029613 11.45261340
  13.47746869 15.41204242  3.81211493
  13.47903719 15.31845114 11.52511467
   5.84394191  3.76291693  7.66173189
   5.80693793 11.70819557  0.01003410
   5.80313479 11.49971568  7.71779256
  13.48467400  3.88118395  7.76833448
  13.49443997 11.65738489 15.32357373
  13.45461870 11.51058934  7.73276373
   5.83399600  3.94855866  3.83243610
   5.80516696  3.86456374 11.62104797
   5.80972719 11.54548301  3.83460057
   5.77033796 11.68275412 11.57952500
  13.48464076  3.92134185  3.79757808
  13.48106032  3.91584987 11.53965866
  13.48220336 11.53549482  3.90585405
   0.05121237  1.95309892  0.01881857
  15.36195830  1.93599563  7.84614411
  15.33421895  9.64812778 15.35633978
  15.42320792  9.66334858  7.61382803
   7.76478202  1.92034874 15.41000599
   7.53152355  9.67018389  0.02682295
   7.80219764  9.66626503  7.71148146
  15.30715446  1.96757675  3.80451223
  15.41443300  9.61753112  3.95849240
   0.13843091  9.63400738 11.65150939
   7.72990513  9.65724137  3.88857919
   0.04889300  5.76292784  7.68723422
   7.63634813  5.73598463  7.78341500
   7.55954512 13.54752456  7.62475670
  15.36639328  5.77117203 11.58615360
  15.35711968 13.51530016  3.87409272
   0.01900631 13.51784129 11.53220825
   7.76023748  5.73266154  3.73954300
   7.68008594  5.75063253 11.51831526
   7.65228908 13.51746306  3.86221979
   7.80749432 13.50524051 11.70840515
   3.80842483  1.92342232 15.32500970
   3.87963127  1.91646640  7.66329262
   3.80869841  9.66095978  7.77672194
  11.47794555  1.95272742 15.31259404
  11.77795397  9.58307587 15.31855463
  11.48790030  9.64912655  7.68036598
   3.99764967  1.94936097  3.91513641
   3.90477921  1.91725172 11.67927007
   3.86843013  9.62128414  3.73860875
  11.69388226  1.93732287  3.89085161
  11.51077757  9.63545033  3.93600792
  11.42751640  9.64603699 11.64993893
   3.82799330  5.79933053 15.39257314
   3.76567710 13.48371434  0.04521999
  11.53817577  5.77929522 15.32660151
  11.60858477  5.74087036  7.62950415
  11.38045386 13.56631277  0.15606130
  11.69251726 13.53098330  7.83625840
   3.89031668  5.79457997 11.65451261
   3.92361806 13.50849762  3.86963896
   3.77559801 13.47696971 11.51452752
  11.54489831  5.76781431  4.01563627
  11.61915503  5.76230967 11.59619317
  11.63256858 13.50246110  3.71154873
  11.52284475 13.52800505 11.31352904
 


--------------------------------------------------------------------------------------------------------


 k-point  1 :   0.2500 0.2500 0.2500  plane waves:   93161
 k-point  2 :  -0.2500 0.2500 0.2500  plane waves:   93161
 k-point  3 :   0.2500-0.2500 0.2500  plane waves:   93161
 k-point  4 :  -0.2500-0.2500 0.2500  plane waves:   93161

 maximum and minimum number of plane-waves per node :     11686    11606

 maximum number of plane-waves:     93161
 maximum index in each direction: 
   IXMAX=   28   IYMAX=   28   IZMAX=   27
   IXMIN=  -28   IYMIN=  -28   IZMIN=  -28


 real space projection operators:
  total allocation   :     105576.20 KBytes
  max/ min on nodes  :      13238.12      13169.38


 parallel 3D FFT for wavefunctions:
    minimum data exchange during FFTs selected (reduces bandwidth)
 parallel 3D FFT for charge:
    minimum data exchange during FFTs selected (reduces bandwidth)


 total amount of memory used by VASP MPI-rank0   291464. kBytes
=======================================================================

   base      :      30000. kBytes
   nonlr-proj:      49429. kBytes
   fftplans  :      27976. kBytes
   grid      :      34041. kBytes
   one-center:       1026. kBytes
   wavefun   :     148992. kBytes
 
     INWAV:  cpu time   60.9314: real time   61.8083
 Broyden mixing: mesh for mixing (old mesh)
   NGX = 57   NGY = 57   NGZ = 57
  (NGX  =240   NGY  =240   NGZ  =240)
  gives a total of 185193 points

 charge density for first step will be calculated from the start-wavefunctions


--------------------------------------------------------------------------------------------------------


 Maximum index for non-local projection operator          969
 Maximum index for augmentation-charges         3291 (set IRDMAX)


--------------------------------------------------------------------------------------------------------


 initial charge from wavefunction
 First call to EWALD:  gamma=   0.115
 Maximum number of real-space cells 3x 3x 3
 Maximum number of reciprocal cells 3x 3x 3

    FEWALD:  cpu time    0.0290: real time    0.0290


--------------------------------------- Iteration      1(   1)  ---------------------------------------


    POTLOK:  cpu time    0.2808: real time    0.2929
    SETDIJ:  cpu time    1.4251: real time    1.4261
     EDDAV:  cpu time  128.9412: real time  130.1042
       DOS:  cpu time    0.0024: real time    0.0024
    CHARGE:  cpu time    5.2411: real time    5.2449
    MIXING:  cpu time    0.0102: real time    0.0102
    --------------------------------------------
      LOOP:  cpu time  135.9009: real time  137.0808

 eigenvalue-minimisations  : 22176
 total energy-change (2. order) :-0.1757545E+04  (-0.8809267E-06)
 number of electron    1923.0000025 magnetization       1.0000000
 augmentation part      497.0685589 magnetization       0.5807237

 Broyden mixing:
  rms(total) = 0.60056E-03    rms(broyden)= 0.57735E-03
  rms(prec ) = 0.63836E-03
  weight for this iteration     100.00

 Free energy of the ion-electron system (eV)
  ---------------------------------------------------
  alpha Z        PSCENC =      6118.73324990
  Ewald energy   TEWEN  =   -103081.35301215
  -Hartree energ DENC   =    -65537.06037546
  -exchange      EXHF   =         0.00000000
  -V(xc)+E(xc)   XCENC  =      8972.58040436
  PAW double counting   =    198717.96485783  -199725.14249369
  entropy T*S    EENTRO =        -0.00000000
  eigenvalues    EBANDS =    -25800.52044036
  atomic energy  EATOM  =    178577.25249613
  Solvation  Ediel_sol  =         0.00000000
  ---------------------------------------------------
  free energy    TOTEN  =     -1757.54531344 eV

  energy without entropy =    -1757.54531344  energy(sigma->0) =    -1757.54531344


--------------------------------------------------------------------------------------------------------




--------------------------------------- Iteration      1(   2)  ---------------------------------------


    POTLOK:  cpu time    0.2621: real time    0.2642
    SETDIJ:  cpu time    1.3979: real time    1.3990
     EDDAV:  cpu time  121.3194: real time  121.9310
       DOS:  cpu time    0.0020: real time    0.0020
    --------------------------------------------
      LOOP:  cpu time  122.9813: real time  123.5962

 eigenvalue-minimisations  : 20640
 total energy-change (2. order) :-0.5490729E-06  (-0.7051617E-06)
 number of electron    1923.0000025 magnetization       1.0000000
 augmentation part      497.0685589 magnetization       0.5807237

 Free energy of the ion-electron system (eV)
  ---------------------------------------------------
  alpha Z        PSCENC =      6118.73324990
  Ewald energy   TEWEN  =   -103081.35301215
  -Hartree energ DENC   =    -65537.06611074
  -exchange      EXHF   =         0.00000000
  -V(xc)+E(xc)   XCENC  =      8972.58030277
  PAW double counting   =    198717.89830651  -199725.07551883
  entropy T*S    EENTRO =        -0.00000000
  eigenvalues    EBANDS =    -25800.51502759
  atomic energy  EATOM  =    178577.25249613
  Solvation  Ediel_sol  =         0.00000000
  ---------------------------------------------------
  free energy    TOTEN  =     -1757.54531399 eV

  energy without entropy =    -1757.54531399  energy(sigma->0) =    -1757.54531399


--------------------------------------------------------------------------------------------------------




 average (electrostatic) potential at core
  the test charge radii are     0.7079  1.0397  0.7215  0.7167
  (the norm of the test charge is              1.0000)
       1 -63.1829       2 -58.4700       3 -58.7770       4 -58.7405       5 -58.8071
       6 -58.7056       7 -59.7904       8 -58.4001       9 -58.6575      10 -58.8411
      11 -58.6132      12 -58.8784      13 -58.7865      14 -59.1007      15 -58.8877
      16 -58.7198      17 -58.6433      18 -58.8010      19 -59.4985      20 -58.5828
      21 -58.7899      22 -58.5810      23 -59.4363      24 -58.5440      25 -58.8284
      26 -59.0697      27 -58.6936      28 -58.6698      29 -58.7261      30 -59.1056
      31 -59.0030      32 -59.3993      33 -58.7253      34 -58.7684      35 -58.8214
      36 -58.6342      37 -58.3834      38 -58.7483      39 -59.1531      40 -58.5753
      41 -58.8518      42 -58.7975      43 -58.8713      44 -58.7055      45 -58.5580
      46 -59.1603      47 -58.9377      48 -58.7587      49 -58.8072      50 -58.6993
      51 -58.6403      52 -58.6076      53 -58.7879      54 -58.8661      55 -59.2272
      56 -56.6499      57 -58.9517      58 -58.7095      59 -58.7328      60 -58.7226
      61 -58.6554      62 -58.9901      63 -58.9832      64 -59.0377      65 -58.4124
      66 -74.1065      67 -73.9764      68 -73.8329      69 -73.8498      70 -73.7790
      71 -73.8313      72 -73.9241      73 -74.1996      74 -74.5607      75 -73.9360
      76 -74.0104      77 -73.8754      78 -73.9154      79 -73.9529      80 -74.3233
      81 -74.0763      82 -73.8966      83 -73.8768      84 -74.3538      85 -73.9033
      86 -73.8383      87 -74.1258      88 -73.6044      89 -73.8216      90 -73.7424
      91 -74.0140      92 -74.2570      93 -74.6382      94 -73.7727      95 -74.2295
      96 -73.9520      97 -73.9312      98 -74.3955      99 -74.1194     100 -74.3126
     101 -73.9433     102 -73.7951     103 -73.9753     104 -73.9443     105 -74.2498
     106 -73.9053     107 -73.9940     108 -74.0867     109 -73.8715     110 -74.0193
     111 -74.0116     112 -74.8675     113 -74.0398     114 -74.4448     115 -74.1286
     116 -73.9721     117 -73.8936     118 -73.7600     119 -74.1954     120 -73.7965
     121 -73.8635     122 -74.2916     123 -73.9568     124 -74.4944     125 -73.9795
     126 -74.2647     127 -73.8063     128 -73.9594     129 -74.0463     130 -78.3656
     131 -78.3755     132 -79.1061     133 -79.6380     134 -79.9209     135 -78.2949
     136 -78.2764     137 -78.9565     138 -78.9034     139 -79.9251     140 -79.5750
     141 -79.1314     142 -79.0946     143 -79.5532     144 -79.7311     145 -79.3496
     146 -79.1671     147 -78.3080     148 -78.3367     149 -79.7810     150 -79.4829
     151 -79.2265     152 -79.0442     153 -78.9798     154 -78.7064     155 -78.6705
     156 -78.4147     157 -78.3883     158 -78.7832     159 -78.7490     160 -78.3538
     161 -78.3714     162 -78.3427     163 -78.2911     164 -79.4370     165 -78.4767
     166 -78.4682     167 -78.3649     168 -78.3344     169 -79.2715     170 -79.1691
     171 -78.4112     172 -79.5439     173 -78.3461     174 -78.3524     175 -79.9080
     176 -78.3010     177 -78.9913     178 -78.3754     179 -78.8604     180 -79.0913
     181 -78.3994     182 -78.8544     183 -78.3900     184 -79.4621     185 -79.0490
     186 -79.1490     187 -78.3638     188 -79.2742     189 -78.9113     190 -78.9769
     191 -79.8286     192 -78.2488     193 -79.6425     194 -78.1602     195 -78.5780
     196 -79.0054     197 -78.5494     198 -79.2197     199 -79.1721     200 -78.8396
     201 -79.0372     202 -79.4468     203 -78.9520     204 -79.0052     205 -79.0702
     206 -78.4715     207 -78.5014     208 -79.1708     209 -79.2088     210 -78.5014
     211 -78.5807     212 -78.2835     213 -79.2892     214 -78.2667     215 -79.0860
     216 -78.3176     217 -78.3594     218 -79.2816     219 -79.0003     220 -78.9833
     221 -79.1275     222 -79.3783     223 -79.4284     224 -79.2513     225 -79.2896
     226 -78.9752     227 -79.1116     228 -78.9248     229 -79.1313     230 -78.5386
     231 -79.3175     232 -78.5207     233 -79.0151     234 -78.3390     235 -78.3479
     236 -79.5299     237 -79.0260     238 -79.2660     239 -78.9325     240 -79.0921
     241 -78.8790     242 -79.6203     243 -79.5015     244 -79.1352     245 -78.7948
     246 -78.8387     247 -79.3990     248 -79.1555     249 -79.2949     250 -79.2069
     251 -78.8653     252 -79.0821     253 -78.9113     254 -79.5556     255 -79.0068
     256 -79.5854     257 -78.9820
 
 
 
 E-fermi :  -0.6364     XC(G=0):  -9.0354     alpha+bet : -7.7421


 spin component 1

 k-point     1 :       0.2500    0.2500    0.2500
  band No.  band energies     occupation 
      1     -43.8518      1.00000
      2     -35.8228      1.00000
      3     -35.7998      1.00000
      4     -35.6226      1.00000
      5     -35.4939      1.00000
      6     -35.4834      1.00000
      7     -35.4744      1.00000
      8     -35.3942      1.00000
      9     -35.3712      1.00000
     10     -35.3317      1.00000
     11     -35.3271      1.00000
     12     -35.3065      1.00000
     13     -35.2322      1.00000
     14     -35.2001      1.00000
     15     -35.1993      1.00000
     16     -35.1747      1.00000
     17     -35.1666      1.00000
     18     -35.1636      1.00000
     19     -35.1416      1.00000
     20     -35.1176      1.00000
     21     -35.0863      1.00000
     22     -35.0780      1.00000
     23     -35.0631      1.00000
     24     -35.0562      1.00000
     25     -35.0533      1.00000
     26     -35.0477      1.00000
     27     -35.0283      1.00000
     28     -35.0041      1.00000
     29     -35.0032      1.00000
     30     -35.0012      1.00000
     31     -34.9911      1.00000
     32     -34.9788      1.00000
     33     -34.9740      1.00000
     34     -34.9696      1.00000
     35     -34.9695      1.00000
     36     -34.9525      1.00000
     37     -34.9446      1.00000
     38     -34.9408      1.00000
     39     -34.9243      1.00000
     40     -34.9220      1.00000
     41     -34.9112      1.00000
     42     -34.8989      1.00000
     43     -34.8886      1.00000
     44     -34.8800      1.00000
     45     -34.8783      1.00000
     46     -34.8773      1.00000
     47     -34.8726      1.00000
     48     -34.8660      1.00000
     49     -34.8653      1.00000
     50     -34.8622      1.00000
     51     -34.8598      1.00000
     52     -34.8474      1.00000
     53     -34.8455      1.00000
     54     -34.8446      1.00000
     55     -34.8385      1.00000
     56     -34.8343      1.00000
     57     -34.8305      1.00000
     58     -34.8266      1.00000
     59     -34.8260      1.00000
     60     -34.8243      1.00000
     61     -34.8216      1.00000
     62     -34.8203      1.00000
     63     -34.8192      1.00000
     64     -34.8127      1.00000
     65     -34.7976      1.00000
     66     -34.7904      1.00000
     67     -34.7889      1.00000
     68     -34.7879      1.00000
     69     -34.7847      1.00000
     70     -34.7805      1.00000
     71     -34.7788      1.00000
     72     -34.7741      1.00000
     73     -34.7719      1.00000
     74     -34.7657      1.00000
     75     -34.7577      1.00000
     76     -34.7576      1.00000
     77     -34.7479      1.00000
     78     -34.7406      1.00000
     79     -34.7403      1.00000
     80     -34.7382      1.00000
     81     -34.7278      1.00000
     82     -34.7272      1.00000
     83     -34.7244      1.00000
     84     -34.7240      1.00000
     85     -34.7223      1.00000
     86     -34.7220      1.00000
     87     -34.7147      1.00000
     88     -34.7125      1.00000
     89     -34.7094      1.00000
     90     -34.7092      1.00000
     91     -34.7080      1.00000
     92     -34.7037      1.00000
     93     -34.7033      1.00000
     94     -34.6942      1.00000
     95     -34.6919      1.00000
     96     -34.6868      1.00000
     97     -34.6862      1.00000
     98     -34.6862      1.00000
     99     -34.6850      1.00000
    100     -34.6787      1.00000
    101     -34.6762      1.00000
    102     -34.6756      1.00000
    103     -34.6730      1.00000
    104     -34.6625      1.00000
    105     -34.6565      1.00000
    106     -34.6549      1.00000
    107     -34.6539      1.00000
    108     -34.6517      1.00000
    109     -34.6503      1.00000
    110     -34.6499      1.00000
    111     -34.6458      1.00000
    112     -34.6441      1.00000
    113     -34.6418      1.00000
    114     -34.6409      1.00000
    115     -34.6390      1.00000
    116     -34.6362      1.00000
    117     -34.6345      1.00000
    118     -34.6326      1.00000
    119     -34.6314      1.00000
    120     -34.6309      1.00000
    121     -34.6260      1.00000
    122     -34.6246      1.00000
    123     -34.6213      1.00000
    124     -34.6211      1.00000
    125     -34.6197      1.00000
    126     -34.6195      1.00000
    127     -34.6120      1.00000
    128     -34.6095      1.00000
    129     -34.6078      1.00000
    130     -34.6068      1.00000
    131     -34.5999      1.00000
    132     -34.5995      1.00000
    133     -34.5987      1.00000
    134     -34.5950      1.00000
    135     -34.5938      1.00000
    136     -34.5862      1.00000
    137     -34.5857      1.00000
    138     -34.5853      1.00000
    139     -34.5808      1.00000
    140     -34.5786      1.00000
    141     -34.5767      1.00000
    142     -34.5733      1.00000
    143     -34.5728      1.00000
    144     -34.5670      1.00000
    145     -34.5667      1.00000
    146     -34.5571      1.00000
    147     -34.5561      1.00000
    148     -34.5532      1.00000
    149     -34.5525      1.00000
    150     -34.5463      1.00000
    151     -34.5455      1.00000
    152     -34.5404      1.00000
    153     -34.5342      1.00000
    154     -34.5289      1.00000
    155     -34.5247      1.00000
    156     -34.5201      1.00000
    157     -34.5193      1.00000
    158     -34.5152      1.00000
    159     -34.5105      1.00000
    160     -34.5071      1.00000
    161     -34.5040      1.00000
    162     -34.5011      1.00000
    163     -34.4894      1.00000
    164     -34.4855      1.00000
    165     -34.4768      1.00000
    166     -34.4747      1.00000
    167     -34.4726      1.00000
[...]
   81        1.566   3.478   0.000   5.043
   82        1.574   3.462   0.000   5.037
   83        1.574   3.461   0.000   5.035
   84        1.576   3.475   0.000   5.051
   85        1.575   3.463   0.000   5.039
   86        1.575   3.467   0.000   5.042
   87        1.576   3.467   0.000   5.043
   88        1.568   3.479   0.000   5.047
   89        1.575   3.463   0.000   5.038
   90        1.575   3.460   0.000   5.035
   91        1.574   3.461   0.000   5.036
   92        1.574   3.462   0.000   5.036
   93        1.577   3.473   0.000   5.051
   94        1.576   3.480   0.000   5.056
   95        1.576   3.476   0.000   5.052
   96        1.575   3.465   0.000   5.039
   97        1.575   3.466   0.000   5.041
   98        1.576   3.476   0.000   5.052
   99        1.575   3.464   0.000   5.039
  100        1.576   3.459   0.000   5.034
  101        1.575   3.463   0.000   5.037
  102        1.575   3.462   0.000   5.036
  103        1.576   3.459   0.000   5.035
  104        1.574   3.462   0.000   5.036
  105        1.577   3.473   0.000   5.050
  106        1.575   3.464   0.000   5.039
  107        1.575   3.463   0.000   5.038
  108        1.576   3.474   0.000   5.050
  109        1.575   3.464   0.000   5.039
  110        1.575   3.462   0.000   5.037
  111        1.575   3.475   0.000   5.051
  112        1.577   3.466   0.000   5.043
  113        1.576   3.474   0.000   5.050
  114        1.577   3.477   0.000   5.054
  115        1.574   3.467   0.000   5.041
  116        1.575   3.465   0.000   5.039
  117        1.575   3.462   0.000   5.037
  118        1.575   3.464   0.000   5.039
  119        1.576   3.477   0.000   5.053
  120        1.575   3.462   0.000   5.037
  121        1.572   3.467   0.000   5.039
  122        1.577   3.469   0.000   5.046
  123        1.577   3.474   0.000   5.051
  124        1.576   3.474   0.000   5.050
  125        1.576   3.475   0.000   5.051
  126        1.576   3.471   0.000   5.047
  127        1.575   3.460   0.000   5.035
  128        1.574   3.461   0.000   5.036
  129        1.576   3.472   0.000   5.048
  130        1.737   4.369   0.000   6.105
  131        1.737   4.370   0.000   6.107
  132        1.737   4.380   0.000   6.117
  133        1.738   4.388   0.000   6.126
  134        1.739   4.385   0.000   6.124
  135        1.737   4.369   0.000   6.106
  136        1.737   4.368   0.000   6.105
  137        1.738   4.380   0.000   6.119
  138        1.738   4.381   0.000   6.120
  139        1.739   4.389   0.000   6.128
  140        1.739   4.387   0.000   6.126
  141        1.738   4.381   0.000   6.119
  142        1.738   4.380   0.000   6.118
  143        1.738   4.388   0.000   6.127
  144        1.739   4.388   0.000   6.127
  145        1.738   4.383   0.000   6.121
  146        1.737   4.382   0.000   6.119
  147        1.736   4.369   0.000   6.105
  148        1.736   4.369   0.000   6.105
  149        1.739   4.387   0.000   6.126
  150        1.738   4.389   0.000   6.127
  151        1.738   4.377   0.000   6.116
  152        1.737   4.381   0.000   6.119
  153        1.737   4.382   0.000   6.120
  154        1.737   4.371   0.000   6.108
  155        1.737   4.373   0.000   6.111
  156        1.737   4.369   0.000   6.106
  157        1.737   4.368   0.000   6.104
  158        1.738   4.376   0.000   6.115
  159        1.738   4.377   0.000   6.115
  160        1.737   4.369   0.000   6.106
  161        1.737   4.372   0.000   6.108
  162        1.737   4.370   0.000   6.107
  163        1.736   4.367   0.000   6.103
  164        1.738   4.381   0.000   6.118
  165        1.737   4.376   0.000   6.113
  166        1.737   4.370   0.000   6.107
  167        1.737   4.370   0.000   6.107
  168        1.737   4.371   0.000   6.107
  169        1.738   4.378   0.000   6.117
  170        1.738   4.381   0.000   6.119
  171        1.737   4.373   0.000   6.110
  172        1.738   4.388   0.000   6.127
  173        1.737   4.371   0.000   6.108
  174        1.737   4.371   0.000   6.108
  175        1.739   4.384   0.000   6.122
  176        1.737   4.368   0.000   6.104
  177        1.738   4.381   0.000   6.119
  178        1.737   4.369   0.000   6.106
  179        1.738   4.377   0.000   6.115
  180        1.738   4.380   0.000   6.118
  181        1.736   4.370   0.000   6.106
  182        1.738   4.378   0.000   6.116
  183        1.737   4.370   0.000   6.106
  184        1.738   4.380   0.000   6.118
  185        1.738   4.384   0.000   6.122
  186        1.738   4.383   0.000   6.120
  187        1.737   4.371   0.000   6.107
  188        1.738   4.380   0.000   6.118
  189        1.739   4.382   0.000   6.120
  190        1.738   4.382   0.000   6.120
  191        1.739   4.387   0.000   6.127
  192        1.737   4.370   0.000   6.107
  193        1.739   4.389   0.000   6.128
  194        1.737   4.368   0.000   6.105
  195        1.737   4.370   0.000   6.107
  196        1.737   4.382   0.000   6.119
  197        1.737   4.370   0.000   6.107
  198        1.737   4.380   0.000   6.118
  199        1.738   4.382   0.000   6.120
  200        1.739   4.381   0.000   6.119
  201        1.738   4.382   0.000   6.120
  202        1.738   4.380   0.000   6.118
  203        1.738   4.389   0.000   6.127
  204        1.738   4.380   0.000   6.118
  205        1.737   4.379   0.000   6.116
  206        1.737   4.369   0.000   6.106
  207        1.737   4.369   0.000   6.106
  208        1.738   4.382   0.000   6.120
  209        1.738   4.379   0.000   6.117
  210        1.737   4.370   0.000   6.106
  211        1.737   4.372   0.000   6.109
  212        1.737   4.369   0.000   6.106
  213        1.739   4.375   0.000   6.114
  214        1.736   4.367   0.000   6.103
  215        1.738   4.381   0.000   6.119
  216        1.736   4.369   0.000   6.106
  217        1.737   4.369   0.000   6.106
  218        1.737   4.382   0.000   6.119
  219        1.738   4.379   0.000   6.118
  220        1.738   4.381   0.000   6.119
  221        1.738   4.381   0.000   6.119
  222        1.738   4.381   0.000   6.119
  223        1.738   4.381   0.000   6.119
  224        1.738   4.383   0.000   6.121
  225        1.738   4.382   0.000   6.120
  226        1.738   4.379   0.000   6.117
  227        1.737   4.380   0.000   6.117
  228        1.738   4.379   0.000   6.116
  229        1.738   4.380   0.000   6.118
  230        1.737   4.370   0.000   6.107
  231        1.738   4.379   0.000   6.117
  232        1.736   4.368   0.000   6.104
  233        1.738   4.381   0.000   6.119
  234        1.737   4.370   0.000   6.107
  235        1.737   4.370   0.000   6.107
  236        1.739   4.390   0.000   6.129
  237        1.739   4.391   0.000   6.130
  238        1.737   4.381   0.000   6.119
  239        1.738   4.378   0.000   6.117
  240        1.737   4.381   0.000   6.118
  241        1.738   4.378   0.000   6.116
  242        1.738   4.388   0.000   6.126
  243        1.739   4.388   0.000   6.127
  244        1.737   4.380   0.000   6.117
  245        1.738   4.379   0.000   6.116
  246        1.738   4.378   0.000   6.116
  247        1.739   4.390   0.000   6.129
  248        1.738   4.380   0.000   6.118
  249        1.738   4.391   0.000   6.129
  250        1.738   4.379   0.000   6.118
  251        1.738   4.380   0.000   6.119
  252        1.737   4.381   0.000   6.118
  253        1.738   4.379   0.000   6.118
  254        1.739   4.389   0.000   6.127
  255        1.738   4.379   0.000   6.117
  256        1.739   4.385   0.000   6.124
  257        1.738   4.379   0.000   6.118
--------------------------------------------------
tot        345.6211195.855 112.8261654.303
 


 magnetization (x)
 
# of ion       s       p       d       tot
------------------------------------------
    1       -0.000  -0.000   0.000  -0.000
    2       -0.000  -0.000  -0.000  -0.000
    3       -0.000  -0.000   0.000   0.000
    4       -0.000  -0.000   0.000   0.000
    5       -0.000  -0.000  -0.000  -0.000
    6        0.000   0.000  -0.000  -0.000
    7       -0.000  -0.000   0.000   0.000
    8       -0.000  -0.000  -0.000  -0.000
    9       -0.000  -0.000   0.000   0.000
   10       -0.000  -0.000   0.000   0.000
   11       -0.000  -0.000  -0.000  -0.000
   12       -0.000  -0.000   0.000  -0.000
   13       -0.000  -0.000  -0.000  -0.000
   14       -0.000  -0.000   0.000  -0.000
   15       -0.000  -0.000   0.000   0.000
   16       -0.000  -0.000   0.000   0.000
   17        0.000   0.000   0.000   0.000
   18       -0.000  -0.000   0.000  -0.000
   19       -0.000   0.000   0.000   0.000
   20       -0.000  -0.000  -0.000  -0.000
   21        0.000  -0.000   0.000   0.000
   22        0.000  -0.000   0.000   0.000
   23       -0.000  -0.000  -0.000  -0.000
   24       -0.000  -0.000  -0.003  -0.003
   25       -0.000  -0.000   0.000   0.000
   26       -0.000  -0.000  -0.000  -0.000
   27       -0.000  -0.000   0.000   0.000
   28       -0.000  -0.000   0.000   0.000
   29       -0.000  -0.000   0.000   0.000
   30       -0.000  -0.000   0.000   0.000
   31       -0.000  -0.000  -0.000  -0.000
   32       -0.000  -0.000  -0.000  -0.000
   33       -0.000  -0.000   0.000   0.000
   34        0.000  -0.000  -0.000  -0.000
   35       -0.000  -0.000  -0.000  -0.000
   36       -0.000  -0.000   0.000   0.000
   37        0.000   0.000   0.000   0.000
   38       -0.000  -0.000   0.006   0.006
   39        0.000   0.000   0.000   0.000
   40       -0.000   0.000   0.011   0.011
   41        0.000   0.000   0.000   0.000
   42        0.000  -0.000   0.000   0.000
   43       -0.000  -0.000  -0.000  -0.000
   44       -0.000  -0.000   0.000   0.000
   45       -0.000  -0.000  -0.000  -0.000
   46        0.000   0.000   0.001   0.001
   47        0.000   0.000   0.003   0.003
   48        0.000   0.000   0.003   0.004
   49       -0.000   0.000   0.001   0.001
   50        0.000  -0.000  -0.000  -0.000
   51       -0.000  -0.000  -0.000  -0.000
   52       -0.000  -0.000  -0.000  -0.000
   53       -0.000  -0.000   0.000   0.000
   54        0.000   0.000   0.000   0.000
   55        0.000   0.000   0.000   0.000
   56        0.005   0.007   0.894   0.906
   57        0.000   0.000   0.001   0.001
   58        0.000  -0.000  -0.000  -0.000
   59       -0.000  -0.000   0.000   0.000
   60       -0.000  -0.000  -0.000  -0.000
   61       -0.000  -0.000   0.000   0.000
   62        0.000   0.000   0.000   0.000
   63        0.000   0.000   0.000   0.000
   64        0.000  -0.000   0.010   0.010
   65        0.000   0.000   0.041   0.042
   66       -0.000  -0.000   0.000  -0.000
   67        0.000  -0.000   0.000  -0.000
   68       -0.000  -0.000   0.000  -0.000
   69       -0.000  -0.000   0.000  -0.000
   70       -0.000  -0.000   0.000  -0.000
   71       -0.000  -0.000   0.000  -0.000
   72       -0.000  -0.000   0.000  -0.000
   73       -0.000  -0.000   0.000  -0.000
   74       -0.000   0.000   0.000   0.000
   75        0.000  -0.000   0.000  -0.000
   76        0.000   0.000   0.000   0.000
   77       -0.000   0.000   0.000   0.000
   78       -0.000  -0.001   0.000  -0.001
   79       -0.000  -0.000   0.000  -0.000
   80       -0.000  -0.000   0.000  -0.000
   81        0.000  -0.000   0.000  -0.000
   82        0.000  -0.000   0.000  -0.000
   83        0.000   0.000   0.000   0.000
   84       -0.000  -0.000   0.000  -0.000
   85       -0.000  -0.000   0.000  -0.000
   86        0.000   0.000   0.000   0.000
   87       -0.000  -0.001   0.000  -0.001
   88       -0.001  -0.017   0.000  -0.017
   89       -0.000  -0.000   0.000  -0.000
   90       -0.000  -0.001   0.000  -0.001
   91       -0.000  -0.000   0.000  -0.000
   92       -0.000  -0.000   0.000  -0.000
   93       -0.000  -0.000   0.000  -0.000
   94       -0.001  -0.014   0.000  -0.015
   95       -0.000  -0.000   0.000  -0.000
   96       -0.000  -0.000   0.000  -0.000
   97       -0.000  -0.000   0.000  -0.000
   98       -0.000  -0.000   0.000  -0.000
   99       -0.000  -0.000   0.000  -0.000
  100       -0.000  -0.000   0.000  -0.000
  101       -0.000  -0.000   0.000  -0.000
  102       -0.000  -0.000   0.000  -0.000
  103       -0.000  -0.000   0.000  -0.000
  104       -0.000  -0.000   0.000  -0.000
  105       -0.000  -0.000   0.000  -0.000
  106       -0.000  -0.000   0.000  -0.000
  107       -0.000  -0.000   0.000  -0.000
  108       -0.000  -0.000   0.000  -0.000
  109       -0.000  -0.000   0.000  -0.000
  110       -0.000  -0.000   0.000  -0.000
  111       -0.000  -0.001   0.000  -0.002
  112       -0.000  -0.000   0.000  -0.000
  113       -0.000  -0.000   0.000  -0.000
  114       -0.000  -0.000   0.000  -0.000
  115       -0.000  -0.000   0.000  -0.000
  116       -0.000  -0.000   0.000  -0.000
  117       -0.000  -0.000   0.000  -0.000
  118       -0.000  -0.000   0.000  -0.000
  119       -0.000  -0.000   0.000  -0.000
  120       -0.000  -0.000   0.000  -0.000
  121       -0.000  -0.000   0.000  -0.000
  122       -0.000  -0.000   0.000  -0.000
  123        0.000   0.000   0.000   0.000
  124       -0.000  -0.000   0.000  -0.000
  125       -0.000  -0.000   0.000  -0.000
  126       -0.000  -0.000   0.000  -0.000
  127        0.000   0.000   0.000   0.000
  128       -0.000  -0.000   0.000  -0.000
  129        0.000  -0.000   0.000  -0.000
  130       -0.000  -0.000   0.000  -0.000
  131       -0.000  -0.000   0.000  -0.000
  132       -0.000  -0.000   0.000  -0.000
  133       -0.000   0.000   0.000   0.000
  134       -0.000  -0.000   0.000  -0.000
  135       -0.000  -0.000   0.000  -0.000
  136       -0.000  -0.000   0.000  -0.000
  137       -0.000  -0.000   0.000  -0.000
  138       -0.000  -0.000   0.000  -0.000
  139        0.000  -0.000   0.000  -0.000
  140        0.000   0.000   0.000   0.000
  141       -0.000  -0.000   0.000  -0.000
  142        0.000  -0.000   0.000  -0.000
  143       -0.000  -0.000   0.000  -0.000
  144       -0.000  -0.000   0.000  -0.000
  145        0.000  -0.000   0.000  -0.000
  146        0.000  -0.000   0.000  -0.000
  147       -0.000  -0.000   0.000  -0.000
  148       -0.000  -0.000   0.000  -0.000
  149       -0.000  -0.000   0.000  -0.000
  150       -0.000  -0.000   0.000  -0.000
  151       -0.000  -0.000   0.000  -0.000
  152       -0.000  -0.000   0.000  -0.000
  153       -0.000  -0.000   0.000  -0.000
  154        0.000   0.000   0.000   0.000
  155        0.000   0.000   0.000   0.000
  156       -0.000  -0.000   0.000  -0.000
  157        0.000  -0.000   0.000  -0.000
  158        0.000  -0.000   0.000  -0.000
  159       -0.000  -0.000   0.000  -0.000
  160       -0.000  -0.000   0.000  -0.000
  161        0.000  -0.000   0.000  -0.000
  162        0.000  -0.000   0.000  -0.000
  163       -0.000  -0.000   0.000  -0.000
  164       -0.000  -0.000   0.000  -0.000
  165       -0.000   0.001   0.000   0.000
  166        0.000  -0.000   0.000  -0.000
  167       -0.000  -0.000   0.000  -0.000
  168       -0.000  -0.000   0.000  -0.000
  169       -0.000  -0.000   0.000  -0.000
  170       -0.000  -0.000   0.000  -0.000
  171       -0.000  -0.000   0.000  -0.000
  172       -0.000  -0.000   0.000  -0.000
  173       -0.000  -0.000   0.000  -0.000
  174       -0.000  -0.000   0.000  -0.000
  175       -0.000  -0.000   0.000  -0.000
  176       -0.000  -0.000   0.000  -0.000
  177       -0.000  -0.000   0.000  -0.000
  178       -0.000  -0.000   0.000  -0.000
  179       -0.000  -0.000   0.000  -0.000
  180       -0.000  -0.000   0.000  -0.000
  181       -0.000  -0.000   0.000  -0.000
  182       -0.000  -0.000   0.000  -0.000
  183       -0.000  -0.000   0.000  -0.000
  184       -0.000  -0.000   0.000  -0.000
  185       -0.000  -0.000   0.000  -0.000
  186       -0.000  -0.000   0.000  -0.000
  187        0.000  -0.000   0.000  -0.000
  188       -0.000  -0.000   0.000  -0.000
  189       -0.000  -0.000   0.000  -0.000
  190       -0.000  -0.000   0.000  -0.000
  191       -0.000  -0.000   0.000  -0.000
  192       -0.000  -0.000   0.000  -0.000
  193       -0.000  -0.000   0.000  -0.000
  194       -0.000  -0.000   0.000  -0.000
  195       -0.000  -0.000   0.000  -0.000
  196       -0.000  -0.000   0.000  -0.000
  197       -0.000  -0.000   0.000  -0.000
  198       -0.000  -0.000   0.000  -0.000
  199       -0.000   0.000   0.000   0.000
  200       -0.000  -0.000   0.000  -0.000
  201       -0.000  -0.000   0.000  -0.000
  202       -0.000  -0.000   0.000  -0.000
  203       -0.000  -0.005   0.000  -0.006
  204       -0.000  -0.000   0.000  -0.000
  205        0.000  -0.000   0.000  -0.000
  206        0.000  -0.000   0.000  -0.000
  207       -0.000  -0.000   0.000  -0.000
  208       -0.000  -0.000   0.000  -0.000
  209       -0.000  -0.000   0.000  -0.000
  210       -0.000  -0.000   0.000  -0.000
  211       -0.000  -0.000   0.000  -0.000
  212       -0.000  -0.000   0.000  -0.000
  213       -0.000  -0.000   0.000  -0.000
  214       -0.000  -0.000   0.000  -0.000
  215        0.000  -0.000   0.000  -0.000
  216       -0.000  -0.000   0.000  -0.000
  217       -0.000  -0.000   0.000  -0.000
  218       -0.000  -0.000   0.000  -0.000
  219        0.000  -0.000   0.000  -0.000
  220       -0.000  -0.000   0.000  -0.000
  221       -0.000  -0.000   0.000  -0.000
  222       -0.000  -0.000   0.000  -0.000
  223       -0.000  -0.000   0.000  -0.000
  224        0.000  -0.000   0.000  -0.000
  225       -0.000  -0.000   0.000  -0.000
  226        0.000  -0.000   0.000  -0.000
  227        0.000  -0.000   0.000  -0.000
  228       -0.000  -0.000   0.000  -0.000
  229       -0.000  -0.000   0.000  -0.000
  230       -0.000  -0.000   0.000  -0.000
  231       -0.000  -0.000   0.000  -0.000
  232       -0.000  -0.000   0.000  -0.000
  233       -0.000  -0.000   0.000  -0.000
  234       -0.000   0.000   0.000   0.000
  235       -0.000  -0.000   0.000  -0.000
  236       -0.000  -0.000   0.000  -0.000
  237       -0.000   0.001   0.000   0.001
  238       -0.000  -0.000   0.000  -0.000
  239        0.000  -0.000   0.000  -0.000
  240       -0.000   0.000   0.000  -0.000
  241        0.000  -0.000   0.000  -0.000
  242        0.000   0.000   0.000   0.000
  243        0.000  -0.000   0.000  -0.000
  244       -0.000  -0.000   0.000  -0.000
  245        0.000  -0.000   0.000  -0.000
  246        0.000   0.000   0.000   0.000
  247       -0.000  -0.000   0.000  -0.000
  248       -0.000  -0.000   0.000  -0.000
  249       -0.000   0.002   0.000   0.001
  250       -0.000  -0.000   0.000  -0.000
  251        0.000  -0.000   0.000  -0.000
  252        0.000  -0.000   0.000  -0.000
  253       -0.000  -0.000   0.000  -0.000
  254       -0.000  -0.000   0.000  -0.000
  255       -0.000   0.000   0.000   0.000
  256        0.000   0.000   0.000   0.000
  257        0.000   0.000   0.000   0.000
--------------------------------------------------
tot          0.002  -0.035   0.970   0.937
 

 total amount of memory used by VASP MPI-rank0   291464. kBytes
=======================================================================

   base      :      30000. kBytes
   nonlr-proj:      49429. kBytes
   fftplans  :      27976. kBytes
   grid      :      34041. kBytes
   one-center:       1026. kBytes
   wavefun   :     148992. kBytes
 
  
  
 General timing and accounting informations for this job:
 ========================================================
  
                  Total CPU time used (sec):      884.214
                            User time (sec):      554.368
                          System time (sec):      329.846
                         Elapsed time (sec):      911.326
  
                   Maximum memory used (kb):      621456.
                   Average memory used (kb):           0.
  
                          Minor page faults:        87706
                          Major page faults:            0
                 Voluntary context switches:        16348
