LTO                                     
           1
     7.933971    0.000000    0.000000
     0.000000    7.792550   -0.000000
     0.000000   -0.000000    7.533761
   Ti   O    F 
   8   8  16
Direct configuration=     1
   1.00000000  0.00013846  0.98943285
   0.00000000  0.00013845  0.51056711
   1.00000000  0.49986158  0.98943307
   0.00000000  0.49986157  0.51056690
   0.50000000  0.98775116  0.00035189
   0.50000000  0.98775115  0.49964826
   0.50000000  0.51224882  0.00035179
   0.50000000  0.51224881  0.49964813
   0.50000000  0.74999999  0.99980442
   0.50000000  0.74999999  0.50019556
   1.00000000  0.99965147  0.75000004
   1.00000000  0.50034857  0.75000006
   0.50000000  0.00567505  0.25000000
   0.50000000  0.00564531  0.75000001
   0.50000000  0.49432491  0.24999998
   0.50000000  0.49435465  0.75000000
   0.23689085  0.00101615  0.00527744
   0.23689086  0.00101614  0.49472248
   0.23689083  0.49898386  0.00527747
   0.23689085  0.49898385  0.49472254
   0.76310915  0.00101614  0.00527747
   0.76310914  0.00101615  0.49472251
   0.76310916  0.49898388  0.00527750
   0.76310915  0.49898384  0.49472256
   0.99999998  0.25000003  0.00743120
   0.00000002  0.25000002  0.49256880
   0.99999999  0.75000001  0.00742060
   0.00000001  0.75000000  0.49257939
   0.50000002  0.24999999  0.99985881
   0.49999998  0.24999998  0.50014116
   1.00000000  0.99961378  0.24999998
   0.00000000  0.50038626  0.24999999
