LTO                                     
           1
     7.883650   -0.000001   -0.000001
    -0.000001    7.783946   -0.000004
    -0.000001   -0.000004    7.508306
   Ti   O    F 
   8   8  16
Direct configuration=     1
   0.00000002  0.00022934  0.00034146
   1.00000000  0.00022922  0.49965476
   0.99999998  0.49977085  0.99965788
   1.00000000  0.49977095  0.50034452
   0.50000002  0.98704424  0.98921803
   0.50000000  0.98704167  0.51077770
   0.49999998  0.51295603  0.01078251
   0.50000001  0.51295842  0.48922277
   0.50000000  0.74999916  0.00000003
   0.50000000  0.75000043  0.50000001
   0.00000001  0.99945737  0.25000032
   0.00000002  0.99944621  0.75000085
   0.99999999  0.50055387  0.24999937
   0.99999999  0.50054343  0.75000014
   0.50000000  0.00698774  0.75001003
   0.50000000  0.49301170  0.24998849
   0.25061886  0.00198452  0.00439647
   0.25061748  0.00198365  0.49560381
   0.25061894  0.49801554  0.99560357
   0.25061738  0.49801625  0.50439626
   0.74938116  0.00198443  0.00439652
   0.74938249  0.00198364  0.49560387
   0.74938103  0.49801546  0.99560363
   0.74938265  0.49801624  0.50439631
   0.00000000  0.25000017  0.99999996
   0.00000000  0.25000011  0.50000037
   0.00000000  0.75000009  0.00000037
   0.00000000  0.75000013  0.49999995
   0.50000000  0.25000014  0.00000002
   0.50000000  0.24999980  0.50000001
   0.49999998  0.01322664  0.24999959
   0.50000001  0.48677257  0.75000041
