 vasp.5.4.4.18Apr17-6-g9f103f2a35 (build Jul 16 2019 12:12:28) complex          
  
 executed on             LinuxIFC date 2020.01.06  11:48:50
 running on   96 total cores
 distrk:  each k-point on   96 cores,    1 groups
 distr:  one band on NCORES_PER_BAND=   8 cores,   12 groups


--------------------------------------------------------------------------------------------------------


 INCAR:
 POTCAR:    PAW_PBE Li_sv 10Sep2004               
 POTCAR:    PAW_PBE Ti_pv 07Sep2000               
 POTCAR:    PAW_PBE O 08Apr2002                   
 POTCAR:    PAW_PBE F 08Apr2002                   
 POTCAR:    PAW_PBE Li_sv 10Sep2004               
   VRHFIN =Li: 1s2s2p                                                           
   LEXCH  = PE                                                                  
   EATOM  =   202.7858 eV,   14.9043 Ry                                         
                                                                                
   TITEL  = PAW_PBE Li_sv 10Sep2004                                             
   LULTRA =        F    use ultrasoft PP ?                                      
   IUNSCR =        0    unscreen: 0-lin 1-nonlin 2-no                           
   RPACOR =    0.000    partial core radius                                     
   POMASS =    7.010; ZVAL   =    3.000    mass and valenz                      
   RCORE  =    1.700    outmost cutoff radius                                   
   RWIGS  =    2.050; RWIGS  =    1.085    wigner-seitz radius (au A)           
   ENMAX  =  499.034; ENMIN  =  374.276 eV                                      
   ICORE  =        2    local potential                                         
   LCOR   =        T    correct aug charges                                     
   LPAW   =        T    paw PP                                                  
   EAUG   =  628.945                                                            
   RMAX   =    1.732    core radius for proj-oper                               
   RAUG   =    1.300    factor for augmentation sphere                          
   RDEP   =    1.728    radius for radial grids                                 
   RDEPT  =    1.329    core radius for aug-charge                              
                                                                                
   Atomic configuration                                                         
    4 entries                                                                   
     n  l   j            E        occ.                                          
     1  0  0.50       -51.8549   2.0000                                         
     2  0  0.50        -2.8742   1.0000                                         
     2  1  0.50        -1.3606   0.0000                                         
     3  2  1.50        -1.3606   0.0000                                         
   Description                                                                  
     l       E           TYP  RCUT    TYP  RCUT                                 
     0    -51.8548813     23  1.400                                             
     0     -2.8742052     23  1.700                                             
     1     -1.3605826     23  1.400                                             
     2     -1.3605826     23  1.400                                             
  local pseudopotential read in
  atomic valenz-charges read in
  non local Contribution for L=           0  read in
    real space projection operators read in
  non local Contribution for L=           0  read in
    real space projection operators read in
  non local Contribution for L=           1  read in
    real space projection operators read in
    PAW grid and wavefunctions read in
 
   number of l-projection  operators is LMAX  =           3
   number of lm-projection operators is LMMAX =           5
 
 POTCAR:    PAW_PBE Ti_pv 07Sep2000               
   VRHFIN =Ti: d3 s1                                                            
   LEXCH  = PE                                                                  
   EATOM  =  1042.5995 eV,   76.6289 Ry                                         
                                                                                
   TITEL  = PAW_PBE Ti_pv 07Sep2000                                             
   LULTRA =        F    use ultrasoft PP ?                                      
   IUNSCR =        1    unscreen: 0-lin 1-nonlin 2-no                           
   RPACOR =    2.200    partial core radius                                     
   POMASS =   47.880; ZVAL   =   10.000    mass and valenz                      
   RCORE  =    2.500    outmost cutoff radius                                   
   RWIGS  =    2.500; RWIGS  =    1.323    wigner-seitz radius (au A)           
   ENMAX  =  222.335; ENMIN  =  166.751 eV                                      
   RCLOC  =    1.701    cutoff for local pot                                    
   LCOR   =        T    correct aug charges                                     
   LPAW   =        T    paw PP                                                  
   EAUG   =  482.848                                                            
   DEXC   =    0.000                                                            
   RMAX   =    2.564    core radius for proj-oper                               
   RAUG   =    1.300    factor for augmentation sphere                          
   RDEP   =    2.538    radius for radial grids                                 
   RDEPT  =    1.952    core radius for aug-charge                              
                                                                                
   Atomic configuration                                                         
    8 entries                                                                   
     n  l   j            E        occ.                                          
     1  0  0.50     -4865.3608   2.0000                                         
     2  0  0.50      -533.1368   2.0000                                         
     2  1  1.50      -440.5031   6.0000                                         
     3  0  0.50       -59.3186   2.0000                                         
     3  1  1.50       -35.7012   6.0000                                         
     3  2  2.50        -1.9157   3.0000                                         
     4  0  0.50        -3.7291   1.0000                                         
     4  3  2.50        -1.3606   0.0000                                         
   Description                                                                  
     l       E           TYP  RCUT    TYP  RCUT                                 
     1    -35.7012140     23  2.300                                             
     1     -1.3605826     23  2.300                                             
     2     -1.9156996     23  2.500                                             
     2     -0.4063033     23  2.500                                             
     0     -3.7290856     23  2.500                                             
     0     20.4087390     23  2.500                                             
  local pseudopotential read in
  partial core-charges read in
  partial kinetic energy density read in
  atomic valenz-charges read in
  non local Contribution for L=           1  read in
    real space projection operators read in
  non local Contribution for L=           1  read in
    real space projection operators read in
  non local Contribution for L=           2  read in
    real space projection operators read in
  non local Contribution for L=           2  read in
    real space projection operators read in
  non local Contribution for L=           0  read in
    real space projection operators read in
  non local Contribution for L=           0  read in
    real space projection operators read in
    PAW grid and wavefunctions read in
 
   number of l-projection  operators is LMAX  =           6
   number of lm-projection operators is LMMAX =          18
 
 POTCAR:    PAW_PBE O 08Apr2002                   
   VRHFIN =O: s2p4                                                              
   LEXCH  = PE                                                                  
   EATOM  =   432.3788 eV,   31.7789 Ry                                         
                                                                                
   TITEL  = PAW_PBE O 08Apr2002                                                 
   LULTRA =        F    use ultrasoft PP ?                                      
   IUNSCR =        1    unscreen: 0-lin 1-nonlin 2-no                           
   RPACOR =    1.200    partial core radius                                     
   POMASS =   16.000; ZVAL   =    6.000    mass and valenz                      
   RCORE  =    1.520    outmost cutoff radius                                   
   RWIGS  =    1.550; RWIGS  =    0.820    wigner-seitz radius (au A)           
   ENMAX  =  400.000; ENMIN  =  300.000 eV                                      
   ICORE  =        2    local potential                                         
   LCOR   =        T    correct aug charges                                     
   LPAW   =        T    paw PP                                                  
   EAUG   =  605.392                                                            
   DEXC   =    0.000                                                            
   RMAX   =    1.553    core radius for proj-oper                               
   RAUG   =    1.300    factor for augmentation sphere                          
   RDEP   =    1.550    radius for radial grids                                 
   RDEPT  =    1.329    core radius for aug-charge                              
                                                                                
   Atomic configuration                                                         
    4 entries                                                                   
     n  l   j            E        occ.                                          
     1  0  0.50      -514.6923   2.0000                                         
     2  0  0.50       -23.9615   2.0000                                         
     2  1  0.50        -9.0305   4.0000                                         
     3  2  1.50        -9.5241   0.0000                                         
   Description                                                                  
     l       E           TYP  RCUT    TYP  RCUT                                 
     0    -23.9615318     23  1.200                                             
     0     -9.5240782     23  1.200                                             
     1     -9.0304911     23  1.520                                             
     1      8.1634956     23  1.520                                             
     2     -9.5240782      7  1.500                                             
  local pseudopotential read in
  partial core-charges read in
  partial kinetic energy density read in
  kinetic energy density of atom read in
  atomic valenz-charges read in
  non local Contribution for L=           0  read in
    real space projection operators read in
  non local Contribution for L=           0  read in
    real space projection operators read in
  non local Contribution for L=           1  read in
    real space projection operators read in
  non local Contribution for L=           1  read in
    real space projection operators read in
    PAW grid and wavefunctions read in
 
   number of l-projection  operators is LMAX  =           4
   number of lm-projection operators is LMMAX =           8
 
 POTCAR:    PAW_PBE F 08Apr2002                   
   VRHFIN =F: s2p5                                                              
   LEXCH  = PE                                                                  
   EATOM  =   659.6475 eV,   48.4827 Ry                                         
                                                                                
   TITEL  = PAW_PBE F 08Apr2002                                                 
   LULTRA =        F    use ultrasoft PP ?                                      
   IUNSCR =        1    unscreen: 0-lin 1-nonlin 2-no                           
   RPACOR =    1.200    partial core radius                                     
   POMASS =   18.998; ZVAL   =    7.000    mass and valenz                      
   RCORE  =    1.520    outmost cutoff radius                                   
   RWIGS  =    1.500; RWIGS  =    0.794    wigner-seitz radius (au A)           
   ENMAX  =  400.000; ENMIN  =  300.000 eV                                      
   ICORE  =        2    local potential                                         
   LCOR   =        T    correct aug charges                                     
   LPAW   =        T    paw PP                                                  
   EAUG   =  613.614                                                            
   RMAX   =    1.555    core radius for proj-oper                               
   RAUG   =    1.300    factor for augmentation sphere                          
   RDEP   =    1.539    radius for radial grids                                 
   RDEPT  =    1.299    core radius for aug-charge                              
                                                                                
   Atomic configuration                                                         
    4 entries                                                                   
     n  l   j            E        occ.                                          
     1  0  0.50      -663.3661   2.0000                                         
     2  0  0.50       -29.8995   2.0000                                         
     2  1  0.50       -11.1114   5.0000                                         
     3  2  1.50       -10.8847   0.0000                                         
   Description                                                                  
     l       E           TYP  RCUT    TYP  RCUT                                 
     0    -29.8995018     23  1.200                                             
     0     -9.5240782     23  1.200                                             
     1    -11.1113914     23  1.520                                             
     1      1.3605826     23  1.520                                             
     2    -10.8846608      7  1.500                                             
  local pseudopotential read in
  partial core-charges read in
  partial kinetic energy density read in
  atomic valenz-charges read in
  non local Contribution for L=           0  read in
    real space projection operators read in
  non local Contribution for L=           0  read in
    real space projection operators read in
  non local Contribution for L=           1  read in
    real space projection operators read in
  non local Contribution for L=           1  read in
    real space projection operators read in
    PAW grid and wavefunctions read in
 
   number of l-projection  operators is LMAX  =           4
   number of lm-projection operators is LMMAX =           8
 
 Optimization of the real space projectors (new method)

 maximal supplied QI-value         = 22.11
 optimisation between [QCUT,QGAM] = [ 11.28, 22.77] = [ 35.61,145.23] Ry 
 Optimized for a Real-space Cutoff    1.31 Angstroem

   l    n(q)    QCUT    max X(q) W(low)/X(q) W(high)/X(q)  e(spline) 
   0      9    11.276    10.506    0.19E-04    0.17E-04    0.32E-07
   0      9    11.276     8.367    0.38E-04    0.40E-04    0.65E-07
   1      8    11.276     8.983    0.55E-04    0.98E-04    0.20E-06
 Optimization of the real space projectors (new method)

 maximal supplied QI-value         = 15.12
 optimisation between [QCUT,QGAM] = [ 11.34, 22.83] = [ 36.00,145.93] Ry 
 Optimized for a Real-space Cutoff    1.56 Angstroem

   l    n(q)    QCUT    max X(q) W(low)/X(q) W(high)/X(q)  e(spline) 
   1     10    11.338     4.216    0.27E-04    0.12E-04    0.66E-07
   1     10    11.338     5.422    0.81E-04    0.24E-04    0.19E-06
   2     10    11.338    72.084    0.64E-04    0.21E-03    0.51E-06
   2     10    11.338    65.965    0.63E-04    0.21E-03    0.50E-06
   0     11    11.338    41.531    0.33E-04    0.54E-04    0.13E-06
   0     11    11.338    16.290    0.26E-04    0.41E-04    0.11E-06
 Optimization of the real space projectors (new method)

 maximal supplied QI-value         = 24.76
 optimisation between [QCUT,QGAM] = [ 11.39, 22.77] = [ 36.31,145.25] Ry 
 Optimized for a Real-space Cutoff    1.20 Angstroem

   l    n(q)    QCUT    max X(q) W(low)/X(q) W(high)/X(q)  e(spline) 
   0      8    11.387    20.381    0.89E-04    0.31E-03    0.27E-06
   0      8    11.387    15.268    0.93E-04    0.32E-03    0.29E-06
   1      8    11.387     5.964    0.53E-04    0.28E-03    0.29E-06
   1      8    11.387     5.382    0.37E-04    0.22E-03    0.26E-06
 Optimization of the real space projectors (new method)

 maximal supplied QI-value         = 24.76
 optimisation between [QCUT,QGAM] = [ 11.39, 22.77] = [ 36.31,145.25] Ry 
 Optimized for a Real-space Cutoff    1.20 Angstroem

   l    n(q)    QCUT    max X(q) W(low)/X(q) W(high)/X(q)  e(spline) 
   0      8    11.387    14.049    0.69E-04    0.23E-03    0.18E-06
   0      8    11.387     8.945    0.88E-04    0.30E-03    0.26E-06
   1      8    11.387     7.086    0.62E-04    0.27E-03    0.27E-06
   1      8    11.387     6.747    0.46E-04    0.23E-03    0.25E-06

 ----------------------------------------------------------------------------- 
|                                                                             |
|  ADVICE TO THIS USER RUNNING 'VASP/VAMP'   (HEAR YOUR MASTER'S VOICE ...):  |
|                                                                             |
|      You enforced a specific xc-type in the INCAR file,                     |
|      a different type was found on the POTCAR file                          |
|          I HOPE YOU KNOW, WHAT YOU ARE  DOING                               |
|                                                                             |
 ----------------------------------------------------------------------------- 

  PAW_PBE Li_sv 10Sep2004               :
 energy of atom  1       EATOM= -202.7858
 kinetic energy error for atom=    0.0143 (will be added to EATOM!!)
  PAW_PBE Ti_pv 07Sep2000               :
 energy of atom  2       EATOM=-1042.5995
 kinetic energy error for atom=    0.0024 (will be added to EATOM!!)
  PAW_PBE O 08Apr2002                   :
 energy of atom  3       EATOM= -432.3788
 kinetic energy error for atom=    0.0224 (will be added to EATOM!!)
  PAW_PBE F 08Apr2002                   :
 energy of atom  4       EATOM= -659.6475
 kinetic energy error for atom=    0.0354 (will be added to EATOM!!)
 
 
 POSCAR: config 53                               
  positions in direct lattice
  velocities in cartesian coordinates
 exchange correlation table for  LEXCH =       14
   RHO(1)=    0.500       N(1)  =     2000
   RHO(2)=  100.500       N(2)  =     4000

 VTST: version 3.2, (02/03/18)

 CHAIN: initializing optimizer
 
 OPT: Using VASP QUASI-newton optimizer
 CHAIN: Read ICHAIN            0
 
 POSCAR: config 53                               
  positions in direct lattice
  velocities in cartesian coordinates
 


--------------------------------------------------------------------------------------------------------


 ion  position               nearest neighbor table
   1  0.874  0.437  0.118- 194 1.91 107 1.98  78 1.98  40 2.89
   2  0.995  0.995  0.995- 118 1.87  68 1.88 103 1.89 171 2.02 130 2.05 212 2.06
   3  0.999  0.990  0.495- 119 1.82  67 1.82 172 1.95 193 1.97 131 2.01 213 2.09
   4  0.010  0.496  0.995-  89 1.80 117 1.89 138 1.92 214 1.99 132 2.00 194 2.08
   5  0.995  0.504  0.508-  66 1.83 104 1.84 215 1.93 223 2.01 173 2.02 137 2.04
   6  0.494  0.994  1.000- 101 1.83 121 1.85 140 1.96 133 1.97 216 2.02 174 2.03
   7  0.502  0.009  0.498- 112 1.78 191 1.91 134 1.92 139 1.93 175 1.94 225 2.03
   8  0.503  0.495  0.996-  90 1.87 120 1.88  70 1.89 192 2.02 135 2.03 217 2.06
   9  0.492  0.499  0.496- 102 1.81  69 1.86 224 1.99 218 2.00 136 2.01 176 2.08
  10  0.007  0.003  0.256-  91 1.84  67 1.86 219 1.95 227 1.98 130 2.01 197 2.07
  11  0.002  0.007  0.758-  68 1.80 113 1.84 177 1.95 198 1.98 228 2.06 131 2.07
  12  0.995  0.492  0.252- 107 1.78 122 1.90 137 1.93 132 2.02 220 2.03 178 2.04
  13  0.994  0.500  0.740- 108 1.82  66 1.82 226 1.93 221 1.97 138 2.05 179 2.05
  14  0.505  0.009  0.250- 114 1.83  92 1.84 133 1.93 139 1.98 195 2.01 231 2.07
  15  0.493  0.005  0.753- 105 1.81 115 1.84 140 1.94 134 2.01 232 2.01 180 2.04
  16  0.491  0.495  0.257-  69 1.83 106 1.85 229 1.97 181 1.99 222 2.02 135 2.03
  17  0.501  0.503  0.759-  70 1.80 116 1.87 182 1.95 196 1.98 230 2.03 136 2.08
  18  0.995  0.259  0.003- 117 1.83 110 1.88 141 1.97 146 1.97 183 2.00 212 2.02
  19  0.999  0.249  0.491-  74 1.77 213 1.92 184 1.94 202 1.94 223 1.95 142 2.02
  20  0.998  0.758  0.007- 118 1.80  71 1.86 203 1.95 185 1.97 148 2.05 214 2.10
  21  0.997  0.756  0.507- 119 1.83  72 1.84 204 1.95 186 1.97 147 2.03 215 2.04
  22  0.494  0.258  0.002- 120 1.80 109 1.84 150 1.96 143 1.98 187 2.04 216 2.07
  23  0.510  0.246  0.498-  93 1.80 112 1.91 144 1.93 149 1.94 224 1.98 199 2.01
  24  0.507  0.756  1.000-  94 1.83 121 1.84 152 1.94 145 1.99 217 2.02 200 2.02
  25  0.508  0.753  0.508-  73 1.79  95 1.83 225 1.97 218 1.97 201 2.02 151 2.07
  26  0.002  0.259  0.255- 122 1.78  74 1.89 188 1.97 209 1.97 141 2.00 219 2.05
  27  0.007  0.243  0.749- 113 1.81  96 1.83 142 1.96 146 1.98 210 2.05 226 2.06
  28  0.006  0.747  0.244-  71 1.83  97 1.84 220 1.96 227 1.99 147 2.05 211 2.06
  29  0.993  0.750  0.743- 111 1.83  72 1.85 228 1.94 221 1.99 189 2.02 148 2.03
  30  0.508  0.240  0.252-  98 1.82 114 1.83 143 1.93 149 1.97 229 2.03 205 2.04
  31  0.508  0.243  0.751-  99 1.84 115 1.84 150 1.93 144 1.98 206 2.02 230 2.02
  32  0.506  0.750  0.252- 100 1.79 151 1.93 145 1.94 222 1.95 231 1.95 207 2.02
  33  0.502  0.741  0.744- 116 1.81  73 1.84 190 1.93 208 1.97 152 2.03 232 2.07
  34  0.256  0.998  0.006-  75 1.84 101 1.86 246 1.94 233 1.97 171 2.02 157 2.04
  35  0.252  0.993  0.506- 128 1.83  76 1.84 172 1.95 191 2.00 156 2.02 234 2.03
  36  0.247  0.508  0.997- 123 1.81  89 1.86 159 1.93 153 1.98 192 1.98 245 2.04
  37  0.255  0.494  0.506-  77 1.86 102 1.88 127 1.88 158 2.05 173 2.05 235 2.05
  38  0.756  0.001  0.994- 103 1.79  81 1.87 249 1.97 236 1.97 174 2.04 154 2.06
  39  0.750  0.008  0.495-  80 1.83 124 1.84 193 1.94 175 2.00 155 2.00 250 2.05
  40  0.738  0.500  0.005-  90 1.79  78 1.84 237 1.97 247 1.99 161 2.05 194 2.12   1 2.89
  41  0.756  0.497  0.507-  79 1.84 104 1.86 248 1.97 238 2.00 176 2.01 160 2.05
  42  0.245  0.003  0.244-  75 1.84  91 1.85 239 1.94 252 1.97 156 2.04 195 2.07
  43  0.258  0.998  0.744- 105 1.84  76 1.84 253 1.93 240 1.97 157 2.02 177 2.02
  44  0.254  0.491  0.251- 106 1.83 129 1.84 158 1.94 153 1.98 178 2.03 241 2.06
  45  0.247  0.506  0.740-  77 1.79 125 1.84 179 1.96 196 1.98 251 2.02 159 2.07
  46  0.744  0.002  0.256-  92 1.85  80 1.87 256 1.95 242 1.97 154 2.00 197 2.00
  47  0.748  0.008  0.756-  81 1.82 126 1.84 180 1.94 198 1.97 257 2.05 155 2.08
  48  0.751  0.497  0.246-  78 1.96 160 2.02 243 2.03 254 2.04 107 2.04 181 2.05
  49  0.758  0.497  0.743- 108 1.83  79 1.84 255 1.94 244 1.98 182 2.04 161 2.04
  50  0.257  0.252  0.007- 109 1.83  82 1.85 245 1.93 233 1.97 168 2.02 183 2.06
  51  0.255  0.257  0.505- 127 1.81  83 1.85 199 1.97 184 2.01 167 2.03 234 2.05
  52  0.252  0.743  0.994- 123 1.83  86 1.83 200 1.94 185 1.97 246 2.03 162 2.03
  53  0.253  0.755  0.493-  85 1.83 128 1.87 201 1.95 186 1.98 235 2.01 163 2.04
  54  0.755  0.252  0.008- 110 1.82  84 1.86 236 1.95 247 1.96 187 2.02 170 2.06
  55  0.743  0.242  0.498- 124 1.82  93 1.85 169 1.95 164 1.97 202 2.04 248 2.04
  56  0.741  0.748  0.994-  94 1.82  88 1.84 237 1.96 249 1.96 203 2.02 165 2.04
  57  0.742  0.752  0.493-  95 1.82  87 1.85 250 1.96 238 1.98 166 2.03 204 2.04
  58  0.251  0.258  0.244- 129 1.82  82 1.83 205 1.97 188 2.00 167 2.03 239 2.05
  59  0.244  0.252  0.744-  83 1.84  96 1.84 251 1.94 240 1.98 168 2.03 206 2.05
  60  0.244  0.747  0.256-  97 1.84  85 1.85 241 1.94 252 1.99 162 2.03 207 2.06
  61  0.248  0.741  0.756- 125 1.81  86 1.84 189 1.94 208 1.98 163 2.03 253 2.04
  62  0.742  0.251  0.243-  84 1.82  98 1.84 254 1.91 242 1.97 209 2.07 169 2.08
  63  0.745  0.242  0.751- 126 1.82  99 1.84 170 1.95 210 2.01 164 2.01 255 2.06
  64  0.745  0.748  0.257-  87 1.83 243 1.91 100 1.91 256 1.97 211 1.99 165 2.04
  65  0.757  0.749  0.757- 111 1.82  88 1.84 257 1.94 244 1.98 190 2.02 166 2.06
  66  0.013  0.514  0.625-  13 1.82   5 1.83
  67  0.997  0.995  0.376-   3 1.82  10 1.86
  68  0.002  0.992  0.873-  11 1.80   2 1.88
  69  0.495  0.489  0.376-  16 1.83   9 1.86
  70  0.490  0.492  0.875-  17 1.80   8 1.89
  71  0.998  0.737  0.126-  28 1.83  20 1.86
  72  0.003  0.736  0.624-  21 1.84  29 1.85
  73  0.504  0.748  0.624-  25 1.79  33 1.84
  74  0.993  0.259  0.377-  19 1.77  26 1.89
  75  0.257  0.002  0.125-  42 1.84  34 1.84
  76  0.259  0.003  0.625-  43 1.84  35 1.84
  77  0.235  0.493  0.625-  45 1.79  37 1.86
  78  0.752  0.476  0.121-  40 1.84  48 1.96   1 1.98
  79  0.744  0.484  0.625-  41 1.84  49 1.84
  80  0.749  0.011  0.376-  39 1.83  46 1.87
  81  0.744  0.011  0.874-  47 1.82  38 1.87
  82  0.242  0.250  0.126-  58 1.83  50 1.85
  83  0.251  0.251  0.625-  59 1.84  51 1.85
  84  0.741  0.270  0.127-  62 1.82  54 1.86
  85  0.255  0.745  0.375-  53 1.83  60 1.85
  86  0.252  0.751  0.875-  52 1.83  61 1.84
  87  0.752  0.739  0.374-  64 1.83  57 1.85
  88  0.749  0.739  0.876-  56 1.84  65 1.84
  89  0.127  0.504  0.987-   4 1.80  36 1.86
  90  0.623  0.510  0.996-  40 1.79   8 1.87
  91  0.125  0.011  0.250-  10 1.84  42 1.85
  92  0.624  0.012  0.248-  14 1.84  46 1.85
  93  0.625  0.263  0.491-  23 1.80  55 1.85
  94  0.624  0.739  0.003-  56 1.82  24 1.83
  95  0.625  0.768  0.494-  57 1.82  25 1.83
  96  0.125  0.253  0.753-  27 1.83  59 1.84
  97  0.125  0.741  0.253-  60 1.84  28 1.84
  98  0.625  0.233  0.262-  30 1.82  62 1.84
  99  0.626  0.254  0.752-  63 1.84  31 1.84
 100  0.622  0.743  0.252-  32 1.79  64 1.91
 101  0.376  0.998  0.990-   6 1.83  34 1.86
 102  0.376  0.510  0.508-   9 1.81  37 1.88
 103  0.872  0.001  0.998-  38 1.79   2 1.89
 104  0.876  0.508  0.506-   5 1.84  41 1.86
 105  0.376  0.998  0.761-  15 1.81  43 1.84
 106  0.372  0.486  0.245-  44 1.83  16 1.85
 107  0.882  0.480  0.238-  12 1.78   1 1.98  48 2.04
 108  0.876  0.509  0.742-  13 1.82  49 1.83
 109  0.375  0.249  0.007-  50 1.83  22 1.84
 110  0.873  0.253  0.009-  54 1.82  18 1.88
 111  0.875  0.742  0.748-  65 1.82  29 1.83
 112  0.517  0.123  0.489-   7 1.78  23 1.91
 113  0.998  0.126  0.757-  27 1.81  11 1.84
 114  0.485  0.125  0.267-  14 1.83  30 1.83
 115  0.503  0.124  0.754-  15 1.84  31 1.84
 116  0.503  0.625  0.754-  33 1.81  17 1.87
 117  0.999  0.377  0.018-  18 1.83   4 1.89
 118  0.002  0.875  0.011-  20 1.80   2 1.87
 119  0.988  0.874  0.509-   3 1.82  21 1.83
 120  0.504  0.374  0.012-  22 1.80   8 1.88
 121  0.506  0.875  0.009-  24 1.84   6 1.85
 122  0.020  0.372  0.238-  26 1.78  12 1.90
 123  0.258  0.625  0.004-  36 1.81  52 1.83
 124  0.735  0.125  0.514-  55 1.82  39 1.84
 125  0.246  0.624  0.748-  61 1.81  45 1.84
 126  0.750  0.125  0.734-  63 1.82  47 1.84
 127  0.259  0.373  0.493-  51 1.81  37 1.88
 128  0.260  0.876  0.499-  35 1.83  53 1.87
 129  0.234  0.374  0.258-  58 1.82  44 1.84
 130  0.997  0.012  0.127-  10 2.01   2 2.05
 131  0.002  0.008  0.624-   3 2.01  11 2.07
 132  0.004  0.514  0.123-   4 2.00  12 2.02
 133  0.490  0.014  0.126-  14 1.93   6 1.97
 134  0.494  0.003  0.623-   7 1.92  15 2.01
 135  0.501  0.511  0.127-  16 2.03   8 2.03
 136  0.512  0.504  0.624-   9 2.01  17 2.08
 137  0.997  0.484  0.377-  12 1.93   5 2.04
 138  0.990  0.484  0.872-   4 1.92  13 2.05
 139  0.507  0.984  0.376-   7 1.93  14 1.98
 140  0.519  0.993  0.875-  15 1.94   6 1.96
 141  0.009  0.235  0.127-  18 1.97  26 2.00
 142  0.003  0.244  0.622-  27 1.96  19 2.02
 143  0.510  0.232  0.127-  30 1.93  22 1.98
 144  0.502  0.241  0.623-  23 1.93  31 1.98
 145  0.495  0.739  0.127-  32 1.94  24 1.99
 146  0.993  0.265  0.875-  18 1.97  27 1.98
 147  0.993  0.759  0.375-  21 2.03  28 2.05
 148  0.000  0.759  0.874-  29 2.03  20 2.05
 149  0.490  0.267  0.375-  23 1.94  30 1.97
 150  0.497  0.259  0.875-  31 1.93  22 1.96
 151  0.492  0.760  0.375-  32 1.93  25 2.07
 152  0.498  0.757  0.874-  24 1.94  33 2.03
 153  0.239  0.492  0.124-  36 1.98  44 1.98
 154  0.750  0.989  0.127-  46 2.00  38 2.06
 155  0.750  0.986  0.623-  39 2.00  47 2.08
 156  0.251  0.002  0.375-  35 2.02  42 2.04
 157  0.240  0.995  0.874-  43 2.02  34 2.04
 158  0.252  0.512  0.375-  44 1.94  37 2.05
 159  0.266  0.500  0.873-  36 1.93  45 2.07
 160  0.752  0.514  0.376-  48 2.02  41 2.05
 161  0.757  0.514  0.875-  49 2.04  40 2.05
 162  0.250  0.755  0.125-  60 2.03  52 2.03
 163  0.248  0.752  0.625-  61 2.03  53 2.04
 164  0.749  0.269  0.623-  55 1.97  63 2.01
 165  0.751  0.763  0.125-  64 2.04  56 2.04
 166  0.747  0.759  0.624-  57 2.03  65 2.06
 167  0.258  0.242  0.374-  58 2.03  51 2.03
 168  0.255  0.250  0.875-  50 2.02  59 2.03
 169  0.764  0.231  0.375-  55 1.95  62 2.08
 170  0.755  0.232  0.877-  63 1.95  54 2.06
 171  0.125  0.004  0.005-   2 2.02  34 2.02
 172  0.125  0.994  0.501-  35 1.95   3 1.95
 173  0.123  0.493  0.488-   5 2.02  37 2.05
 174  0.625  0.004  0.010-   6 2.03  38 2.04
 175  0.624  0.979  0.504-   7 1.94  39 2.00
 176  0.626  0.487  0.494-  41 2.01   9 2.08
 177  0.127  0.999  0.744-  11 1.95  43 2.02
 178  0.125  0.516  0.253-  44 2.03  12 2.04
 179  0.124  0.492  0.767-  45 1.96  13 2.05
 180  0.624  0.994  0.738-  47 1.94  15 2.04
 181  0.619  0.512  0.250-  16 1.99  48 2.05
 182  0.627  0.491  0.761-  17 1.95  49 2.04
 183  0.124  0.251  0.992-  18 2.00  50 2.06
 184  0.125  0.255  0.495-  19 1.94  51 2.01
 185  0.124  0.742  0.999-  52 1.97  20 1.97
 186  0.124  0.758  0.495-  21 1.97  53 1.98
 187  0.626  0.247  0.992-  54 2.02  22 2.04
 188  0.125  0.228  0.260-  26 1.97  58 2.00
 189  0.123  0.755  0.752-  61 1.94  29 2.02
 190  0.626  0.756  0.752-  33 1.93  65 2.02
 191  0.378  0.015  0.491-   7 1.91  35 2.00
 192  0.373  0.492  0.012-  36 1.98   8 2.02
 193  0.874  0.016  0.507-  39 1.94   3 1.97
 194  0.876  0.493  0.007-   1 1.91   4 2.08  40 2.12
 195  0.377  0.987  0.258-  14 2.01  42 2.07
 196  0.375  0.501  0.735-  17 1.98  45 1.98
 197  0.873  0.991  0.249-  46 2.00  10 2.07
 198  0.874  0.995  0.745-  47 1.97  11 1.98
 199  0.380  0.234  0.501-  51 1.97  23 2.01
 200  0.376  0.761  0.003-  52 1.94  24 2.02
 201  0.378  0.737  0.503-  53 1.95  25 2.02
 202  0.875  0.242  0.508-  19 1.94  55 2.04
 203  0.872  0.755  0.999-  20 1.95  56 2.02
 204  0.872  0.736  0.505-  21 1.95  57 2.04
 205  0.378  0.265  0.242-  58 1.97  30 2.04
 206  0.377  0.248  0.749-  31 2.02  59 2.05
 207  0.376  0.760  0.246-  32 2.02  60 2.06
 208  0.375  0.753  0.747-  33 1.97  61 1.98
 209  0.875  0.267  0.241-  26 1.97  62 2.07
 210  0.875  0.253  0.745-  63 2.01  27 2.05
 211  0.874  0.761  0.249-  64 1.99  28 2.06
 212  0.001  0.128  0.991-  18 2.02   2 2.06
 213  0.007  0.126  0.496-  19 1.92   3 2.09
 214  0.992  0.624  0.986-   4 1.99  20 2.10
 215  0.008  0.626  0.482-   5 1.93  21 2.04
 216  0.502  0.124  0.991-   6 2.02  22 2.07
 217  0.485  0.627  0.994-  24 2.02   8 2.06
 218  0.514  0.626  0.491-  25 1.97   9 2.00
 219  0.983  0.127  0.257-  10 1.95  26 2.05
 220  0.988  0.623  0.265-  28 1.96  12 2.03
 221  0.011  0.624  0.767-  13 1.97  29 1.99
 222  0.486  0.626  0.261-  32 1.95  16 2.02
 223  0.995  0.374  0.513-  19 1.95   5 2.01
 224  0.487  0.371  0.512-  23 1.98   9 1.99
 225  0.482  0.878  0.504-  25 1.97   7 2.03
 226  0.996  0.375  0.736-  13 1.93  27 2.06
 227  0.006  0.876  0.241-  10 1.98  28 1.99
 228  0.998  0.875  0.738-  29 1.94  11 2.06
 229  0.514  0.371  0.237-  16 1.97  30 2.03
 230  0.496  0.373  0.739-  31 2.02  17 2.03
 231  0.507  0.876  0.239-  32 1.95  14 2.07
 232  0.501  0.875  0.748-  15 2.01  33 2.07
 233  0.246  0.125  0.994-  34 1.97  50 1.97
 234  0.242  0.124  0.498-  35 2.03  51 2.05
 235  0.240  0.626  0.507-  53 2.01  37 2.05
 236  0.746  0.126  0.018-  54 1.95  38 1.97
 237  0.762  0.625  0.017-  56 1.96  40 1.97
 238  0.736  0.625  0.513-  57 1.98  41 2.00
 239  0.269  0.126  0.251-  42 1.94  58 2.05
 240  0.250  0.125  0.757-  43 1.97  59 1.98
 241  0.262  0.623  0.239-  60 1.94  44 2.06
 242  0.768  0.126  0.234-  62 1.97  46 1.97
 243  0.761  0.628  0.232-  64 1.91  48 2.03
 244  0.738  0.624  0.737-  65 1.98  49 1.98
 245  0.248  0.376  0.996-  50 1.93  36 2.04
 246  0.242  0.874  0.002-  34 1.94  52 2.03
 247  0.745  0.374  0.976-  54 1.96  40 1.99
 248  0.763  0.372  0.483-  41 1.97  55 2.04
 249  0.742  0.875  0.991-  56 1.96  38 1.97
 250  0.767  0.876  0.491-  57 1.96  39 2.05
 251  0.257  0.376  0.758-  59 1.94  45 2.02
 252  0.243  0.875  0.253-  42 1.97  60 1.99
 253  0.248  0.873  0.746-  43 1.93  61 2.04
 254  0.736  0.370  0.277-  62 1.91  48 2.04
 255  0.757  0.374  0.768-  49 1.94  63 2.06
 256  0.740  0.876  0.260-  46 1.95  64 1.97
 257  0.752  0.875  0.758-  65 1.94  47 2.05
 

IMPORTANT INFORMATION: All symmetrisations will be switched off!
NOSYMM: (Re-)initialisation of all symmetry stuff for point group C_1.

 
 
 KPOINTS: Title                                   

Automatic generation of k-mesh.
Space group operators:
 irot       det(A)        alpha          n_x          n_y          n_z        tau_x        tau_y        tau_z
    1     1.000000     0.000001     1.000000     0.000000     0.000000     0.000000     0.000000     0.000000
 
 Subroutine IBZKPT returns following result:
 ===========================================
 
 Found      4 irreducible k-points:
 
 Following reciprocal coordinates:
            Coordinates               Weight
  0.250000  0.250000  0.250000      2.000000
 -0.250000  0.250000  0.250000      2.000000
  0.250000 -0.250000  0.250000      2.000000
 -0.250000 -0.250000  0.250000      2.000000
 
 Following cartesian coordinates:
            Coordinates               Weight
  0.016206  0.016206  0.016206      2.000000
 -0.016206  0.016206  0.016206      2.000000
  0.016206 -0.016206  0.016206      2.000000
 -0.016206 -0.016206  0.016206      2.000000
 


--------------------------------------------------------------------------------------------------------




 Dimension of arrays:
   k-points           NKPTS =      4   k-points in BZ     NKDIM =      4   number of bands    NBANDS=   1164
   number of dos      NEDOS =   3001   number of ions     NIONS =    257
   non local maximal  LDIM  =      6   non local SUM 2l+1 LMDIM =     18
   total plane-waves  NPLWV = ******
   max r-space proj   IRMAX =   7595   max aug-charges    IRDMAX= 146383
   dimension x,y,z NGX =   120 NGY =  120 NGZ =  120
   dimension x,y,z NGXF=   240 NGYF=  240 NGZF=  240
   support grid    NGXF=   480 NGYF=  480 NGZF=  480
   ions per type =               1  64  64 128
   NGX,Y,Z   is equivalent  to a cutoff of  12.93, 12.93, 12.93 a.u.
   NGXF,Y,Z  is equivalent  to a cutoff of  25.86, 25.86, 25.86 a.u.

 SYSTEM =  LTO                                     
 POSCAR =  config 53                               

 Startparameter for this run:
   NWRITE =      2    write-flag & timer
   PREC   = accura    normal or accurate (medium, high low for compatibility)
   ISTART =      1    job   : 0-new  1-cont  2-samecut
   ICHARG =      0    charge: 1-file 2-atom 10-const
   ISPIN  =      2    spin polarized calculation?
   LNONCOLLINEAR =      F non collinear calculations
   LSORBIT =      F    spin-orbit coupling
   INIWAV =      1    electr: 0-lowe 1-rand  2-diag
   LASPH  =      T    aspherical Exc in radial PAW
   METAGGA=      F    non-selfconsistent MetaGGA calc.

 Electronic Relaxation 1
   ENCUT  =  500.0 eV  36.75 Ry    6.06 a.u.  28.13 28.13 28.13*2*pi/ulx,y,z
   ENINI  =  500.0     initial cutoff
   ENAUG  =  628.9 eV  augmentation charge cutoff
   NELM   =     60;   NELMIN=  2; NELMDL=  0     # of ELM steps 
   EDIFF  = 0.1E-05   stopping-criterion for ELM
   LREAL  =      T    real-space projection
   NLSPLINE    = F    spline interpolate recip. space projectors
   LCOMPAT=      F    compatible to vasp.4.4
   GGA_COMPAT  = T    GGA compatible to vasp.4.4-vasp.4.6
   LMAXPAW     = -100 max onsite density
   LMAXMIX     =    4 max onsite mixed and CHGCAR
   VOSKOWN=      0    Vosko Wilk Nusair interpolation
   ROPT   =   -0.00010  -0.00010  -0.00010  -0.00010
 Ionic relaxation
   EDIFFG = -.5E-01   stopping-criterion for IOM
   NSW    =    100    number of steps for IOM
   NBLOCK =      1;   KBLOCK =    100    inner block; outer block 
   IBRION =      1    ionic relax: 0-MD 1-quasi-New 2-CG
   NFREE  =      0    steps in history (QN), initial steepest desc. (CG)
   ISIF   =      2    stress and relaxation
   IWAVPR =     11    prediction:  0-non 1-charg 2-wave 3-comb
   ISYM   =      0    0-nonsym 1-usesym 2-fastsym
   LCORR  =      T    Harris-Foulkes like correction to forces

   POTIM  = 0.5000    time-step for ionic-motion
   TEIN   =    0.0    initial temperature
   TEBEG  =    0.0;   TEEND  =   0.0 temperature during run
   SMASS  =  -3.00    Nose mass-parameter (am)
   estimated Nose-frequenzy (Omega)   =  0.10E-29 period in steps =****** mass=  -0.544E-26a.u.
   SCALEE = 1.0000    scale energy and forces
   NPACO  =    256;   APACO  = 16.0  distance and # of slots for P.C.
   PSTRESS=    0.0 pullay stress

  Mass of Ions in am
   POMASS =   7.01 47.88 16.00 19.00
  Ionic Valenz
   ZVAL   =   3.00 10.00  6.00  7.00
  Atomic Wigner-Seitz radii
   RWIGS  =  -1.00 -1.00 -1.00 -1.00
  virtual crystal weights 
   VCA    =   1.00  1.00  1.00  1.00
   NELECT =    1923.0000    total number of electrons
   NUPDOWN=       1.0000    fix difference up-down

 DOS related values:
   EMIN   =  10.00;   EMAX   =-10.00  energy-range for DOS
   EFERMI =   0.00
   ISMEAR =     0;   SIGMA  =   0.01  broadening in eV -4-tet -1-fermi 0-gaus

 Electronic relaxation 2 (details)
   IALGO  =     38    algorithm
   LDIAG  =      T    sub-space diagonalisation (order eigenvalues)
   LSUBROT=      F    optimize rotation matrix (better conditioning)
   TURBO    =      0    0=normal 1=particle mesh
   IRESTART =      0    0=no restart 2=restart with 2 vectors
   NREBOOT  =      0    no. of reboots
   NMIN     =      0    reboot dimension
   EREF     =   0.00    reference energy to select bands
   IMIX   =      4    mixing-type and parameters
     AMIX     =   0.40;   BMIX     =  1.00
     AMIX_MAG =   1.60;   BMIX_MAG =  1.00
     AMIN     =   0.10
     WC   =   100.;   INIMIX=   1;  MIXPRE=   1;  MAXMIX= -45

 Intra band minimization:
   WEIMIN = 0.0010     energy-eigenvalue tresh-hold
   EBREAK =  0.21E-09  absolut break condition
   DEPER  =   0.30     relativ break condition  

   TIME   =   0.40     timestep for ELM

  volume/ion in A,a.u.               =      14.28        96.39
  Fermi-wavevector in a.u.,A,eV,Ry     =   1.319690  2.493853 23.695660  1.741582
  Thomas-Fermi vector in A             =   2.449570
 
 Write flags
   LWAVE        =      T    write WAVECAR
   LDOWNSAMPLE  =      F    k-point downsampling of WAVECAR
   LCHARG       =      T    write CHGCAR
   LVTOT        =      F    write LOCPOT, total local potential
   LVHAR        =      F    write LOCPOT, Hartree potential only
   LELF         =      F    write electronic localiz. function (ELF)
   LORBIT       =     11    0 simple, 1 ext, 2 COOP (PROOUT), +10 PAW based schemes


 Dipole corrections
   LMONO  =      F    monopole corrections only (constant potential shift)
   LDIPOL =      F    correct potential (dipole corrections)
   IDIPOL =      0    1-x, 2-y, 3-z, 4-all directions 
   EPSILON=  1.0000000 bulk dielectric constant

 LDA+U is selected, type is set to LDAUTYPE =  2
   angular momentum for each species LDAUL =    -1    2   -1   -1
   U (eV)           for each species LDAUU =   0.0  4.2  0.0  0.0
   J (eV)           for each species LDAUJ =   0.0  0.0  0.0  0.0
 Exchange correlation treatment:
   GGA     =    PS    GGA type
   LEXCH   =    14    internal setting for exchange type
   VOSKOWN=      0    Vosko Wilk Nusair interpolation
   LHFCALC =     F    Hartree Fock is set to
   LHFONE  =     F    Hartree Fock one center treatment
   AEXX    =    0.0000 exact exchange contribution

 Linear response parameters
   LEPSILON=     F    determine dielectric tensor
   LRPA    =     F    only Hartree local field effects (RPA)
   LNABLA  =     F    use nabla operator in PAW spheres
   LVEL    =     F    velocity operator in full k-point grid
   LINTERFAST=   F  fast interpolation
   KINTER  =     0    interpolate to denser k-point grid
   CSHIFT  =0.1000    complex shift for real part using Kramers Kronig
   OMEGAMAX=  -1.0    maximum frequency
   DEG_THRESHOLD= 0.2000000E-02 threshold for treating states as degnerate
   RTIME   =   -0.100 relaxation time in fs
  (WPLASMAI=    0.000 imaginary part of plasma frequency in eV, 0.658/RTIME)
   DFIELD  = 0.0000000 0.0000000 0.0000000 field for delta impulse in time
 
 Orbital magnetization related:
   ORBITALMAG=     F  switch on orbital magnetization
   LCHIMAG   =     F  perturbation theory with respect to B field
   DQ        =  0.001000  dq finite difference perturbation B field
   LLRAUG    =     F  two centre corrections for induced B field



--------------------------------------------------------------------------------------------------------


 quasi-Newton-method for relaxation of ions
 charge density and potential will be updated during run
 spin polarized calculation
 Variant of blocked Davidson
 Davidson routine will perform the subspace rotation
 perform sub-space diagonalisation
    after iterative eigenvector-optimisation
 modified Broyden-mixing scheme, WC =      100.0
 initial mixing is a Kerker type mixing with AMIX =  0.4000 and BMIX =      1.0000
 Hartree-type preconditioning will be used
 using additional bands          202
 real space projection scheme for non local part
 use partial core corrections
 calculate Harris-corrections to forces 
   (improved forces if not selfconsistent)
 use gradient corrections 
 use of overlap-Matrix (Vanderbilt PP)
 Gauss-broadening in eV      SIGMA  =   0.01


--------------------------------------------------------------------------------------------------------


  energy-cutoff  :      500.00
  volume of cell :     3671.03
      direct lattice vectors                 reciprocal lattice vectors
    15.426331000  0.000000000  0.000000000     0.064824228  0.000000000  0.000000000
     0.000000000 15.426331000  0.000000000     0.000000000  0.064824228  0.000000000
     0.000000000  0.000000000 15.426331000     0.000000000  0.000000000  0.064824228

  length of vectors
    15.426331000 15.426331000 15.426331000     0.064824228  0.064824228  0.064824228


 
 old parameters found on file WAVECAR:
  energy-cutoff  :      500.00
  volume of cell :     3671.03
      direct lattice vectors                 reciprocal lattice vectors
    15.426331000  0.000000000  0.000000000     0.064824228  0.000000000  0.000000000
     0.000000000 15.426331000  0.000000000     0.000000000  0.064824228  0.000000000
     0.000000000  0.000000000 15.426331000     0.000000000  0.000000000  0.064824228

  length of vectors

 
 k-points in units of 2pi/SCALE and weight: Title                                   
   0.01620606  0.01620606  0.01620606       0.250
  -0.01620606  0.01620606  0.01620606       0.250
   0.01620606 -0.01620606  0.01620606       0.250
  -0.01620606 -0.01620606  0.01620606       0.250
 
 k-points in reciprocal lattice and weights: Title                                   
   0.25000000  0.25000000  0.25000000       0.250
  -0.25000000  0.25000000  0.25000000       0.250
   0.25000000 -0.25000000  0.25000000       0.250
  -0.25000000 -0.25000000  0.25000000       0.250
 
 position of ions in fractional coordinates (direct lattice) 
   0.87394287  0.43671587  0.11779832
   0.99485214  0.99504323  0.99526573
   0.99881004  0.99039002  0.49454038
   0.01034956  0.49608541  0.99470388
   0.99470933  0.50439944  0.50785462
   0.49401105  0.99372415  0.99982266
   0.50204566  0.00857883  0.49848077
   0.50274254  0.49478437  0.99623578
   0.49196333  0.49905807  0.49552633
   0.00660334  0.00286835  0.25623062
   0.00184240  0.00681230  0.75802815
   0.99523701  0.49194594  0.25205520
   0.99362432  0.50038848  0.74032879
   0.50507455  0.00944484  0.25037029
   0.49316425  0.00515498  0.75263555
   0.49118449  0.49531048  0.25721049
   0.50090062  0.50347199  0.75872071
   0.99472453  0.25867023  0.00291056
   0.99918141  0.24947122  0.49134424
   0.99767985  0.75799496  0.00738312
   0.99712769  0.75565975  0.50709309
   0.49424947  0.25767113  0.00191091
   0.50991974  0.24574425  0.49784935
   0.50684528  0.75595424  0.99968170
   0.50762174  0.75310799  0.50835632
   0.00190860  0.25911561  0.25477548
   0.00699237  0.24274173  0.74928485
   0.00612015  0.74650495  0.24351067
   0.99289378  0.74959424  0.74310519
   0.50786540  0.24044001  0.25173081
   0.50755710  0.24312498  0.75092829
   0.50614389  0.75037503  0.25181373
   0.50217254  0.74139466  0.74357451
   0.25614649  0.99840084  0.00567964
   0.25163070  0.99336961  0.50618761
   0.24657095  0.50810382  0.99694937
   0.25503970  0.49426887  0.50648250
   0.75621830  0.00128807  0.99391971
   0.74969373  0.00811380  0.49496601
   0.73846270  0.49978713  0.00504193
   0.75576720  0.49702559  0.50741029
   0.24463115  0.00280653  0.24353797
   0.25828934  0.99791451  0.74431840
   0.25415278  0.49070389  0.25138342
   0.24694117  0.50564398  0.74034355
   0.74386469  0.00228057  0.25564531
   0.74797571  0.00787987  0.75550277
   0.75055591  0.49733345  0.24581065
   0.75771202  0.49716045  0.74318634
   0.25652719  0.25156119  0.00650321
   0.25458851  0.25661349  0.50543218
   0.25175173  0.74277416  0.99355320
   0.25277542  0.75497037  0.49262299
   0.75547189  0.25192286  0.00848345
   0.74303718  0.24223228  0.49848532
   0.74131394  0.74770941  0.99408980
   0.74180128  0.75169563  0.49335008
   0.25076455  0.25754478  0.24398567
   0.24437709  0.25179012  0.74407385
   0.24357506  0.74668834  0.25563633
   0.24794144  0.74140563  0.75615528
   0.74175898  0.25088654  0.24298277
   0.74483731  0.24183820  0.75099938
   0.74549245  0.74819608  0.25655061
   0.75738462  0.74919740  0.75702361
   0.01344193  0.51428130  0.62460759
   0.99693676  0.99515088  0.37635395
   0.00205698  0.99197036  0.87348168
   0.49549564  0.48862509  0.37572704
   0.48974802  0.49224403  0.87462488
   0.99841843  0.73690124  0.12578995
   0.00327679  0.73597223  0.62448338
   0.50381823  0.74776820  0.62435864
   0.99259031  0.25898964  0.37699900
   0.25654596  0.00225975  0.12506044
   0.25854869  0.00305625  0.62512147
   0.23539775  0.49300217  0.62543723
   0.75178177  0.47558142  0.12085292
   0.74369990  0.48389324  0.62534831
   0.74856765  0.01138973  0.37624680
   0.74380685  0.01146472  0.87352880
   0.24226897  0.25036739  0.12574735
   0.25069092  0.25080403  0.62518206
   0.74081543  0.27012666  0.12668927
   0.25531633  0.74459166  0.37464525
   0.25240573  0.75072127  0.87517479
   0.75230758  0.73914965  0.37440666
   0.74880510  0.73873167  0.87557967
   0.12654854  0.50399972  0.98690350
   0.62306885  0.51033540  0.99616961
   0.12515665  0.01149836  0.25047578
   0.62431928  0.01241725  0.24777610
   0.62535188  0.26262530  0.49065454
   0.62390907  0.73865981  0.00297104
   0.62475193  0.76756325  0.49447314
   0.12509840  0.25299122  0.75259618
   0.12476011  0.74116154  0.25284201
   0.62538915  0.23311184  0.26158475
   0.62629441  0.25414754  0.75161609
   0.62195099  0.74273983  0.25161771
   0.37561495  0.99763768  0.98982158
   0.37573639  0.51005345  0.50810767
   0.87238776  0.00082336  0.99824392
   0.87567416  0.50784144  0.50552112
   0.37643078  0.99799958  0.76051858
   0.37242502  0.48552016  0.24533919
   0.88154663  0.48024963  0.23803269
   0.87579113  0.50904550  0.74178408
   0.37529313  0.24907306  0.00719874
   0.87330932  0.25301390  0.00907516
   0.87490057  0.74235319  0.74829300
   0.51683111  0.12252289  0.48944416
   0.99788437  0.12620865  0.75721549
   0.48531419  0.12489473  0.26737933
   0.50327846  0.12381862  0.75381319
   0.50321456  0.62482809  0.75428112
   0.99927250  0.37656694  0.01786910
   0.00246650  0.87485660  0.01070551
   0.98811902  0.87409401  0.50921955
   0.50442211  0.37362494  0.01170697
   0.50619708  0.87504066  0.00896311
   0.02012250  0.37200605  0.23762246
   0.25812581  0.62488628  0.00371624
   0.73525482  0.12528098  0.51382343
   0.24585710  0.62437540  0.74800144
   0.75021211  0.12504934  0.73415825
   0.25924908  0.37306586  0.49282846
   0.26034238  0.87552930  0.49868404
   0.23361104  0.37354399  0.25795454
   0.99737262  0.01186050  0.12684394
   0.00208480  0.00806229  0.62385793
   0.00437239  0.51405416  0.12312234
   0.49015428  0.01359627  0.12607283
   0.49381343  0.00252471  0.62258579
   0.50057583  0.51133677  0.12695099
   0.51242689  0.50387809  0.62426393
   0.99670636  0.48430489  0.37706540
   0.98998235  0.48436716  0.87215374
   0.50659818  0.98355451  0.37627037
   0.51850630  0.99326527  0.87510790
   0.00878925  0.23487600  0.12742056
   0.00306444  0.24438291  0.62215173
   0.51032507  0.23231564  0.12668079
   0.50238004  0.24094787  0.62250232
   0.49544292  0.73931953  0.12677359
   0.99269712  0.26523430  0.87511343
   0.99341573  0.75858178  0.37548534
   0.00008856  0.75894798  0.87434862
   0.48996377  0.26706070  0.37526823
   0.49670116  0.25878323  0.87480482
   0.49154009  0.76044654  0.37546204
   0.49763498  0.75707751  0.87418362
   0.23891947  0.49244720  0.12394054
   0.75017600  0.98899235  0.12664100
   0.74970716  0.98556484  0.62277423
   0.25088345  0.00248645  0.37540570
   0.24011820  0.99462846  0.87427460
   0.25224180  0.51241878  0.37512516
   0.26585249  0.50041006  0.87329077
   0.75242854  0.51417684  0.37596112
   0.75720793  0.51448992  0.87460091
   0.24966764  0.75544404  0.12476505
   0.24797538  0.75214381  0.62491437
   0.74866094  0.26859855  0.62327921
   0.75060684  0.76295452  0.12537839
   0.74695945  0.75881123  0.62444686
   0.25755141  0.24223109  0.37435316
   0.25471603  0.25034657  0.87546284
   0.76414148  0.23134927  0.37464334
   0.75525016  0.23241053  0.87665227
   0.12514187  0.00390494  0.00474324
   0.12518436  0.99376212  0.50105067
   0.12346283  0.49330670  0.48814359
   0.62474835  0.00449092  0.01048708
   0.62403983  0.97855116  0.50429189
   0.62636385  0.48710323  0.49410986
   0.12703629  0.99948174  0.74419167
   0.12538565  0.51640634  0.25348340
   0.12369831  0.49174196  0.76680738
   0.62394858  0.99399477  0.73780033
   0.61881425  0.51189347  0.25001918
   0.62692917  0.49121149  0.76050995
   0.12376360  0.25140106  0.99221321
   0.12453518  0.25458092  0.49514749
   0.12442532  0.74185250  0.99939150
   0.12426403  0.75825582  0.49503767
   0.62590706  0.24665526  0.99230471
   0.12547471  0.22780303  0.26048692
   0.12333134  0.75534056  0.75237463
   0.62641162  0.75577376  0.75179545
   0.37831463  0.01538898  0.49132461
   0.37294003  0.49198675  0.01186945
   0.87449508  0.01570029  0.50669407
   0.87585960  0.49279024  0.00749641
   0.37712763  0.98693279  0.25755922
   0.37505193  0.50070586  0.73511111
   0.87304295  0.99060162  0.24872517
   0.87434318  0.99528243  0.74536220
   0.38005471  0.23447652  0.50073265
   0.37572784  0.76050753  0.00280646
   0.37762776  0.73650727  0.50340526
   0.87464257  0.24166629  0.50828563
   0.87183252  0.75524292  0.99921097
   0.87239794  0.73554673  0.50473742
   0.37819658  0.26538504  0.24230076
   0.37692559  0.24793610  0.74903166
   0.37588892  0.75954231  0.24614053
   0.37519632  0.75278749  0.74733343
   0.87521376  0.26670246  0.24104791
   0.87472480  0.25336694  0.74517724
   0.87360760  0.76060037  0.24886894
   0.00067232  0.12832582  0.99104136
   0.00689672  0.12564829  0.49633669
   0.99198481  0.62350793  0.98606460
   0.00848831  0.62632334  0.48205661
   0.50229928  0.12429326  0.99063426
   0.48524664  0.62712603  0.99427031
   0.51441608  0.62647781  0.49134189
   0.98340261  0.12731938  0.25749503
   0.98770690  0.62256700  0.26526481
   0.01118366  0.62418432  0.76657006
   0.48623964  0.62608448  0.26136002
   0.99507577  0.37422486  0.51251768
   0.48739005  0.37113662  0.51201735
   0.48221437  0.87838401  0.50442969
   0.99571840  0.37514381  0.73647843
   0.00644390  0.87560805  0.24113112
   0.99848811  0.87508028  0.73753948
   0.51386778  0.37089339  0.23738047
   0.49566846  0.37312496  0.73925155
   0.50717775  0.87603542  0.23942190
   0.50113808  0.87528010  0.74764319
   0.24630114  0.12486616  0.99363578
   0.24225533  0.12427548  0.49796443
   0.23961214  0.62628709  0.50651504
   0.74646962  0.12632284  0.01835149
   0.76179850  0.62460897  0.01707675
   0.73618586  0.62480664  0.51255909
   0.26851175  0.12607982  0.25145626
   0.25030403  0.12454327  0.75703817
   0.26154613  0.62334797  0.23903192
   0.76751193  0.12624512  0.23429592
   0.76095472  0.62795360  0.23247378
   0.73800044  0.62405266  0.73671265
   0.24786458  0.37612248  0.99569096
   0.24175194  0.87380591  0.00217713
   0.74530563  0.37428165  0.97600434
   0.76271804  0.37198033  0.48256640
   0.74205354  0.87468344  0.99111653
   0.76727452  0.87626296  0.49078023
   0.25651310  0.37606965  0.75771839
   0.24296119  0.87544803  0.25254172
   0.24820489  0.87337933  0.74646272
   0.73591134  0.36953668  0.27679769
   0.75749834  0.37372273  0.76777155
   0.74032814  0.87580334  0.26024331
   0.75232356  0.87493775  0.75796859
 
 position of ions in cartesian coordinates  (Angst):
  13.48173203  6.73692351  1.81719580
  15.34691833 15.34986625 15.35329865
  15.40797433 15.27808428  7.62894355
   0.15965581  7.65277779 15.34463132
  15.34471539  7.78103270  7.83433340
   7.62077797 15.32951765 15.42359528
   7.74472256  0.13233992  7.68972943
   7.75547283  7.63270739 15.36826297
   7.58918920  7.69863498  7.64415311
   0.10186530  0.04424810  3.95269829
   0.02842140  0.10508883 11.69359319
  15.35285550  7.58892088  3.88828693
  15.32797765  7.71915837 11.42055702
   7.79144722  0.14569916  3.86229503
   7.60771502  0.07952247 11.61040518
   7.57717448  7.64082344  3.96781412
   7.72705872  7.76672556 11.70427682
  15.34494990  3.99033255  0.04489931
  15.41370321  3.84842558  7.57963881
  15.39053953 11.69308107  0.11389450
  15.38202180 11.65705738  7.82258591
   7.62445599  3.97492014  0.02947829
   7.86619071  3.79093217  7.67998883
   7.81876306 11.66160033 15.42142075
   7.83074094 11.61769308  7.84207290
   0.02944262  3.99720315  3.93025091
   0.10786657  3.74461427 11.55871606
   0.09441139 11.51583239  3.75647617
  15.31670816 11.56348885 11.46338658
   7.83449981  3.70910724  3.88328280
   7.82974376  3.75052641 11.58406843
   7.80794318 11.57553354  3.88456189
   7.74667979 11.43699935 11.47062652
   3.95140058 15.40166182  0.08761604
   3.88173852 15.32404840  7.80861765
   3.80368505  7.83817773 15.37927090
   3.93432691  7.62475517  7.81316665
  11.66567386  0.01987016 15.33253445
  11.56502369  0.12516612  7.63550952
  11.39177004  7.70988171  0.07777845
  11.65871495  7.66728133  7.82747904
   3.77376114  0.04329445  3.75689739
   3.98445690 15.39415951 11.48210208
   3.92064491  7.56976060  3.87792385
   3.80939625  7.80023140 11.42078466
  11.47510295  0.03518086  3.94366920
  11.53852095  0.12155741 11.65463586
  11.57832397  7.67203041  3.79195650
  11.68871645  7.66936172 11.46463843
   3.95727336  3.88066624  0.10032061
   3.92736657  3.95860456  7.79696410
   3.88360558 11.45828003 15.32688057
   3.89939732 11.64642285  7.59936535
  11.65415948  3.88624536  0.13086846
  11.46233750  3.73675533  7.68979948
  11.43575426 11.53441281 15.33515825
  11.44327208 11.59590562  7.61058167
   3.86837688  3.97297108  3.76380374
   3.76984190  3.88419778 11.47832943
   3.75746956 11.51866145  3.94353068
   3.82482668 11.43716867 11.66470165
  11.44261962  3.87025880  3.74833256
  11.49010694  3.73067609 11.58516501
  11.50021335 11.54192045  3.95763456
  11.68366586 11.55736707 11.67809671
   0.20735964  7.93347354  9.63540348
  15.37907651 15.35152683  5.80576059
   0.03173165 15.30246304 13.47461745
   7.64367974  7.53769235  5.79608976
   7.55501504  7.59351936 13.49225285
  15.40193323 11.36768243  1.94047735
   0.05054877 11.35335121  9.63348734
   7.77206685 11.53531984  9.63156307
  15.31202670  3.99525986  5.81571140
   3.95756287  0.03485960  1.92922377
   3.98845774  0.04714675  9.64333078
   3.63132358  7.60521473  9.64820166
  11.59723442  7.33647644  1.86431721
  11.47256086  7.46469731  9.64682995
  11.54765238  0.17570171  5.80410773
  11.47421061  0.17685858 13.47534433
   3.73732134  3.86225020  1.93982022
   3.86724117  3.86898594  9.64426540
  11.42806399  4.16706331  1.95435054
   3.93859424 11.48631746  5.77940166
   3.89369432 11.58087479 13.50073604
  11.60534567 11.40236714  5.77572102
  11.55131526 11.39591928 13.50698179
   1.95217968  7.77486658 15.22430008
   9.61166636  7.87260280 15.36724215
   1.93070789  0.17737748  3.86392227
   9.63095588  0.19155263  3.82227606
   9.64688505  4.05134481  7.56899937
   9.62462788 11.39481076  0.04583230
   9.63763011 11.84068476  7.62790630
   1.92980933  3.90272637 11.60979773
   1.92459080 11.43340325  3.90042450
   9.64745998  3.59606046  4.03529287
   9.66142493  3.92056406 11.59467859
   9.59442188 11.45775052  3.88153801
   5.79436050 15.38988914 15.26931536
   5.79623391  7.86825337  7.83823712
  13.45774229  0.01270144 15.39924105
  13.50843947  7.83413009  7.79833618
   5.80694577 15.39547192 11.73201141
   5.74515166  7.48979476  3.78468348
  13.59903007  7.40848972  3.67197103
  13.51024384  7.85270432 11.44300669
   5.78939607  3.84228350  0.11105018
  13.47195866  3.90307625  0.13999646
  13.49650578 11.45178606 11.54341556
   7.97280778  1.89007863  7.55032761
  15.39369452  1.94693636 11.68105685
   7.48661733  1.92666740  4.12468209
   7.76374014  1.91006703 11.62857186
   7.76275432  9.63880486 11.63579016
  15.41510835  5.80904633  0.27565459
   0.03804899 13.49582751  0.16514673
  15.24305109 13.48406347  7.85538927
   7.78138241  5.76366203  0.18059559
   7.80876370 13.49866691  0.13826782
   0.31041640  5.73868844  3.66564265
   3.98193417  9.63970262  0.05732787
  11.34228426  1.93262585  7.92641036
   3.79267304  9.63182163 11.53891783
  11.57302036  1.92905254 11.32536815
   3.99926206  5.75503747  7.60253501
   4.01612779 13.50620478  7.69286511
   3.60376121  5.76241316  3.97929217
  15.38580019  0.18296397  1.95673668
   0.03216089  0.12437163  9.62383897
   0.06745001  7.92996964  1.89932601
   7.56128209  0.20974055  1.94484118
   7.61772940  0.03894700  9.60421451
   7.72204844  7.88805023  1.95838799
   7.90486683  7.77299022  9.63010207
  15.37552225  7.47104749  5.81673562
  15.27179536  7.47200814 13.45413233
   7.81495128 15.17263750  5.80447129
   7.99864984 15.32243887 13.49970410
   0.13558583  3.62327498  1.96563173
   0.04727312  3.76993159  9.59751854
   7.87244338  3.58377798  1.95421980
   7.74988075  3.71694157  9.60292688
   7.64286648 11.40498786  1.95565139
  15.31367440  4.09159208 13.49978948
  15.32475995 11.70213368  5.79236109
   0.00136623 11.70778275 13.48799118
   7.55834332  4.11976679  5.78901185
   7.66227655  3.99207570 13.49502874
   7.58266012 11.73090009  5.79200176
   7.67668199 11.67892824 13.48544590
   3.68565085  7.59665343  1.91194773
  11.57246328 15.25652334  1.95360600
  11.56523075 15.20364949  9.60712147
   3.87021113  0.03835687  5.79113262
   3.70414281 15.34346779 13.48684939
   3.89116547  7.90474176  5.78680493
   4.10112847  7.71949122 13.47167244
  11.60721175  7.93186208  5.79970065
  11.68094016  7.93669187 13.49188310
   3.85145566 11.65372975  1.92466689
   3.82535023 11.60281938  9.64013595
  11.54909148  4.14349015  9.61491134
  11.57910961 11.76958901  1.93412849
  11.52284367 11.70567323  9.63292402
   3.97307332  3.73673705  5.77489579
   3.92933385  3.86192911 13.50517951
  11.78789937  3.56887044  5.77937218
  11.65073901  3.58524174 13.52352815
   1.93047991  0.06023887  0.07317082
   1.93113534 15.33010341  7.72937344
   1.90457845  7.60991245  7.53026460
   9.63757480  0.06927837  0.16177715
   9.62664491 15.09545414  7.77937366
   9.66249605  7.51421566  7.62230223
   1.95970392 15.41833613 11.48014700
   1.93424055  7.96625509  3.91031876
   1.90821106  7.58577427 11.82902452
   9.62523738 15.33369241 11.38155209
   9.54603342  7.89663805  3.85687857
   9.67121692  7.57759109 11.73187814
   1.90921829  3.87819600 15.30620934
   1.92112095  3.92724960  7.63830907
   1.91942614 11.44406228 15.41694404
   1.91693800 11.69710529  7.63661492
   9.65544945  3.80498572 15.30762091
   1.93561441  3.51416488  4.01835748
   1.90255003 11.65213350 11.60638001
   9.66323302 11.65881624 11.59744553
   5.83600677  0.23739543  7.57933607
   5.75309630  7.58955042  0.18310205
  13.49025049  0.24219782  7.81643047
  13.51130014  7.60194536  0.11564211
   5.81769571 15.22475182  3.97319377
   5.78567523  7.72405439 11.34006732
  13.46784950 15.28134842  3.83691680
  13.48790737 15.35355621 11.49820403
   5.86284980  3.61711238  7.72446767
   5.79610201 11.73184091  0.04329337
   5.82541075 11.36160490  7.76569621
  13.49252577  3.72802419  7.84098235
  13.44917703 11.65062730 15.41415915
  13.45789944 11.34678733  7.78624645
   5.83418565  4.09391752  3.73781176
   5.81457887  3.82474428 11.55481032
   5.79858695 11.71695116  3.79704529
   5.78790262 11.61274896 11.52861280
  13.50133722  4.11424038  3.71848478
  13.49379435  3.90852231 11.49535070
  13.47656003 11.73327302  3.83913463
   0.01037145  1.97959660 15.28813209
   0.10639115  1.93829217  7.65665413
  15.30268609  9.61843965 15.21135888
   0.13094344  9.66187113  7.43636477
   7.74863488  1.91738891 15.28185194
   7.48557534  9.67425376 15.33794297
   7.93555278  9.66425406  7.57960259
  15.17029424  1.96407086  3.97220351
  15.23669361  9.60392454  4.09206278
   0.17252288  9.62887388 11.82536348
   7.50089360  9.65818642  4.03182615
  15.35036826  5.77291656  7.90626739
   7.51864028  5.72527634  7.89854916
   7.43879846 13.55024255  7.78149944
  15.36028159  5.78709252 11.36116009
   0.09940577 13.50741953  3.71976854
  15.40300814 13.49927812 11.37752807
   7.92709443  5.72152417  3.66190966
   7.64634581  5.75594921 11.40393913
   7.82389179 13.51401237  3.69340153
   7.73072189 13.50236057 11.53339135
   3.79952287  1.92622673 15.32815445
   3.73711084  1.91711462  7.68176415
   3.69633621  9.66131198  7.81366869
  11.51528747  1.94869789  0.28309611
  11.75175583  9.63542472  0.26343156
  11.35664682  9.63847401  7.90690617
   4.14215118  1.94494904  3.87904745
   3.86127286  1.92124568 11.67832146
   4.03469721  9.61597218  3.68738555
  11.83989311  1.94749900  3.61432637
  11.73873936  9.68702016  3.58621751
  11.38463906  9.62684294 11.36477320
   3.82364101  5.80218989 15.35985828
   3.72934548 13.47961920  0.03358519
  11.49733141  5.77379260 15.05616607
  11.76594090  5.73829170  7.44422905
  11.44716349 13.49315623 15.28929170
  11.83623072 13.51752254  7.57093824
   3.95705597  5.80137492 11.68881463
   3.74799970 13.50495113  3.89579216
   3.82889081 13.47303870 11.51518102
  11.35241193  5.70059518  4.26997284
  11.68542014  5.76517055 11.84389801
  11.42054688 13.51043218  4.01459949
  11.60559222 13.49707927 11.69267428
 


--------------------------------------------------------------------------------------------------------


 k-point  1 :   0.2500 0.2500 0.2500  plane waves:   93161
 k-point  2 :  -0.2500 0.2500 0.2500  plane waves:   93161
 k-point  3 :   0.2500-0.2500 0.2500  plane waves:   93161
 k-point  4 :  -0.2500-0.2500 0.2500  plane waves:   93161

 maximum and minimum number of plane-waves per node :     11686    11606

 maximum number of plane-waves:     93161
 maximum index in each direction: 
   IXMAX=   28   IYMAX=   28   IZMAX=   27
   IXMIN=  -28   IYMIN=  -28   IZMIN=  -28


 real space projection operators:
  total allocation   :     105596.49 KBytes
  max/ min on nodes  :      13236.46      13159.49


 parallel 3D FFT for wavefunctions:
    minimum data exchange during FFTs selected (reduces bandwidth)
 parallel 3D FFT for charge:
    minimum data exchange during FFTs selected (reduces bandwidth)


 total amount of memory used by VASP MPI-rank0   291503. kBytes
=======================================================================

   base      :      30000. kBytes
   nonlr-proj:      49468. kBytes
   fftplans  :      27976. kBytes
   grid      :      34041. kBytes
   one-center:       1026. kBytes
   wavefun   :     148992. kBytes
 
     INWAV:  cpu time   51.3352: real time   52.4186
 Broyden mixing: mesh for mixing (old mesh)
   NGX = 57   NGY = 57   NGZ = 57
  (NGX  =240   NGY  =240   NGZ  =240)
  gives a total of 185193 points

 charge density for first step will be calculated from the start-wavefunctions


--------------------------------------------------------------------------------------------------------


 Maximum index for non-local projection operator          967
 Maximum index for augmentation-charges         3289 (set IRDMAX)


--------------------------------------------------------------------------------------------------------


 initial charge from wavefunction
 First call to EWALD:  gamma=   0.115
 Maximum number of real-space cells 3x 3x 3
 Maximum number of reciprocal cells 3x 3x 3

    FEWALD:  cpu time    0.0274: real time    0.0298


--------------------------------------- Iteration      1(   1)  ---------------------------------------


    POTLOK:  cpu time    0.2720: real time    0.2861
    SETDIJ:  cpu time    1.3740: real time    1.4083
     EDDAV:  cpu time  134.8778: real time  135.7255
       DOS:  cpu time    0.0027: real time    0.0027
    CHARGE:  cpu time    5.3052: real time    5.3094
    MIXING:  cpu time    0.0105: real time    0.0107
    --------------------------------------------
      LOOP:  cpu time  141.8423: real time  142.7428

 eigenvalue-minimisations  : 23556
 total energy-change (2. order) :-0.1854046E+04  (-0.3630902E+03)
 number of electron    1923.0000029 magnetization       1.0000000
 augmentation part      503.8301481 magnetization       0.9611697

 Broyden mixing:
  rms(total) = 0.81202E+01    rms(broyden)= 0.81171E+01
  rms(prec ) = 0.12404E+02
  weight for this iteration     100.00

 Free energy of the ion-electron system (eV)
  ---------------------------------------------------
  alpha Z        PSCENC =      6118.73324990
  Ewald energy   TEWEN  =   -103853.58790951
  -Hartree energ DENC   =    -64781.04665510
  -exchange      EXHF   =         0.00000000
  -V(xc)+E(xc)   XCENC  =      8955.15202358
  PAW double counting   =    196890.22644388  -197883.24115241
  entropy T*S    EENTRO =        -0.00226626
  eigenvalues    EBANDS =    -25877.53179471
  atomic energy  EATOM  =    178577.25249613
  Solvation  Ediel_sol  =         0.00000000
  ---------------------------------------------------
  free energy    TOTEN  =     -1854.04556450 eV

  energy without entropy =    -1854.04329824  energy(sigma->0) =    -1854.04443137


--------------------------------------------------------------------------------------------------------




--------------------------------------- Iteration      1(   2)  ---------------------------------------


    POTLOK:  cpu time    0.2674: real time    0.2695
    SETDIJ:  cpu time    1.4016: real time    1.4026
     EDDAV:  cpu time  149.0637: real time  150.3433
       DOS:  cpu time    0.0030: real time    0.0030
    CHARGE:  cpu time    5.2311: real time    5.2345
    MIXING:  cpu time    0.0077: real time    0.0077
    --------------------------------------------
      LOOP:  cpu time  155.9743: real time  157.2605

 eigenvalue-minimisations  : 26892
 total energy-change (2. order) :-0.3240188E+01  (-0.3089703E+03)
 number of electron    1923.0000029 magnetization       1.0000000
 augmentation part      504.3385131 magnetization       0.5023681

 Broyden mixing:
  rms(total) = 0.89159E+01    rms(broyden)= 0.89118E+01
  rms(prec ) = 0.12886E+02
  weight for this iteration     100.00

 eigenvalues of (default mixing * dielectric matrix)
  average eigenvalue GAMMA=   0.4535
  0.4535

 Free energy of the ion-electron system (eV)
  ---------------------------------------------------
  alpha Z        PSCENC =      6118.73324990
  Ewald energy   TEWEN  =   -103853.58790951
  -Hartree energ DENC   =    -64848.75480062
  -exchange      EXHF   =         0.00000000
  -V(xc)+E(xc)   XCENC  =      8955.22036783
  PAW double counting   =    198744.95680700  -199711.82413103
  entropy T*S    EENTRO =        -0.00491397
  eigenvalues    EBANDS =    -25839.27691806
  atomic energy  EATOM  =    178577.25249613
  Solvation  Ediel_sol  =         0.00000000
  ---------------------------------------------------
  free energy    TOTEN  =     -1857.28575231 eV

  energy without entropy =    -1857.28083834  energy(sigma->0) =    -1857.28329533


--------------------------------------------------------------------------------------------------------




--------------------------------------- Iteration      1(   3)  ---------------------------------------


    POTLOK:  cpu time    0.2624: real time    0.2632
    SETDIJ:  cpu time    1.3940: real time    1.3945
     EDDAV:  cpu time  151.5957: real time  152.5537
       DOS:  cpu time    0.0023: real time    0.0023
    CHARGE:  cpu time    5.2863: real time    5.2907
    MIXING:  cpu time    0.0132: real time    0.0132
    --------------------------------------------
      LOOP:  cpu time  158.5538: real time  159.5177

 eigenvalue-minimisations  : 27312
 total energy-change (2. order) : 0.1246364E+02  (-0.1126850E+03)
 number of electron    1923.0000029 magnetization       1.0000000
 augmentation part      492.8425239 magnetization       0.6336662

 Broyden mixing:
  rms(total) = 0.54229E+01    rms(broyden)= 0.54209E+01
  rms(prec ) = 0.62637E+01
  weight for this iteration     100.00

 eigenvalues of (default mixing * dielectric matrix)
  average eigenvalue GAMMA=   0.4680
  0.4680  0.4680

 Free energy of the ion-electron system (eV)
  ---------------------------------------------------
  alpha Z        PSCENC =      6118.73324990
  Ewald energy   TEWEN  =   -103853.58790951
  -Hartree energ DENC   =    -64920.23099445
  -exchange      EXHF   =         0.00000000
  -V(xc)+E(xc)   XCENC  =      8957.13430520
  PAW double counting   =    198730.83109539  -199694.08070943
  entropy T*S    EENTRO =        -0.00175547
  eigenvalues    EBANDS =    -25760.87189063
  atomic energy  EATOM  =    178577.25249613
  Solvation  Ediel_sol  =         0.00000000
  ---------------------------------------------------
  free energy    TOTEN  =     -1844.82211285 eV

  energy without entropy =    -1844.82035738  energy(sigma->0) =    -1844.82123512


--------------------------------------------------------------------------------------------------------




--------------------------------------- Iteration      1(   4)  ---------------------------------------


    POTLOK:  cpu time    0.2633: real time    0.2655
    SETDIJ:  cpu time    1.3999: real time    1.4011
     EDDAV:  cpu time  144.0679: real time  145.1056
       DOS:  cpu time    0.0017: real time    0.0017
    CHARGE:  cpu time    5.2878: real time    5.2917
    MIXING:  cpu time    0.0146: real time    0.0146
    --------------------------------------------
      LOOP:  cpu time  151.0352: real time  152.0802

 eigenvalue-minimisations  : 25536
 total energy-change (2. order) : 0.4182242E+02  (-0.2694746E+02)
 number of electron    1923.0000029 magnetization       1.0000000
 augmentation part      493.8180377 magnetization       0.6217383

 Broyden mixing:
  rms(total) = 0.38844E+01    rms(broyden)= 0.38837E+01
  rms(prec ) = 0.45230E+01
  weight for this iteration     100.00

 eigenvalues of (default mixing * dielectric matrix)
  average eigenvalue GAMMA=   0.5463
  0.5759  0.5759  0.4871

 Free energy of the ion-electron system (eV)
  ---------------------------------------------------
  alpha Z        PSCENC =      6118.73324990
  Ewald energy   TEWEN  =   -103853.58790951
  -Hartree energ DENC   =    -64891.83300659
  -exchange      EXHF   =         0.00000000
  -V(xc)+E(xc)   XCENC  =      8962.83508957
  PAW double counting   =    198774.39995540  -199753.63730786
  entropy T*S    EENTRO =        -0.00000000
  eigenvalues    EBANDS =    -25737.16225495
  atomic energy  EATOM  =    178577.25249613
  Solvation  Ediel_sol  =         0.00000000
  ---------------------------------------------------
  free energy    TOTEN  =     -1802.99968791 eV

  energy without entropy =    -1802.99968791  energy(sigma->0) =    -1802.99968791


--------------------------------------------------------------------------------------------------------




--------------------------------------- Iteration      1(   5)  ---------------------------------------


    POTLOK:  cpu time    0.2678: real time    0.2702
    SETDIJ:  cpu time    1.4205: real time    1.4215
     EDDAV:  cpu time  150.9675: real time  151.9425
       DOS:  cpu time    0.0017: real time    0.0017
    CHARGE:  cpu time    5.1766: real time    5.2652
    MIXING:  cpu time    0.0077: real time    0.0081
    --------------------------------------------
      LOOP:  cpu time  157.8419: real time  158.9093

 eigenvalue-minimisations  : 27108
 total energy-change (2. order) : 0.2834411E+02  (-0.7125815E+01)
 number of electron    1923.0000029 magnetization       1.0000000
 augmentation part      494.4220305 magnetization       0.5533740

 Broyden mixing:
  rms(total) = 0.23835E+01    rms(broyden)= 0.23831E+01
  rms(prec ) = 0.27979E+01
  weight for this iteration     100.00

 eigenvalues of (default mixing * dielectric matrix)
  average eigenvalue GAMMA=   0.6708
  0.8424  0.8424  0.4992  0.4992

 Free energy of the ion-electron system (eV)
  ---------------------------------------------------
  alpha Z        PSCENC =      6118.73324990
  Ewald energy   TEWEN  =   -103853.58790951
  -Hartree energ DENC   =    -64889.76974901
  -exchange      EXHF   =         0.00000000
  -V(xc)+E(xc)   XCENC  =      8967.10538204
  PAW double counting   =    198321.78921139  -199311.34520551
  entropy T*S    EENTRO =        -0.00000000
  eigenvalues    EBANDS =    -25704.83305562
  atomic energy  EATOM  =    178577.25249613
  Solvation  Ediel_sol  =         0.00000000
  ---------------------------------------------------
  free energy    TOTEN  =     -1774.65558017 eV

  energy without entropy =    -1774.65558017  energy(sigma->0) =    -1774.65558017


--------------------------------------------------------------------------------------------------------




--------------------------------------- Iteration      1(   6)  ---------------------------------------


    POTLOK:  cpu time    0.2615: real time    0.2637
    SETDIJ:  cpu time    1.4715: real time    1.4725
     EDDAV:  cpu time  149.5323: real time  150.6798
       DOS:  cpu time    0.0019: real time    0.0019
    CHARGE:  cpu time    5.2491: real time    5.2591
    MIXING:  cpu time    0.0083: real time    0.0083
    --------------------------------------------
      LOOP:  cpu time  156.5245: real time  157.6852

 eigenvalue-minimisations  : 26844
 total energy-change (2. order) : 0.1380124E+02  (-0.5149466E+01)
 number of electron    1923.0000029 magnetization       1.0000000
 augmentation part      495.2356139 magnetization       0.5404260

 Broyden mixing:
  rms(total) = 0.13983E+01    rms(broyden)= 0.13979E+01
  rms(prec ) = 0.15375E+01
  weight for this iteration     100.00

 eigenvalues of (default mixing * dielectric matrix)
  average eigenvalue GAMMA=   0.7141
  0.9687  0.9687  0.4772  0.5779  0.5779

 Free energy of the ion-electron system (eV)
  ---------------------------------------------------
  alpha Z        PSCENC =      6118.73324990
  Ewald energy   TEWEN  =   -103853.58790951
  -Hartree energ DENC   =    -64845.29367049
  -exchange      EXHF   =         0.00000000
  -V(xc)+E(xc)   XCENC  =      8967.80119260
  PAW double counting   =    197853.81283822  -198852.02515599
  entropy T*S    EENTRO =        -0.00000000
  eigenvalues    EBANDS =    -25727.54737703
  atomic energy  EATOM  =    178577.25249613
  Solvation  Ediel_sol  =         0.00000000
  ---------------------------------------------------
  free energy    TOTEN  =     -1760.85433616 eV

  energy without entropy =    -1760.85433616  energy(sigma->0) =    -1760.85433616


--------------------------------------------------------------------------------------------------------




--------------------------------------- Iteration      1(   7)  ---------------------------------------


    POTLOK:  cpu time    0.2615: real time    0.2635
    SETDIJ:  cpu time    1.3847: real time    1.3852
     EDDAV:  cpu time  153.6353: real time  154.6899
       DOS:  cpu time    0.0019: real time    0.0019
    CHARGE:  cpu time    5.2365: real time    5.2401
    MIXING:  cpu time    0.0083: real time    0.0083
    --------------------------------------------
      LOOP:  cpu time  160.5282: real time  161.5890

 eigenvalue-minimisations  : 27744
 total energy-change (2. order) : 0.1956686E+01  (-0.1031556E+01)
 number of electron    1923.0000029 magnetization       1.0000000
 augmentation part      496.3091011 magnetization       0.5642276

 Broyden mixing:
  rms(total) = 0.10011E+01    rms(broyden)= 0.10005E+01
  rms(prec ) = 0.10602E+01
  weight for this iteration     100.00

 eigenvalues of (default mixing * dielectric matrix)
  average eigenvalue GAMMA=   0.8581
  1.3249  1.3249  0.7039  0.7039  0.5453  0.5453

 Free energy of the ion-electron system (eV)
  ---------------------------------------------------
  alpha Z        PSCENC =      6118.73324990
  Ewald energy   TEWEN  =   -103853.58790951
  -Hartree energ DENC   =    -64807.72887529
  -exchange      EXHF   =         0.00000000
  -V(xc)+E(xc)   XCENC  =      8966.81160450
  PAW double counting   =    197529.60604501  -198530.59444409
  entropy T*S    EENTRO =        -0.00000000
  eigenvalues    EBANDS =    -25759.38981684
  atomic energy  EATOM  =    178577.25249613
  Solvation  Ediel_sol  =         0.00000000
  ---------------------------------------------------
  free energy    TOTEN  =     -1758.89765017 eV

  energy without entropy =    -1758.89765017  energy(sigma->0) =    -1758.89765017


--------------------------------------------------------------------------------------------------------




--------------------------------------- Iteration      1(   8)  ---------------------------------------


    POTLOK:  cpu time    0.2626: real time    0.2629
    SETDIJ:  cpu time    1.4166: real time    1.4175
     EDDAV:  cpu time  147.2416: real time  148.1382
       DOS:  cpu time    0.0019: real time    0.0019
    CHARGE:  cpu time    5.1916: real time    5.2754
    MIXING:  cpu time    0.0207: real time    0.0212
    --------------------------------------------
      LOOP:  cpu time  154.1349: real time  155.1171

 eigenvalue-minimisations  : 26304
 total energy-change (2. order) :-0.5266628E+00  (-0.1211268E+01)
[...]
   81        1.573   3.456   0.000   5.029
   82        1.574   3.460   0.000   5.034
   83        1.574   3.459   0.000   5.033
   84        1.575   3.462   0.000   5.037
   85        1.575   3.461   0.000   5.036
   86        1.575   3.465   0.000   5.040
   87        1.575   3.459   0.000   5.034
   88        1.575   3.462   0.000   5.036
   89        1.576   3.467   0.000   5.043
   90        1.576   3.465   0.000   5.041
   91        1.574   3.456   0.000   5.030
   92        1.574   3.456   0.000   5.030
   93        1.578   3.466   0.000   5.044
   94        1.577   3.470   0.000   5.046
   95        1.576   3.469   0.000   5.045
   96        1.575   3.463   0.000   5.037
   97        1.575   3.462   0.000   5.036
   98        1.576   3.466   0.000   5.042
   99        1.575   3.462   0.000   5.037
  100        1.575   3.453   0.000   5.028
  101        1.574   3.455   0.000   5.030
  102        1.575   3.456   0.000   5.030
  103        1.575   3.457   0.000   5.033
  104        1.574   3.457   0.000   5.031
  105        1.577   3.470   0.000   5.046
  106        1.575   3.462   0.000   5.037
  107        1.569   3.470   0.000   5.039
  108        1.576   3.469   0.000   5.045
  109        1.575   3.462   0.000   5.037
  110        1.574   3.459   0.000   5.033
  111        1.576   3.471   0.000   5.047
  112        1.577   3.457   0.000   5.033
  113        1.576   3.470   0.000   5.046
  114        1.577   3.466   0.000   5.043
  115        1.574   3.464   0.000   5.038
  116        1.575   3.461   0.000   5.036
  117        1.572   3.460   0.000   5.032
  118        1.575   3.458   0.000   5.034
  119        1.576   3.470   0.000   5.046
  120        1.575   3.457   0.000   5.032
  121        1.574   3.460   0.000   5.034
  122        1.576   3.458   0.000   5.035
  123        1.577   3.472   0.000   5.049
  124        1.576   3.462   0.000   5.038
  125        1.576   3.474   0.000   5.050
  126        1.576   3.465   0.000   5.041
  127        1.575   3.456   0.000   5.031
  128        1.574   3.458   0.000   5.032
  129        1.576   3.464   0.000   5.041
  130        1.737   4.367   0.000   6.103
  131        1.736   4.368   0.000   6.104
  132        1.737   4.375   0.000   6.112
  133        1.738   4.383   0.000   6.121
  134        1.738   4.381   0.000   6.119
  135        1.737   4.367   0.000   6.103
  136        1.736   4.364   0.000   6.100
  137        1.738   4.378   0.000   6.115
  138        1.738   4.376   0.000   6.114
  139        1.739   4.383   0.000   6.122
  140        1.739   4.383   0.000   6.122
  141        1.738   4.375   0.000   6.113
  142        1.737   4.378   0.000   6.116
  143        1.738   4.383   0.000   6.121
  144        1.738   4.384   0.000   6.122
  145        1.738   4.380   0.000   6.119
  146        1.737   4.376   0.000   6.113
  147        1.736   4.365   0.000   6.101
  148        1.736   4.365   0.000   6.101
  149        1.739   4.380   0.000   6.120
  150        1.738   4.385   0.000   6.123
  151        1.738   4.374   0.000   6.112
  152        1.737   4.378   0.000   6.115
  153        1.737   4.378   0.000   6.115
  154        1.737   4.367   0.000   6.104
  155        1.737   4.366   0.000   6.103
  156        1.737   4.369   0.000   6.105
  157        1.737   4.366   0.000   6.103
  158        1.738   4.374   0.000   6.112
  159        1.738   4.373   0.000   6.110
  160        1.736   4.371   0.000   6.107
  161        1.736   4.364   0.000   6.100
  162        1.737   4.369   0.000   6.105
  163        1.736   4.367   0.000   6.103
  164        1.737   4.372   0.000   6.109
  165        1.736   4.365   0.000   6.102
  166        1.736   4.365   0.000   6.101
  167        1.737   4.369   0.000   6.105
  168        1.737   4.369   0.000   6.106
  169        1.738   4.368   0.000   6.106
  170        1.737   4.371   0.000   6.108
  171        1.737   4.369   0.000   6.105
  172        1.737   4.385   0.000   6.123
  173        1.737   4.366   0.000   6.103
  174        1.737   4.368   0.000   6.104
  175        1.739   4.377   0.000   6.116
  176        1.736   4.363   0.000   6.099
  177        1.737   4.378   0.000   6.116
  178        1.737   4.367   0.000   6.104
  179        1.738   4.372   0.000   6.109
  180        1.738   4.377   0.000   6.115
  181        1.736   4.373   0.000   6.109
  182        1.737   4.374   0.000   6.111
  183        1.737   4.367   0.000   6.103
  184        1.737   4.378   0.000   6.115
  185        1.737   4.380   0.000   6.118
  186        1.737   4.378   0.000   6.115
  187        1.737   4.370   0.000   6.106
  188        1.738   4.372   0.000   6.110
  189        1.738   4.380   0.000   6.119
  190        1.738   4.380   0.000   6.118
  191        1.739   4.382   0.000   6.121
  192        1.738   4.375   0.000   6.113
  193        1.738   4.384   0.000   6.122
  194        1.735   4.380   0.000   6.116
  195        1.737   4.365   0.000   6.102
  196        1.737   4.378   0.000   6.115
  197        1.737   4.365   0.000   6.101
  198        1.737   4.380   0.000   6.117
  199        1.738   4.377   0.000   6.114
  200        1.738   4.379   0.000   6.117
  201        1.738   4.376   0.000   6.113
  202        1.738   4.376   0.000   6.114
  203        1.738   4.379   0.000   6.117
  204        1.738   4.374   0.000   6.112
  205        1.737   4.372   0.000   6.108
  206        1.736   4.368   0.000   6.104
  207        1.737   4.367   0.000   6.104
  208        1.737   4.381   0.000   6.118
  209        1.737   4.369   0.000   6.105
  210        1.737   4.369   0.000   6.106
  211        1.737   4.368   0.000   6.105
  212        1.736   4.364   0.000   6.100
  213        1.738   4.373   0.000   6.111
  214        1.736   4.363   0.000   6.099
  215        1.739   4.374   0.000   6.112
  216        1.736   4.366   0.000   6.102
  217        1.736   4.364   0.000   6.101
  218        1.737   4.375   0.000   6.111
  219        1.738   4.372   0.000   6.110
  220        1.737   4.373   0.000   6.110
  221        1.738   4.375   0.000   6.113
  222        1.737   4.374   0.000   6.111
  223        1.737   4.377   0.000   6.114
  224        1.738   4.375   0.000   6.113
  225        1.738   4.374   0.000   6.112
  226        1.738   4.376   0.000   6.113
  227        1.737   4.375   0.000   6.112
  228        1.737   4.374   0.000   6.111
  229        1.737   4.372   0.000   6.109
  230        1.737   4.368   0.000   6.104
  231        1.737   4.372   0.000   6.109
  232        1.737   4.368   0.000   6.105
  233        1.738   4.380   0.000   6.117
  234        1.737   4.367   0.000   6.103
  235        1.737   4.366   0.000   6.103
  236        1.738   4.382   0.000   6.120
  237        1.738   4.380   0.000   6.118
  238        1.737   4.373   0.000   6.109
  239        1.738   4.373   0.000   6.111
  240        1.737   4.380   0.000   6.117
  241        1.738   4.372   0.000   6.110
  242        1.738   4.377   0.000   6.116
  243        1.738   4.378   0.000   6.116
  244        1.737   4.375   0.000   6.113
  245        1.738   4.378   0.000   6.116
  246        1.738   4.378   0.000   6.116
  247        1.738   4.377   0.000   6.115
  248        1.737   4.370   0.000   6.108
  249        1.737   4.382   0.000   6.120
  250        1.737   4.370   0.000   6.107
  251        1.738   4.379   0.000   6.117
  252        1.737   4.378   0.000   6.115
  253        1.738   4.378   0.000   6.117
  254        1.739   4.377   0.000   6.116
  255        1.738   4.371   0.000   6.109
  256        1.738   4.381   0.000   6.119
  257        1.737   4.375   0.000   6.112
--------------------------------------------------
tot        345.3041194.270 111.8311651.405
 


 magnetization (x)
 
# of ion       s       p       d       tot
------------------------------------------
    1       -0.000  -0.000   0.000  -0.000
    2        0.000   0.000   0.000   0.000
    3       -0.000  -0.000   0.000   0.000
    4       -0.000  -0.000   0.000   0.000
    5       -0.000  -0.000   0.000   0.000
    6       -0.000  -0.000   0.000   0.000
    7       -0.000  -0.000   0.000   0.000
    8        0.000   0.000   0.000   0.000
    9       -0.000  -0.000  -0.000  -0.000
   10       -0.000  -0.000   0.000   0.000
   11       -0.000  -0.000  -0.000  -0.000
   12        0.000   0.001   0.051   0.051
   13       -0.000  -0.000  -0.000  -0.000
   14        0.000   0.000   0.000   0.000
   15       -0.000  -0.000  -0.000  -0.000
   16       -0.000  -0.000   0.006   0.006
   17        0.000  -0.000  -0.000  -0.000
   18       -0.000  -0.000   0.000   0.000
   19       -0.000  -0.000   0.000   0.000
   20       -0.000  -0.000   0.000   0.000
   21       -0.000  -0.000   0.000   0.000
   22       -0.000  -0.000   0.000   0.000
   23       -0.000  -0.000   0.000   0.000
   24       -0.000  -0.000   0.000   0.000
   25       -0.000  -0.000  -0.000  -0.000
   26        0.000   0.000   0.010   0.010
   27       -0.000  -0.000  -0.000  -0.000
   28       -0.000  -0.000   0.001   0.001
   29       -0.000  -0.000   0.000   0.000
   30        0.000   0.000   0.002   0.002
   31       -0.000  -0.000   0.000   0.000
   32        0.000   0.000   0.003   0.003
   33       -0.000  -0.000  -0.000  -0.000
   34       -0.000  -0.000  -0.000  -0.000
   35       -0.000  -0.000  -0.000  -0.000
   36        0.000   0.000   0.000   0.000
   37        0.000  -0.000   0.000   0.000
   38        0.000   0.000   0.000   0.000
   39       -0.000  -0.000   0.000   0.000
   40       -0.000  -0.000  -0.002  -0.003
   41       -0.000  -0.000   0.000  -0.000
   42        0.000   0.000   0.000   0.000
   43       -0.000  -0.000  -0.000  -0.000
   44       -0.000  -0.000   0.000   0.000
   45       -0.000  -0.000   0.000   0.000
   46       -0.000  -0.000   0.000   0.000
   47       -0.000  -0.000   0.000   0.000
   48        0.005   0.006   0.892   0.904
   49       -0.000  -0.000  -0.000  -0.000
   50       -0.000  -0.000   0.000   0.000
   51       -0.000  -0.000  -0.000  -0.000
   52        0.000  -0.000   0.000   0.000
   53       -0.000  -0.000  -0.000  -0.000
   54       -0.000  -0.000  -0.000  -0.000
   55       -0.000  -0.000   0.000   0.000
   56       -0.000  -0.000   0.000   0.000
   57       -0.000  -0.000  -0.000  -0.000
   58        0.000   0.000   0.000   0.000
   59       -0.000  -0.000  -0.000  -0.000
   60        0.000   0.000   0.000   0.000
   61       -0.000  -0.000  -0.000  -0.000
   62        0.000   0.000   0.010   0.010
   63       -0.000  -0.000   0.000   0.000
   64        0.000   0.000   0.010   0.010
   65       -0.000  -0.000  -0.000  -0.000
   66       -0.000  -0.000   0.000  -0.000
   67       -0.000  -0.000   0.000  -0.000
   68       -0.000  -0.000   0.000  -0.000
   69       -0.000  -0.000   0.000  -0.000
   70       -0.000  -0.000   0.000  -0.000
   71       -0.000  -0.000   0.000  -0.000
   72       -0.000  -0.000   0.000  -0.000
   73       -0.000  -0.000   0.000  -0.000
   74       -0.000  -0.000   0.000  -0.000
   75       -0.000  -0.000   0.000  -0.000
   76        0.000   0.000   0.000   0.000
   77       -0.000  -0.000   0.000  -0.000
   78       -0.001  -0.015   0.000  -0.016
   79       -0.000  -0.000   0.000  -0.000
   80       -0.000  -0.000   0.000  -0.000
   81       -0.000  -0.000   0.000  -0.000
   82       -0.000  -0.000   0.000  -0.000
   83       -0.000  -0.000   0.000  -0.000
   84       -0.000  -0.000   0.000  -0.001
   85       -0.000  -0.000   0.000  -0.000
   86       -0.000  -0.000   0.000  -0.000
   87       -0.000  -0.001   0.000  -0.001
   88       -0.000  -0.000   0.000  -0.000
   89       -0.000  -0.000   0.000  -0.000
   90       -0.000  -0.000   0.000  -0.000
   91       -0.000  -0.000   0.000  -0.000
   92       -0.000  -0.000   0.000  -0.000
   93       -0.000  -0.000   0.000  -0.000
   94       -0.000  -0.000   0.000  -0.000
   95       -0.000  -0.000   0.000  -0.000
   96        0.000   0.000   0.000   0.000
   97       -0.000  -0.000   0.000  -0.000
   98       -0.000  -0.001   0.000  -0.001
   99       -0.000  -0.000   0.000  -0.000
  100       -0.000  -0.001   0.000  -0.001
  101        0.000  -0.000   0.000  -0.000
  102       -0.000  -0.000   0.000  -0.000
  103       -0.000  -0.000   0.000  -0.000
  104       -0.000  -0.000   0.000  -0.000
  105        0.000   0.000   0.000   0.000
  106       -0.000  -0.001   0.000  -0.001
  107       -0.001  -0.023   0.000  -0.024
  108       -0.000  -0.000   0.000  -0.000
  109       -0.000  -0.000   0.000  -0.000
  110       -0.000  -0.000   0.000  -0.000
  111       -0.000  -0.000   0.000  -0.000
  112       -0.000  -0.000   0.000  -0.000
  113        0.000   0.000   0.000   0.000
  114       -0.000  -0.000   0.000  -0.000
  115        0.000   0.000   0.000   0.000
  116        0.000   0.000   0.000   0.000
  117       -0.000  -0.000   0.000  -0.000
  118       -0.000  -0.000   0.000  -0.000
  119       -0.000  -0.000   0.000  -0.000
  120       -0.000  -0.000   0.000  -0.000
  121       -0.000  -0.000   0.000  -0.000
  122       -0.000  -0.004   0.000  -0.004
  123        0.000  -0.000   0.000  -0.000
  124       -0.000  -0.000   0.000  -0.000
  125        0.000   0.000   0.000   0.000
  126       -0.000  -0.000   0.000  -0.000
  127        0.000   0.000   0.000   0.000
  128       -0.000  -0.000   0.000  -0.000
  129       -0.000  -0.000   0.000  -0.000
  130       -0.000  -0.000   0.000  -0.000
  131       -0.000  -0.000   0.000  -0.000
  132       -0.000  -0.000   0.000  -0.000
  133       -0.000  -0.000   0.000  -0.000
  134        0.000   0.000   0.000   0.000
  135       -0.000  -0.000   0.000  -0.000
  136       -0.000  -0.000   0.000  -0.000
  137       -0.000  -0.001   0.000  -0.001
  138       -0.000  -0.000   0.000  -0.000
  139       -0.000  -0.000   0.000  -0.000
  140        0.000  -0.000   0.000  -0.000
  141       -0.000  -0.000   0.000  -0.000
  142       -0.000  -0.000   0.000  -0.000
  143       -0.000  -0.000   0.000  -0.000
  144       -0.000  -0.000   0.000  -0.000
  145       -0.000  -0.000   0.000  -0.000
  146       -0.000  -0.000   0.000  -0.000
  147       -0.000  -0.000   0.000  -0.000
  148       -0.000  -0.000   0.000  -0.000
  149       -0.000  -0.000   0.000  -0.000
  150       -0.000  -0.000   0.000  -0.000
  151       -0.000  -0.000   0.000  -0.000
  152       -0.000  -0.000   0.000  -0.000
  153       -0.000  -0.000   0.000  -0.000
  154       -0.000  -0.000   0.000  -0.000
  155        0.000  -0.000   0.000  -0.000
  156       -0.000  -0.000   0.000  -0.000
  157        0.000   0.000   0.000   0.000
  158       -0.000  -0.000   0.000  -0.000
  159       -0.000  -0.000   0.000  -0.000
  160       -0.000  -0.006   0.000  -0.006
  161       -0.000  -0.000   0.000  -0.000
  162       -0.000  -0.000   0.000  -0.000
  163        0.000   0.000   0.000   0.000
  164       -0.000  -0.000   0.000  -0.000
  165       -0.000  -0.000   0.000  -0.000
  166       -0.000  -0.000   0.000  -0.000
  167       -0.000  -0.000   0.000  -0.000
  168       -0.000  -0.000   0.000  -0.000
  169       -0.000  -0.000   0.000  -0.000
  170       -0.000  -0.000   0.000  -0.000
  171       -0.000  -0.000   0.000  -0.000
  172        0.000   0.000   0.000   0.000
  173        0.000  -0.000   0.000  -0.000
  174       -0.000  -0.000   0.000  -0.000
  175       -0.000  -0.000   0.000  -0.000
  176       -0.000  -0.000   0.000  -0.000
  177        0.000   0.000   0.000   0.000
  178       -0.000  -0.000   0.000  -0.000
  179       -0.000  -0.000   0.000  -0.000
  180        0.000   0.000   0.000   0.000
  181       -0.000   0.001   0.000   0.001
  182        0.000  -0.000   0.000  -0.000
  183       -0.000  -0.000   0.000  -0.000
  184       -0.000  -0.000   0.000  -0.000
  185       -0.000  -0.000   0.000  -0.000
  186       -0.000  -0.000   0.000  -0.000
  187       -0.000  -0.000   0.000  -0.000
  188       -0.000   0.000   0.000   0.000
  189       -0.000   0.000   0.000   0.000
  190       -0.000  -0.000   0.000  -0.000
  191        0.000   0.000   0.000   0.000
  192       -0.000  -0.000   0.000  -0.000
  193       -0.000  -0.000   0.000  -0.000
  194       -0.000  -0.000   0.000  -0.000
  195        0.000   0.000   0.000   0.000
  196       -0.000  -0.000   0.000  -0.000
  197       -0.000  -0.000   0.000  -0.000
  198       -0.000   0.000   0.000   0.000
  199        0.000  -0.000   0.000  -0.000
  200       -0.000  -0.000   0.000  -0.000
  201       -0.000  -0.000   0.000  -0.000
  202       -0.000  -0.000   0.000  -0.000
  203       -0.000  -0.000   0.000  -0.000
  204       -0.000  -0.000   0.000  -0.000
  205        0.000  -0.000   0.000  -0.000
  206       -0.000   0.000   0.000   0.000
  207       -0.000  -0.000   0.000  -0.000
  208       -0.000  -0.000   0.000  -0.000
  209        0.000  -0.001   0.000  -0.001
  210        0.000  -0.000   0.000  -0.000
  211        0.000   0.000   0.000   0.000
  212       -0.000  -0.000   0.000  -0.000
  213       -0.000  -0.000   0.000  -0.000
  214       -0.000  -0.000   0.000  -0.000
  215       -0.000  -0.000   0.000  -0.000
  216       -0.000  -0.000   0.000  -0.000
  217       -0.000  -0.000   0.000  -0.000
  218       -0.000  -0.000   0.000  -0.000
  219       -0.000  -0.000   0.000  -0.000
  220       -0.000  -0.000   0.000  -0.000
  221       -0.000  -0.000   0.000  -0.000
  222        0.000  -0.000   0.000  -0.000
  223       -0.000  -0.000   0.000  -0.000
  224       -0.000  -0.000   0.000  -0.000
  225       -0.000  -0.000   0.000  -0.000
  226        0.000  -0.000   0.000  -0.000
  227        0.000   0.000   0.000   0.000
  228        0.000   0.000   0.000   0.000
  229       -0.000  -0.000   0.000  -0.000
  230       -0.000  -0.000   0.000  -0.000
  231       -0.000  -0.000   0.000  -0.000
  232        0.000  -0.000   0.000  -0.000
  233       -0.000  -0.000   0.000  -0.000
  234       -0.000   0.000   0.000   0.000
  235       -0.000  -0.000   0.000  -0.000
  236       -0.000  -0.000   0.000  -0.000
  237       -0.000  -0.000   0.000  -0.000
  238       -0.000  -0.000   0.000  -0.000
  239        0.000  -0.000   0.000  -0.000
  240        0.000   0.000   0.000   0.000
  241       -0.000  -0.000   0.000  -0.000
  242       -0.000  -0.000   0.000  -0.000
  243       -0.000  -0.000   0.000  -0.000
  244        0.000  -0.000   0.000  -0.000
  245       -0.000  -0.000   0.000  -0.000
  246       -0.000  -0.000   0.000  -0.000
  247       -0.000  -0.000   0.000  -0.000
  248       -0.000  -0.000   0.000  -0.000
  249       -0.000  -0.000   0.000  -0.000
  250       -0.000  -0.000   0.000  -0.000
  251       -0.000   0.000   0.000   0.000
  252        0.000   0.000   0.000   0.000
  253       -0.000   0.000   0.000   0.000
  254       -0.000  -0.000   0.000  -0.000
  255       -0.000  -0.000   0.000  -0.000
  256       -0.000  -0.000   0.000  -0.000
  257       -0.000  -0.000   0.000  -0.000
--------------------------------------------------
tot          0.001  -0.049   0.985   0.937
 

 total amount of memory used by VASP MPI-rank0   291503. kBytes
=======================================================================

   base      :      30000. kBytes
   nonlr-proj:      49468. kBytes
   fftplans  :      27976. kBytes
   grid      :      34041. kBytes
   one-center:       1026. kBytes
   wavefun   :     148992. kBytes
 
  
  
 General timing and accounting informations for this job:
 ========================================================
  
                  Total CPU time used (sec):     4271.795
                            User time (sec):     3877.100
                          System time (sec):      394.695
                         Elapsed time (sec):     4310.994
  
                   Maximum memory used (kb):      626352.
                   Average memory used (kb):           0.
  
                          Minor page faults:       295675
                          Major page faults:            1
                 Voluntary context switches:        28952
