       N       E                     dE             d eps       ncg     rms          rms(c)
DAV:   1    -0.213301561109E+03   -0.21330E+03   -0.70618E-01  2560   0.557E+00    0.710E-02
DAV:   2    -0.213301646605E+03   -0.85495E-04   -0.27402E-05  2560   0.262E-02    0.399E-02
DAV:   3    -0.213301742614E+03   -0.96009E-04   -0.17916E-05  2400   0.273E-02    0.486E-03
DAV:   4    -0.213301743763E+03   -0.11491E-05   -0.92554E-07  1408   0.691E-03    0.183E-03
DAV:   5    -0.213301743807E+03   -0.44231E-07   -0.27520E-07  1280   0.380E-03
   1 F= -.21330174E+03 E0= -.21330174E+03  d E =-.213302E+03  mag=    -0.0000
