 vasp.5.4.4.18Apr17-6-g9f103f2a35 (build Apr 30 2017 20:10:35) complex          
  
 executed on             LinuxIFC date 2017.08.03  22:40:46
 running on   64 total cores
 distrk:  each k-point on   64 cores,    1 groups
 distr:  one band on NCORES_PER_BAND=   8 cores,    8 groups


--------------------------------------------------------------------------------------------------------


 INCAR:
 POTCAR:   PAW_PBE Ti_pv 07Sep2000                
 POTCAR:   PAW_PBE O 08Apr2002                    
 POTCAR:    PAW_PBE F 08Apr2002                   
 POTCAR:   PAW_PBE Ti_pv 07Sep2000                
   VRHFIN =Ti: d3 s1                                                            
   LEXCH  = PE                                                                  
   EATOM  =  1042.3781 eV,   76.6126 Ry                                         
                                                                                
   TITEL  = PAW_PBE Ti_pv 07Sep2000                                             
   LULTRA =        F    use ultrasoft PP ?                                      
   IUNSCR =        1    unscreen: 0-lin 1-nonlin 2-no                           
   RPACOR =    2.200    partial core radius                                     
   POMASS =   47.880; ZVAL   =   10.000    mass and valenz                      
   RCORE  =    2.500    outmost cutoff radius                                   
   RWIGS  =    2.500; RWIGS  =    1.323    wigner-seitz radius (au A)           
   ENMAX  =  222.338; ENMIN  =  166.753 eV                                      
   RCLOC  =    1.701    cutoff for local pot                                    
   LCOR   =        T    correct aug charges                                     
   LPAW   =        T    paw PP                                                  
   EAUG   =  482.848                                                            
   DEXC   =    -.008                                                            
   RMAX   =    3.092    core radius for proj-oper                               
   RAUG   =    1.300    factor for augmentation sphere                          
   RDEP   =    2.538    radius for radial grids                                 
   QCUT   =   -4.042; QGAM   =    8.085    optimization parameters              
                                                                                
   Description                                                                  
     l     E      TYP  RCUT    TYP  RCUT                                        
     1   .000     23  2.300                                                     
     1  -.100     23  2.300                                                     
     2   .000     23  2.500                                                     
     2   .000     23  2.500                                                     
     0   .000     23  2.500                                                     
     0  1.500     23  2.500                                                     
     3   .000      7   .000                                                     
  local pseudopotential read in
  partial core-charges read in
  atomic valenz-charges read in
  non local Contribution for L=           1  read in
    real space projection operators read in
  non local Contribution for L=           1  read in
    real space projection operators read in
  non local Contribution for L=           2  read in
    real space projection operators read in
  non local Contribution for L=           2  read in
    real space projection operators read in
  non local Contribution for L=           0  read in
    real space projection operators read in
  non local Contribution for L=           0  read in
    real space projection operators read in
    PAW grid and wavefunctions read in
 
   number of l-projection  operators is LMAX  =           6
   number of lm-projection operators is LMMAX =          18
 
 POTCAR:   PAW_PBE O 08Apr2002                    
   VRHFIN =O: s2p4                                                              
   LEXCH  = PE                                                                  
   EATOM  =   432.3788 eV,   31.7789 Ry                                         
                                                                                
   TITEL  = PAW_PBE O 08Apr2002                                                 
   LULTRA =        F    use ultrasoft PP ?                                      
   IUNSCR =        0    unscreen: 0-lin 1-nonlin 2-no                           
   RPACOR =     .000    partial core radius                                     
   POMASS =   16.000; ZVAL   =    6.000    mass and valenz                      
   RCORE  =    1.520    outmost cutoff radius                                   
   RWIGS  =    1.550; RWIGS  =     .820    wigner-seitz radius (au A)           
   ENMAX  =  400.000; ENMIN  =  300.000 eV                                      
   ICORE  =        2    local potential                                         
   LCOR   =        T    correct aug charges                                     
   LPAW   =        T    paw PP                                                  
   EAUG   =  605.392                                                            
   DEXC   =     .000                                                            
   RMAX   =    2.264    core radius for proj-oper                               
   RAUG   =    1.300    factor for augmentation sphere                          
   RDEP   =    1.550    radius for radial grids                                 
   QCUT   =   -5.520; QGAM   =   11.041    optimization parameters              
                                                                                
   Description                                                                  
     l     E      TYP  RCUT    TYP  RCUT                                        
     0   .000     23  1.200                                                     
     0  -.700     23  1.200                                                     
     1   .000     23  1.520                                                     
     1   .600     23  1.520                                                     
     2   .000      7  1.500                                                     
  local pseudopotential read in
  atomic valenz-charges read in
  non local Contribution for L=           0  read in
    real space projection operators read in
  non local Contribution for L=           0  read in
    real space projection operators read in
  non local Contribution for L=           1  read in
    real space projection operators read in
  non local Contribution for L=           1  read in
    real space projection operators read in
    PAW grid and wavefunctions read in
 
   number of l-projection  operators is LMAX  =           4
   number of lm-projection operators is LMMAX =           8
 
 POTCAR:    PAW_PBE F 08Apr2002                   
   VRHFIN =F: s2p5                                                              
   LEXCH  = PE                                                                  
   EATOM  =   659.6475 eV,   48.4827 Ry                                         
                                                                                
   TITEL  = PAW_PBE F 08Apr2002                                                 
   LULTRA =        F    use ultrasoft PP ?                                      
   IUNSCR =        1    unscreen: 0-lin 1-nonlin 2-no                           
   RPACOR =    1.200    partial core radius                                     
   POMASS =   18.998; ZVAL   =    7.000    mass and valenz                      
   RCORE  =    1.520    outmost cutoff radius                                   
   RWIGS  =    1.500; RWIGS  =    0.794    wigner-seitz radius (au A)           
   ENMAX  =  400.000; ENMIN  =  300.000 eV                                      
   ICORE  =        2    local potential                                         
   LCOR   =        T    correct aug charges                                     
   LPAW   =        T    paw PP                                                  
   EAUG   =  613.614                                                            
   RMAX   =    1.555    core radius for proj-oper                               
   RAUG   =    1.300    factor for augmentation sphere                          
   RDEP   =    1.539    radius for radial grids                                 
   RDEPT  =    1.299    core radius for aug-charge                              
                                                                                
   Atomic configuration                                                         
    4 entries                                                                   
     n  l   j            E        occ.                                          
     1  0  0.50      -663.3661   2.0000                                         
     2  0  0.50       -29.8995   2.0000                                         
     2  1  0.50       -11.1114   5.0000                                         
     3  2  1.50       -10.8847   0.0000                                         
   Description                                                                  
     l       E           TYP  RCUT    TYP  RCUT                                 
     0    -29.8995018     23  1.200                                             
     0     -9.5240782     23  1.200                                             
     1    -11.1113914     23  1.520                                             
     1      1.3605826     23  1.520                                             
     2    -10.8846608      7  1.500                                             
  local pseudopotential read in
  partial core-charges read in
  partial kinetic energy density read in
  atomic valenz-charges read in
  non local Contribution for L=           0  read in
    real space projection operators read in
  non local Contribution for L=           0  read in
    real space projection operators read in
  non local Contribution for L=           1  read in
    real space projection operators read in
  non local Contribution for L=           1  read in
    real space projection operators read in
    PAW grid and wavefunctions read in
 
   number of l-projection  operators is LMAX  =           4
   number of lm-projection operators is LMMAX =           8
 
 Optimization of the real space projectors (new method)

 maximal supplied QI-value         = 15.12
 optimisation between [QCUT,QGAM] = [ 13.45, 27.06] = [ 50.69,205.06] Ry 
 Optimized for a Real-space Cutoff    1.49 Angstroem

   l    n(q)    QCUT    max X(q) W(low)/X(q) W(high)/X(q)  e(spline) 
   1     12    13.455     4.841    0.13E-05    0.83E-06    0.56E-07
   1     12    13.455     5.701    0.32E-04    0.25E-04    0.17E-06
   2     11    13.455     4.569    0.64E-05    0.34E-05    0.50E-07
   2     11    13.455    32.276    0.49E-04    0.38E-04    0.46E-06
   0     12    13.455    30.046    0.17E-04    0.41E-05    0.51E-07
   0     12    13.455    45.433    0.12E-04    0.27E-04    0.38E-06
 Optimization of the real space projectors (new method)

 maximal supplied QI-value         = 24.76
 optimisation between [QCUT,QGAM] = [ 13.37, 26.98] = [ 50.04,203.89] Ry 
 Optimized for a Real-space Cutoff    1.17 Angstroem

   l    n(q)    QCUT    max X(q) W(low)/X(q) W(high)/X(q)  e(spline) 
   0      9    13.368     4.192    0.20E-04    0.58E-05    0.56E-07
   0      9    13.368     8.473    0.60E-04    0.52E-04    0.21E-06
   1      9    13.368     2.474    0.22E-04    0.17E-04    0.28E-07
   1      9    13.368     3.912    0.94E-04    0.97E-04    0.20E-06
 Optimization of the real space projectors (new method)

 maximal supplied QI-value         = 24.76
 optimisation between [QCUT,QGAM] = [ 13.37, 26.98] = [ 50.04,203.89] Ry 
 Optimized for a Real-space Cutoff    1.17 Angstroem

   l    n(q)    QCUT    max X(q) W(low)/X(q) W(high)/X(q)  e(spline) 
   0      9    13.368    14.049    0.39E-04    0.34E-04    0.16E-06
   0      9    13.368     8.945    0.54E-04    0.47E-04    0.20E-06
   1      9    13.368     7.086    0.99E-04    0.10E-03    0.23E-06
   1      9    13.368     6.747    0.86E-04    0.89E-04    0.21E-06

 ----------------------------------------------------------------------------- 
|                                                                             |
|  ADVICE TO THIS USER RUNNING 'VASP/VAMP'   (HEAR YOUR MASTER'S VOICE ...):  |
|                                                                             |
|      You enforced a specific xc-type in the INCAR file,                     |
|      a different type was found on the POTCAR file                          |
|          I HOPE YOU KNOW, WHAT YOU ARE  DOING                               |
|                                                                             |
 ----------------------------------------------------------------------------- 

 PAW_PBE Ti_pv 07Sep2000                :
 energy of atom  1       EATOM=-1042.3781
 kinetic energy error for atom=    0.0006 (will be added to EATOM!!)
 PAW_PBE O 08Apr2002                    :
 energy of atom  2       EATOM= -432.3788
 kinetic energy error for atom=    0.0091 (will be added to EATOM!!)
  PAW_PBE F 08Apr2002                   :
 energy of atom  3       EATOM= -659.6475
 kinetic energy error for atom=    0.0140 (will be added to EATOM!!)
 
 
 POSCAR: TiOF2 2x2x2 config 1016                 
  positions in direct lattice
  velocities in cartesian coordinates
 exchange correlation table for  LEXCH =       14
   RHO(1)=    0.500       N(1)  =     2000
   RHO(2)=  100.500       N(2)  =     4000

 VTST: version 3.1, (03/28/14)

 CHAIN: initializing optimizer
 
 OPT: Using VASP QUASI-newton optimizer
 CHAIN: Read ICHAIN            0
 
 POSCAR: TiOF2 2x2x2 config 1016                 
  positions in direct lattice
  velocities in cartesian coordinates
 


--------------------------------------------------------------------------------------------------------


 ion  position               nearest neighbor table
   1  1.000  0.983  0.994-  10 1.79  13 1.89  21 1.94  17 1.94  29 1.99  24 2.04
   2  0.001  0.001  0.519-  13 1.76  25 1.91  26 1.92  18 1.93  22 1.93  29 2.04
   3  0.001  0.509  0.015-  14 1.79  10 1.88  19 1.95  23 1.95  24 2.01  30 2.03
   4  0.981  0.500  0.490-   9 1.79  14 1.86  25 1.96  26 1.97  30 2.01  20 2.08
   5  0.500  0.015  0.013-  11 1.81  15 1.82  21 1.98  17 1.98  31 2.02  28 2.04
   6  0.500  0.984  0.488-  12 1.79  15 1.83  18 1.99  22 2.00  31 2.02  27 2.03
   7  0.500  0.489  0.984-  16 1.79  11 1.85  19 1.97  23 1.97  32 2.02  28 2.03
   8  0.507  0.509  0.510-  16 1.85  12 1.87   9 1.92  32 2.01  27 2.03  20 2.04
   9  0.753  0.499  0.500-   4 1.79   8 1.92
  10  1.000  0.751  1.000-   1 1.79   3 1.88
  11  0.500  0.250  0.999-   5 1.81   7 1.85
  12  0.499  0.752  0.500-   6 1.79   8 1.87
  13  1.000  0.002  0.748-   2 1.76   1 1.89
  14  0.001  0.499  0.249-   3 1.79   4 1.86
  15  0.500  1.000  0.250-   5 1.82   6 1.83
  16  0.499  0.500  0.751-   7 1.79   8 1.85
  17  0.248  0.001  1.000-   1 1.94   5 1.98
  18  0.246  0.003  0.499-   2 1.93   6 1.99
  19  0.249  0.500  0.999-   3 1.95   7 1.97
  20  0.247  0.498  0.500-   8 2.04   4 2.08
  21  0.752  0.001  1.000-   1 1.94   5 1.98
  22  0.755  0.004  0.499-   2 1.93   6 2.00
  23  0.752  0.500  0.999-   3 1.95   7 1.97
  24  1.000  0.248  0.999-   3 2.01   1 2.04
  25  0.005  0.248  0.498-   2 1.91   4 1.96
  26  0.005  0.754  0.498-   2 1.92   4 1.97
  27  0.498  0.247  0.501-   8 2.03   6 2.03
  28  0.500  0.752  0.999-   7 2.03   5 2.04
  29  1.000  0.004  0.253-   1 1.99   2 2.04
  30  0.004  0.496  0.750-   4 2.01   3 2.03
  31  0.500  1.000  0.750-   6 2.02   5 2.02
  32  0.497  0.501  0.247-   8 2.01   7 2.02
 

IMPORTANT INFORMATION: All symmetrisations will be switched off!
NOSYMM: (Re-)initialisation of all symmetry stuff for point group C_1.

 
 
 KPOINTS: Title                                   

Automatic generation of k-mesh.
Space group operators:
 irot       det(A)        alpha          n_x          n_y          n_z        tau_x        tau_y        tau_z
    1     1.000000     0.000001     1.000000     0.000000     0.000000     0.000000     0.000000     0.000000
 
 Subroutine IBZKPT returns following result:
 ===========================================
 
 Found      4 irreducible k-points:
 
 Following reciprocal coordinates:
            Coordinates               Weight
  0.250000  0.250000  0.250000      2.000000
 -0.250000  0.250000  0.250000      2.000000
  0.250000 -0.250000  0.250000      2.000000
 -0.250000 -0.250000  0.250000      2.000000
 
 Following cartesian coordinates:
            Coordinates               Weight
  0.031970  0.032386  0.032581      2.000000
 -0.031973  0.032379  0.032591      2.000000
  0.031963 -0.032410  0.032612      2.000000
 -0.031980 -0.032417  0.032622      2.000000
 


--------------------------------------------------------------------------------------------------------




 Dimension of arrays:
   k-points           NKPTS =      4   k-points in BZ     NKDIM =      4   number of bands    NBANDS=    160
   number of dos      NEDOS =   3001   number of ions     NIONS =     32
   non local maximal  LDIM  =      6   non local SUM 2l+1 LMDIM =     18
   total plane-waves  NPLWV = 343000
   max r-space proj   IRMAX =  10278   max aug-charges    IRDMAX= 230414
   dimension x,y,z NGX =    70 NGY =   70 NGZ =   70
   dimension x,y,z NGXF=   140 NGYF=  140 NGZF=  140
   support grid    NGXF=   280 NGYF=  280 NGZF=  280
   ions per type =               8   8  16
   NGX,Y,Z   is equivalent  to a cutoff of  14.88, 15.08, 15.18 a.u.
   NGXF,Y,Z  is equivalent  to a cutoff of  29.76, 30.16, 30.35 a.u.

 SYSTEM =  LTO                                     
 POSCAR =  TiOF2 2x2x2 config 1016                 

 Startparameter for this run:
   NWRITE =      2    write-flag & timer
   PREC   = accura    normal or accurate (medium, high low for compatibility)
   ISTART =      1    job   : 0-new  1-cont  2-samecut
   ICHARG =      0    charge: 1-file 2-atom 10-const
   ISPIN  =      2    spin polarized calculation?
   LNONCOLLINEAR =      F non collinear calculations
   LSORBIT =      F    spin-orbit coupling
   INIWAV =      1    electr: 0-lowe 1-rand  2-diag
   LASPH  =      T    aspherical Exc in radial PAW
   METAGGA=      F    non-selfconsistent MetaGGA calc.

 Electronic Relaxation 1
   ENCUT  =  700.0 eV  51.45 Ry    7.17 a.u.  16.87 16.65 16.54*2*pi/ulx,y,z
   ENINI  =  700.0     initial cutoff
   ENAUG  =  613.6 eV  augmentation charge cutoff
   NELM   =     60;   NELMIN=  2; NELMDL=  0     # of ELM steps 
   EDIFF  = 0.1E-05   stopping-criterion for ELM
   LREAL  =      T    real-space projection
   NLSPLINE    = F    spline interpolate recip. space projectors
   LCOMPAT=      F    compatible to vasp.4.4
   GGA_COMPAT  = T    GGA compatible to vasp.4.4-vasp.4.6
   LMAXPAW     = -100 max onsite density
   LMAXMIX     =    4 max onsite mixed and CHGCAR
   VOSKOWN=      0    Vosko Wilk Nusair interpolation
   ROPT   =   -0.00010  -0.00010  -0.00010
 Ionic relaxation
   EDIFFG = -.1E-01   stopping-criterion for IOM
   NSW    =    100    number of steps for IOM
   NBLOCK =      1;   KBLOCK =    100    inner block; outer block 
   IBRION =      1    ionic relax: 0-MD 1-quasi-New 2-CG
   NFREE  =      0    steps in history (QN), initial steepest desc. (CG)
   ISIF   =      3    stress and relaxation
   IWAVPR =     11    prediction:  0-non 1-charg 2-wave 3-comb
   ISYM   =      0    0-nonsym 1-usesym 2-fastsym
   LCORR  =      T    Harris-Foulkes like correction to forces

   POTIM  = 0.5000    time-step for ionic-motion
   TEIN   =    0.0    initial temperature
   TEBEG  =    0.0;   TEEND  =   0.0 temperature during run
   SMASS  =  -3.00    Nose mass-parameter (am)
   estimated Nose-frequenzy (Omega)   =  0.10E-29 period in steps =****** mass=  -0.140E-26a.u.
   SCALEE = 1.0000    scale energy and forces
   NPACO  =    256;   APACO  = 16.0  distance and # of slots for P.C.
   PSTRESS=    0.0 pullay stress

  Mass of Ions in am
   POMASS =  47.88 16.00 19.00
  Ionic Valenz
   ZVAL   =  10.00  6.00  7.00
  Atomic Wigner-Seitz radii
   RWIGS  =  -1.00 -1.00 -1.00
  virtual crystal weights 
   VCA    =   1.00  1.00  1.00
   NELECT =     240.0000    total number of electrons
   NUPDOWN=      -1.0000    fix difference up-down

 DOS related values:
   EMIN   =  10.00;   EMAX   =-10.00  energy-range for DOS
   EFERMI =   0.00
   ISMEAR =     0;   SIGMA  =   0.01  broadening in eV -4-tet -1-fermi 0-gaus

 Electronic relaxation 2 (details)
   IALGO  =     38    algorithm
   LDIAG  =      T    sub-space diagonalisation (order eigenvalues)
   LSUBROT=      F    optimize rotation matrix (better conditioning)
   TURBO    =      0    0=normal 1=particle mesh
   IRESTART =      0    0=no restart 2=restart with 2 vectors
   NREBOOT  =      0    no. of reboots
   NMIN     =      0    reboot dimension
   EREF     =   0.00    reference energy to select bands
   IMIX   =      4    mixing-type and parameters
     AMIX     =   0.40;   BMIX     =  1.00
     AMIX_MAG =   1.60;   BMIX_MAG =  1.00
     AMIN     =   0.10
     WC   =   100.;   INIMIX=   1;  MIXPRE=   1;  MAXMIX= -45

 Intra band minimization:
   WEIMIN = 0.0010     energy-eigenvalue tresh-hold
   EBREAK =  0.16E-08  absolut break condition
   DEPER  =   0.30     relativ break condition  

   TIME   =   0.40     timestep for ELM

  volume/ion in A,a.u.               =      14.46        97.58
  Fermi-wavevector in a.u.,A,eV,Ry     =   1.315358  2.485667 23.540363  1.730168
  Thomas-Fermi vector in A             =   2.445547
 
 Write flags
   LWAVE        =      T    write WAVECAR
   LDOWNSAMPLE  =      F    k-point downsampling of WAVECAR
   LCHARG       =      T    write CHGCAR
   LVTOT        =      F    write LOCPOT, total local potential
   LVHAR        =      F    write LOCPOT, Hartree potential only
   LELF         =      F    write electronic localiz. function (ELF)
   LORBIT       =     11    0 simple, 1 ext, 2 COOP (PROOUT), +10 PAW based schemes


 Dipole corrections
   LMONO  =      F    monopole corrections only (constant potential shift)
   LDIPOL =      F    correct potential (dipole corrections)
   IDIPOL =      0    1-x, 2-y, 3-z, 4-all directions 
   EPSILON=  1.0000000 bulk dielectric constant

 LDA+U is selected, type is set to LDAUTYPE =  2
   angular momentum for each species LDAUL =     2   -1   -1
   U (eV)           for each species LDAUU =   4.2  0.0  0.0
   J (eV)           for each species LDAUJ =   0.0  0.0  0.0
 Exchange correlation treatment:
   GGA     =    PS    GGA type
   LEXCH   =    14    internal setting for exchange type
   VOSKOWN=      0    Vosko Wilk Nusair interpolation
   LHFCALC =     F    Hartree Fock is set to
   LHFONE  =     F    Hartree Fock one center treatment
   AEXX    =    0.0000 exact exchange contribution

 Linear response parameters
   LEPSILON=     F    determine dielectric tensor
   LRPA    =     F    only Hartree local field effects (RPA)
   LNABLA  =     F    use nabla operator in PAW spheres
   LVEL    =     F    velocity operator in full k-point grid
   LINTERFAST=   F  fast interpolation
   KINTER  =     0    interpolate to denser k-point grid
   CSHIFT  =0.1000    complex shift for real part using Kramers Kronig
   OMEGAMAX=  -1.0    maximum frequency
   DEG_THRESHOLD= 0.2000000E-02 threshold for treating states as degnerate
   RTIME   =   -0.100 relaxation time in fs
  (WPLASMAI=    0.000 imaginary part of plasma frequency in eV, 0.658/RTIME)
   DFIELD  = 0.0000000 0.0000000 0.0000000 field for delta impulse in time
 
 Orbital magnetization related:
   ORBITALMAG=     F  switch on orbital magnetization
   LCHIMAG   =     F  perturbation theory with respect to B field
   DQ        =  0.001000  dq finite difference perturbation B field
   LLRAUG    =     F  two centre corrections for induced B field



--------------------------------------------------------------------------------------------------------


 quasi-Newton-method for relaxation of ions
 charge density and potential will be updated during run
 spin polarized calculation
 Variant of blocked Davidson
 Davidson routine will perform the subspace rotation
 perform sub-space diagonalisation
    after iterative eigenvector-optimisation
 modified Broyden-mixing scheme, WC =      100.0
 initial mixing is a Kerker type mixing with AMIX =  0.4000 and BMIX =      1.0000
 Hartree-type preconditioning will be used
 using additional bands           40
 real space projection scheme for non local part
 use partial core corrections
 calculate Harris-corrections to forces 
   (improved forces if not selfconsistent)
 use gradient corrections 
 use of overlap-Matrix (Vanderbilt PP)
 Gauss-broadening in eV      SIGMA  =   0.01


--------------------------------------------------------------------------------------------------------


  energy-cutoff  :      700.00
  volume of cell :      462.70
      direct lattice vectors                 reciprocal lattice vectors
     7.819527382 -0.000848644  0.001222899     0.127884972  0.000013916 -0.000021193
    -0.000839075  7.716478228  0.003633668     0.000014074  0.129592828 -0.000062219
     0.001270381  0.003681534  7.668383994    -0.000020401 -0.000061410  0.130405605

  length of vectors
     7.819527524  7.716479129  7.668384983     0.127884974  0.129592844  0.130405621


 
 old parameters found on file WAVECAR:
  energy-cutoff  :      700.00
  volume of cell :      438.28
      direct lattice vectors                 reciprocal lattice vectors
     7.596000000  0.000000000  0.000000000     0.131648236  0.000000000  0.000000000
     0.000000000  7.596000000  0.000000000     0.000000000  0.131648236  0.000000000
     0.000000000  0.000000000  7.596000000     0.000000000  0.000000000  0.131648236

  length of vectors

 
 k-points in units of 2pi/SCALE and weight: Title                                   
   0.03196966  0.03238633  0.03258055       0.250
  -0.03197282  0.03237938  0.03259114       0.250
   0.03196262 -0.03241008  0.03261166       0.250
  -0.03197986 -0.03241704  0.03262225       0.250
 
 k-points in reciprocal lattice and weights: Title                                   
   0.25000000  0.25000000  0.25000000       0.250
  -0.25000000  0.25000000  0.25000000       0.250
   0.25000000 -0.25000000  0.25000000       0.250
  -0.25000000 -0.25000000  0.25000000       0.250
 
 position of ions in fractional coordinates (direct lattice) 
   0.99999077  0.98326620  0.99440259
   0.00079465  0.00140963  0.51881823
   0.00091112  0.50850698  0.01519100
   0.98087635  0.50004384  0.48996875
   0.50007023  0.01533863  0.01306188
   0.50005264  0.98390024  0.48759471
   0.50012237  0.48871070  0.98442645
   0.50701615  0.50927853  0.50958057
   0.75259414  0.49925506  0.49975127
   0.99998803  0.75145901  0.99997385
   0.50042117  0.24986669  0.99948546
   0.49918872  0.75187240  0.50025649
   0.99965421  0.00186610  0.74811618
   0.00128043  0.49856121  0.24881003
   0.50034787  0.99983345  0.24962565
   0.49878287  0.50028645  0.75070355
   0.24804018  0.00086404  0.99977369
   0.24648974  0.00321681  0.49883736
   0.24904821  0.50033106  0.99882447
   0.24662672  0.49806694  0.50013209
   0.75205483  0.00082038  0.99981826
   0.75467258  0.00365306  0.49860947
   0.75185719  0.50023644  0.99864869
   0.99994188  0.24805983  0.99923175
   0.00480163  0.24764780  0.49760571
   0.00489344  0.75389958  0.49789966
   0.49798289  0.24686603  0.50088227
   0.50043156  0.75151842  0.99912359
   0.99969404  0.00419158  0.25327065
   0.00416642  0.49626049  0.75035945
   0.50043259  0.99992562  0.74996537
   0.49677437  0.50098682  0.24725086
 
 position of ions in cartesian coordinates  (Angst):
   7.81989341  7.59016450  7.63025663
   0.00687167  0.01278674  3.97850352
   0.00671713  3.92393817  0.11833930
   7.67019238  3.85954882  3.76028503
   3.91031661  0.11798387  0.10083076
   3.90996916  7.59361553  3.74325012
   3.91156108  3.77432523  7.55134746
   3.96484672  3.93128242  3.91013008
   5.88514647  3.85369197  3.83501914
   7.82007361  5.80144988  7.67213692
   3.91411714  1.93134580  7.66595819
   3.90342450  5.80322506  3.83950136
   7.81777228  0.01630559  5.73807139
   0.00991010  3.84805163  1.90978404
   3.91196207  7.71568745  1.91847026
   3.90078020  3.86278993  5.75911093
   1.94082634  0.01013755  7.66695504
   1.92806432  0.02644978  3.82558952
   1.94828837  3.86425961  7.66149218
   1.92872186  3.84495467  3.83731635
   5.88198278  0.00937310  7.66791298
   5.90181326  0.02938396  3.82446502
   5.88001681  3.86310207  7.66075875
   7.82013419  1.91697836  7.66461698
   0.03797080  1.91279677  3.81673741
   0.03826436  5.81927858  3.82083120
   3.89442004  1.90635772  3.84246361
   3.91377698  5.80232918  7.66500608
   7.81745315  0.03242825  1.94341435
   0.03311630  3.83214220  5.75585273
   3.91326009  7.71824058  5.75526785
   3.88443452  3.86634259  1.89844244
 


--------------------------------------------------------------------------------------------------------


 k-point  1 :   0.2500 0.2500 0.2500  plane waves:   19467
 k-point  2 :  -0.2500 0.2500 0.2500  plane waves:   19471
 k-point  3 :   0.2500-0.2500 0.2500  plane waves:   19468
 k-point  4 :  -0.2500-0.2500 0.2500  plane waves:   19473

 maximum and minimum number of plane-waves per node :      2458     2411

 maximum number of plane-waves:     19473
 maximum index in each direction: 
   IXMAX=   17   IYMAX=   16   IZMAX=   16
   IXMIN=  -17   IYMIN=  -16   IZMIN=  -16


 real space projection operators:
  total allocation   :      18499.41 KBytes
  max/ min on nodes  :       2458.50       1924.30


 parallel 3D FFT for wavefunctions:
    minimum data exchange during FFTs selected (reduces bandwidth)
 parallel 3D FFT for charge:
    minimum data exchange during FFTs selected (reduces bandwidth)


 total amount of memory used by VASP MPI-rank0    62255. kBytes
=======================================================================

   base      :      30000. kBytes
   nonlr-proj:       8578. kBytes
   fftplans  :       8422. kBytes
   grid      :       8783. kBytes
   one-center:        124. kBytes
   wavefun   :       6348. kBytes
 
     INWAV:  cpu time    3.6974: real time    8.5258
 Broyden mixing: mesh for mixing (old mesh)
   NGX = 33   NGY = 33   NGZ = 33
  (NGX  =140   NGY  =140   NGZ  =140)
  gives a total of  35937 points

 charge density for first step will be calculated from the start-wavefunctions


--------------------------------------------------------------------------------------------------------


 Maximum index for non-local projection operator         1385
 Maximum index for augmentation-charges         7785 (set IRDMAX)


--------------------------------------------------------------------------------------------------------


 initial charge from wavefunction
 First call to EWALD:  gamma=   0.229
 Maximum number of real-space cells 3x 3x 3
 Maximum number of reciprocal cells 3x 3x 3

    FEWALD:  cpu time    0.0030: real time    0.0036


--------------------------------------- Iteration      1(   1)  ---------------------------------------


    POTLOK:  cpu time    0.1500: real time    0.1874
    SETDIJ:  cpu time    0.8269: real time    0.8370
     EDDAV:  cpu time    3.4995: real time    3.5052
       DOS:  cpu time    0.0010: real time    0.0008
    CHARGE:  cpu time    0.3709: real time    0.3799
    MIXING:  cpu time    0.0010: real time    0.0020
    --------------------------------------------
      LOOP:  cpu time    4.8493: real time    4.9123

 eigenvalue-minimisations  :  2560
 total energy-change (2. order) :-0.2133016E+03  (-0.7061776E-01)
 number of electron     240.0000004 magnetization       0.0000000
 augmentation part       61.9720718 magnetization       0.0000000

 Broyden mixing:
  rms(total) = 0.71016E-02    rms(broyden)= 0.66716E-02
  rms(prec ) = 0.70234E-02
  weight for this iteration     100.00

 Free energy of the ion-electron system (eV)
  ---------------------------------------------------
  alpha Z        PSCENC =       756.78188235
  Ewald energy   TEWEN  =    -12785.54799480
  -Hartree energ DENC   =     -8249.00609517
  -exchange      EXHF   =         0.00000000
  -V(xc)+E(xc)   XCENC  =      1119.89838113
  PAW double counting   =     18031.57626640   -18154.78365837
  entropy T*S    EENTRO =        -0.00000000
  eigenvalues    EBANDS =     -3234.57355892
  atomic energy  EATOM  =     22302.35321627
  Solvation  Ediel_sol  =         0.00000000
  ---------------------------------------------------
  free energy    TOTEN  =      -213.30156111 eV

  energy without entropy =     -213.30156111  energy(sigma->0) =     -213.30156111


--------------------------------------------------------------------------------------------------------




--------------------------------------- Iteration      1(   2)  ---------------------------------------


    POTLOK:  cpu time    0.1600: real time    0.1748
    SETDIJ:  cpu time    0.8379: real time    0.8365
     EDDAV:  cpu time    3.5155: real time    3.5132
       DOS:  cpu time    0.0010: real time    0.0010
    CHARGE:  cpu time    0.3879: real time    0.3855
    MIXING:  cpu time    0.0020: real time    0.0024
    --------------------------------------------
      LOOP:  cpu time    4.9043: real time    4.9134

 eigenvalue-minimisations  :  2560
 total energy-change (2. order) :-0.8549545E-04  (-0.2740237E-05)
 number of electron     240.0000004 magnetization       0.0000000
 augmentation part       61.9728716 magnetization      -0.0000000

 Broyden mixing:
  rms(total) = 0.39942E-02    rms(broyden)= 0.39646E-02
  rms(prec ) = 0.41709E-02
  weight for this iteration     100.00

 eigenvalues of (default mixing * dielectric matrix)
  average eigenvalue GAMMA=   2.3370
  2.3370

 Free energy of the ion-electron system (eV)
  ---------------------------------------------------
  alpha Z        PSCENC =       756.78188235
  Ewald energy   TEWEN  =    -12785.54799480
  -Hartree energ DENC   =     -8248.94571789
  -exchange      EXHF   =         0.00000000
  -V(xc)+E(xc)   XCENC  =      1119.89492319
  PAW double counting   =     18032.29242152   -18155.48534004
  entropy T*S    EENTRO =        -0.00000000
  eigenvalues    EBANDS =     -3234.64503721
  atomic energy  EATOM  =     22302.35321627
  Solvation  Ediel_sol  =         0.00000000
  ---------------------------------------------------
  free energy    TOTEN  =      -213.30164660 eV

  energy without entropy =     -213.30164660  energy(sigma->0) =     -213.30164660


--------------------------------------------------------------------------------------------------------




--------------------------------------- Iteration      1(   3)  ---------------------------------------


    POTLOK:  cpu time    0.2270: real time    0.2462
    SETDIJ:  cpu time    0.8389: real time    0.8369
     EDDAV:  cpu time    3.3345: real time    3.3574
       DOS:  cpu time    0.0010: real time    0.0009
    CHARGE:  cpu time    0.3839: real time    0.3818
    MIXING:  cpu time    0.0030: real time    0.0025
    --------------------------------------------
      LOOP:  cpu time    4.7883: real time    4.8256

 eigenvalue-minimisations  :  2400
 total energy-change (2. order) :-0.9600918E-04  (-0.1791649E-05)
 number of electron     240.0000004 magnetization       0.0000000
 augmentation part       61.9733404 magnetization      -0.0000000

 Broyden mixing:
  rms(total) = 0.48597E-03    rms(broyden)= 0.47462E-03
  rms(prec ) = 0.58643E-03
  weight for this iteration     100.00

 eigenvalues of (default mixing * dielectric matrix)
  average eigenvalue GAMMA=   1.7271
  0.9661  2.4881

 Free energy of the ion-electron system (eV)
  ---------------------------------------------------
  alpha Z        PSCENC =       756.78188235
  Ewald energy   TEWEN  =    -12785.54799480
  -Hartree energ DENC   =     -8248.98643698
  -exchange      EXHF   =         0.00000000
  -V(xc)+E(xc)   XCENC  =      1119.89812659
  PAW double counting   =     18033.31528463   -18156.49426804
  entropy T*S    EENTRO =        -0.00000000
  eigenvalues    EBANDS =     -3234.62155263
  atomic energy  EATOM  =     22302.35321627
  Solvation  Ediel_sol  =         0.00000000
  ---------------------------------------------------
  free energy    TOTEN  =      -213.30174261 eV

  energy without entropy =     -213.30174261  energy(sigma->0) =     -213.30174261


--------------------------------------------------------------------------------------------------------




--------------------------------------- Iteration      1(   4)  ---------------------------------------


    POTLOK:  cpu time    0.2920: real time    0.3009
    SETDIJ:  cpu time    0.8359: real time    0.8416
     EDDAV:  cpu time    2.5206: real time    2.5182
       DOS:  cpu time    0.0010: real time    0.0009
    CHARGE:  cpu time    0.3849: real time    0.3832
    MIXING:  cpu time    0.0020: real time    0.0027
    --------------------------------------------
      LOOP:  cpu time    4.0364: real time    4.0477

 eigenvalue-minimisations  :  1408
 total energy-change (2. order) :-0.1149056E-05  (-0.9255360E-07)
 number of electron     240.0000004 magnetization       0.0000000
 augmentation part       61.9729926 magnetization      -0.0000000

 Broyden mixing:
  rms(total) = 0.18326E-03    rms(broyden)= 0.17967E-03
  rms(prec ) = 0.24987E-03
  weight for this iteration     100.00

 eigenvalues of (default mixing * dielectric matrix)
  average eigenvalue GAMMA=   1.4216
  2.5011  1.1041  0.6595

 Free energy of the ion-electron system (eV)
  ---------------------------------------------------
  alpha Z        PSCENC =       756.78188235
  Ewald energy   TEWEN  =    -12785.54799480
  -Hartree energ DENC   =     -8249.00361082
  -exchange      EXHF   =         0.00000000
  -V(xc)+E(xc)   XCENC  =      1119.89877270
  PAW double counting   =     18033.34856616   -18156.52577859
  entropy T*S    EENTRO =        -0.00000000
  eigenvalues    EBANDS =     -3234.60679704
  atomic energy  EATOM  =     22302.35321627
  Solvation  Ediel_sol  =         0.00000000
  ---------------------------------------------------
  free energy    TOTEN  =      -213.30174376 eV

  energy without entropy =     -213.30174376  energy(sigma->0) =     -213.30174376


--------------------------------------------------------------------------------------------------------




--------------------------------------- Iteration      1(   5)  ---------------------------------------


    POTLOK:  cpu time    0.2920: real time    0.3004
    SETDIJ:  cpu time    0.8429: real time    0.8407
     EDDAV:  cpu time    2.2377: real time    2.2653
       DOS:  cpu time    0.0010: real time    0.0009
    --------------------------------------------
      LOOP:  cpu time    3.3735: real time    3.4073

 eigenvalue-minimisations  :  1280
 total energy-change (2. order) :-0.4423055E-07  (-0.2752002E-07)
 number of electron     240.0000004 magnetization       0.0000000
 augmentation part       61.9729926 magnetization      -0.0000000

 Free energy of the ion-electron system (eV)
  ---------------------------------------------------
  alpha Z        PSCENC =       756.78188235
  Ewald energy   TEWEN  =    -12785.54799480
  -Hartree energ DENC   =     -8249.00764388
  -exchange      EXHF   =         0.00000000
  -V(xc)+E(xc)   XCENC  =      1119.89908574
  PAW double counting   =     18033.31377472   -18156.49111595
  entropy T*S    EENTRO =        -0.00000000
  eigenvalues    EBANDS =     -3234.60294826
  atomic energy  EATOM  =     22302.35321627
  Solvation  Ediel_sol  =         0.00000000
  ---------------------------------------------------
  free energy    TOTEN  =      -213.30174381 eV

  energy without entropy =     -213.30174381  energy(sigma->0) =     -213.30174381


--------------------------------------------------------------------------------------------------------




 average (electrostatic) potential at core
  the test charge radii are     1.0397  0.7215  0.7167
  (the norm of the test charge is              1.0000)
       1 -59.1906       2 -59.5736       3 -58.9637       4 -58.7376       5 -58.7297
       6 -58.6720       7 -58.6310       8 -58.4878       9 -73.9029      10 -74.3257
      11 -73.9371      12 -73.8800      13 -74.6771      14 -74.1566      15 -74.0017
      16 -73.8535      17 -79.4898      18 -79.6399      19 -79.3043      20 -78.1816
      21 -79.4887      22 -79.6433      23 -79.2913      24 -78.7600      25 -79.8207
      26 -79.8129      27 -78.3661      28 -78.4333      29 -79.0991      30 -78.7098
      31 -78.6179      32 -78.4077
 
 
 
 E-fermi :  -0.4522     XC(G=0):  -8.9641     alpha+bet : -7.6368


 spin component 1

 k-point     1 :       0.2500    0.2500    0.2500
  band No.  band energies     occupation 
      1     -35.5873      1.00000
      2     -35.5724      1.00000
      3     -35.3903      1.00000
      4     -35.2047      1.00000
      5     -35.0621      1.00000
      6     -35.0088      1.00000
      7     -34.9646      1.00000
      8     -34.8328      1.00000
      9     -34.8112      1.00000
     10     -34.7986      1.00000
     11     -34.7802      1.00000
     12     -34.7297      1.00000
     13     -34.6642      1.00000
     14     -34.6190      1.00000
     15     -34.6113      1.00000
     16     -34.5731      1.00000
     17     -34.5522      1.00000
     18     -34.5340      1.00000
     19     -34.5018      1.00000
     20     -34.4923      1.00000
     21     -34.4641      1.00000
     22     -34.3542      1.00000
     23     -34.3330      1.00000
     24     -34.3241      1.00000
     25     -23.6870      1.00000
     26     -23.4201      1.00000
     27     -23.3056      1.00000
     28     -23.2580      1.00000
     29     -23.1147      1.00000
     30     -23.1054      1.00000
     31     -22.9625      1.00000
     32     -22.7725      1.00000
     33     -22.7518      1.00000
     34     -22.4377      1.00000
     35     -22.3365      1.00000
     36     -22.3041      1.00000
     37     -22.1329      1.00000
     38     -22.0667      1.00000
     39     -21.9735      1.00000
     40     -21.8033      1.00000
     41     -17.1409      1.00000
     42     -16.8136      1.00000
     43     -16.6293      1.00000
     44     -16.5893      1.00000
     45     -16.4535      1.00000
     46     -16.4163      1.00000
     47     -16.2551      1.00000
     48     -16.2228      1.00000
     49      -7.1833      1.00000
     50      -6.9425      1.00000
     51      -6.8060      1.00000
     52      -6.6196      1.00000
     53      -6.2593      1.00000
     54      -6.0763      1.00000
     55      -5.9453      1.00000
     56      -5.8911      1.00000
     57      -5.7840      1.00000
     58      -5.7576      1.00000
     59      -5.7042      1.00000
     60      -5.6653      1.00000
     61      -5.5895      1.00000
     62      -5.4970      1.00000
     63      -5.4745      1.00000
     64      -5.4240      1.00000
     65      -5.4057      1.00000
     66      -5.3719      1.00000
     67      -5.2077      1.00000
     68      -5.1894      1.00000
     69      -4.9280      1.00000
     70      -4.9025      1.00000
     71      -4.8362      1.00000
     72      -4.7351      1.00000
     73      -4.6857      1.00000
     74      -4.6633      1.00000
     75      -4.6318      1.00000
     76      -4.6015      1.00000
     77      -4.5438      1.00000
     78      -4.4922      1.00000
     79      -4.4527      1.00000
     80      -4.3771      1.00000
     81      -4.2727      1.00000
     82      -4.1431      1.00000
     83      -3.9916      1.00000
     84      -3.9561      1.00000
     85      -3.8217      1.00000
     86      -3.7765      1.00000
     87      -3.7153      1.00000
     88      -3.7007      1.00000
     89      -3.6575      1.00000
     90      -3.6407      1.00000
     91      -3.5700      1.00000
     92      -3.4992      1.00000
     93      -3.4364      1.00000
     94      -3.3783      1.00000
     95      -3.3481      1.00000
     96      -3.3048      1.00000
     97      -3.2506      1.00000
     98      -3.2347      1.00000
     99      -3.1456      1.00000
    100      -3.1007      1.00000
    101      -3.0490      1.00000
    102      -2.7938      1.00000
    103      -2.7395      1.00000
    104      -2.6899      1.00000
    105      -2.5687      1.00000
    106      -2.4859      1.00000
    107      -2.4564      1.00000
    108      -2.3494      1.00000
    109      -2.3097      1.00000
    110      -2.1813      1.00000
    111      -2.1707      1.00000
    112      -1.8970      1.00000
    113      -1.8779      1.00000
    114      -1.7924      1.00000
    115      -1.7261      1.00000
    116      -1.7065      1.00000
    117      -1.3864      1.00000
    118      -1.3054      1.00000
    119      -0.9795      1.00000
    120      -0.4972      1.00000
    121       1.9288      0.00000
    122       1.9420      0.00000
    123       2.0212      0.00000
    124       2.1562      0.00000
    125       2.3474      0.00000
    126       2.4103      0.00000
    127       2.6100      0.00000
    128       2.6873      0.00000
    129       2.7216      0.00000
    130       2.7553      0.00000
    131       3.0471      0.00000
    132       3.0804      0.00000
    133       3.0914      0.00000
    134       3.1159      0.00000
    135       3.2969      0.00000
    136       3.3377      0.00000
    137       3.4215      0.00000
    138       3.4859      0.00000
    139       3.5437      0.00000
    140       3.6010      0.00000
    141       3.6508      0.00000
    142       3.6661      0.00000
    143       3.7720      0.00000
    144       3.7751      0.00000
    145       3.8344      0.00000
    146       3.9731      0.00000
    147       4.0246      0.00000
    148       4.1369      0.00000
    149       4.1582      0.00000
    150       4.2841      0.00000
    151       4.3608      0.00000
    152       4.4916      0.00000
    153       4.8656      0.00000
    154       5.1640      0.00000
    155       5.3576      0.00000
    156       5.7489      0.00000
    157       5.9394      0.00000
    158       6.1266      0.00000
    159       6.4859      0.00000
    160       6.5742      0.00000

 k-point     2 :      -0.2500    0.2500    0.2500
  band No.  band energies     occupation 
      1     -35.5873      1.00000
      2     -35.5724      1.00000
      3     -35.3903      1.00000
      4     -35.2047      1.00000
      5     -35.0621      1.00000
      6     -35.0088      1.00000
      7     -34.9646      1.00000
      8     -34.8328      1.00000
      9     -34.8112      1.00000
     10     -34.7986      1.00000
     11     -34.7802      1.00000
     12     -34.7297      1.00000
     13     -34.6642      1.00000
     14     -34.6190      1.00000
     15     -34.6113      1.00000
     16     -34.5731      1.00000
     17     -34.5522      1.00000
     18     -34.5340      1.00000
     19     -34.5018      1.00000
     20     -34.4923      1.00000
     21     -34.4641      1.00000
     22     -34.3542      1.00000
     23     -34.3330      1.00000
     24     -34.3241      1.00000
     25     -23.6870      1.00000
     26     -23.4200      1.00000
     27     -23.3056      1.00000
     28     -23.2581      1.00000
     29     -23.1147      1.00000
     30     -23.1054      1.00000
     31     -22.9625      1.00000
     32     -22.7725      1.00000
     33     -22.7518      1.00000
     34     -22.4378      1.00000
     35     -22.3366      1.00000
     36     -22.3041      1.00000
     37     -22.1326      1.00000
     38     -22.0668      1.00000
     39     -21.9735      1.00000
     40     -21.8034      1.00000
     41     -17.1409      1.00000
     42     -16.8137      1.00000
     43     -16.6298      1.00000
     44     -16.5889      1.00000
     45     -16.4528      1.00000
     46     -16.4164      1.00000
     47     -16.2554      1.00000
     48     -16.2229      1.00000
     49      -7.1827      1.00000
     50      -6.9438      1.00000
     51      -6.8059      1.00000
     52      -6.6195      1.00000
     53      -6.2590      1.00000
     54      -6.0766      1.00000
     55      -5.9442      1.00000
     56      -5.8882      1.00000
     57      -5.7828      1.00000
     58      -5.7572      1.00000
     59      -5.6892      1.00000
     60      -5.6648      1.00000
     61      -5.5876      1.00000
     62      -5.5099      1.00000
     63      -5.4725      1.00000
     64      -5.4245      1.00000
     65      -5.4071      1.00000
     66      -5.3797      1.00000
     67      -5.2264      1.00000
     68      -5.1891      1.00000
     69      -4.9419      1.00000
     70      -4.9180      1.00000
     71      -4.8349      1.00000
     72      -4.7361      1.00000
     73      -4.6855      1.00000
     74      -4.6389      1.00000
     75      -4.6267      1.00000
     76      -4.5949      1.00000
     77      -4.5441      1.00000
     78      -4.4904      1.00000
     79      -4.4455      1.00000
     80      -4.3527      1.00000
     81      -4.2718      1.00000
     82      -4.1451      1.00000
     83      -4.0486      1.00000
     84      -3.9652      1.00000
     85      -3.8122      1.00000
     86      -3.7603      1.00000
     87      -3.7102      1.00000
     88      -3.6962      1.00000
     89      -3.6419      1.00000
     90      -3.6116      1.00000
     91      -3.5332      1.00000
     92      -3.4893      1.00000
     93      -3.4186      1.00000
     94      -3.3821      1.00000
     95      -3.3310      1.00000
     96      -3.2998      1.00000
     97      -3.2533      1.00000
     98      -3.2263      1.00000
     99      -3.2050      1.00000
    100      -3.1105      1.00000
    101      -3.0529      1.00000
    102      -2.8491      1.00000
    103      -2.7843      1.00000
    104      -2.7322      1.00000
    105      -2.5685      1.00000
    106      -2.4803      1.00000
    107      -2.4560      1.00000
    108      -2.4099      1.00000
    109      -2.3228      1.00000
    110      -2.1543      1.00000
    111      -2.1242      1.00000
    112      -1.8947      1.00000
    113      -1.8001      1.00000
    114      -1.7471      1.00000
    115      -1.7230      1.00000
    116      -1.6361      1.00000
    117      -1.3911      1.00000
    118      -1.3243      1.00000
    119      -1.0818      1.00000
    120      -0.4984      1.00000
    121       1.9304      0.00000
    122       1.9420      0.00000
    123       2.0405      0.00000
    124       2.1575      0.00000
    125       2.4085      0.00000
    126       2.4256      0.00000
    127       2.6058      0.00000
    128       2.6423      0.00000
    129       2.7185      0.00000
    130       2.7584      0.00000
    131       2.9661      0.00000
    132       3.0737      0.00000
    133       3.0854      0.00000
    134       3.1761      0.00000
    135       3.2897      0.00000
    136       3.3238      0.00000
    137       3.3691      0.00000
    138       3.4916      0.00000
    139       3.5850      0.00000
    140       3.6070      0.00000
    141       3.6507      0.00000
    142       3.6635      0.00000
    143       3.7450      0.00000
    144       3.7727      0.00000
    145       3.8396      0.00000
    146       4.0124      0.00000
    147       4.0452      0.00000
    148       4.1259      0.00000
    149       4.1724      0.00000
    150       4.2836      0.00000
    151       4.3687      0.00000
    152       4.4407      0.00000
    153       4.8971      0.00000
    154       5.1609      0.00000
    155       5.3782      0.00000
    156       5.7416      0.00000
    157       5.9408      0.00000
    158       6.1267      0.00000
    159       6.4693      0.00000
    160       6.5613      0.00000

 k-point     3 :       0.2500   -0.2500    0.2500
  band No.  band energies     occupation 
      1     -35.5873      1.00000
      2     -35.5724      1.00000
      3     -35.3903      1.00000
      4     -35.2047      1.00000
      5     -35.0621      1.00000
      6     -35.0088      1.00000
      7     -34.9646      1.00000
      8     -34.8328      1.00000
      9     -34.8112      1.00000
     10     -34.7986      1.00000
     11     -34.7802      1.00000
     12     -34.7297      1.00000
     13     -34.6642      1.00000
     14     -34.6190      1.00000
     15     -34.6113      1.00000
     16     -34.5730      1.00000
     17     -34.5522      1.00000
     18     -34.5341      1.00000
     19     -34.5017      1.00000
     20     -34.4923      1.00000
     21     -34.4641      1.00000
     22     -34.3542      1.00000
     23     -34.3330      1.00000
     24     -34.3241      1.00000
     25     -23.6870      1.00000
     26     -23.4201      1.00000
     27     -23.3057      1.00000
     28     -23.2580      1.00000
     29     -23.1147      1.00000
     30     -23.1053      1.00000
     31     -22.9625      1.00000
     32     -22.7725      1.00000
     33     -22.7518      1.00000
     34     -22.4372      1.00000
     35     -22.3369      1.00000
     36     -22.3022      1.00000
     37     -22.1470      1.00000
     38     -22.0457      1.00000
     39     -21.9826      1.00000
     40     -21.8031      1.00000
     41     -17.1411      1.00000
     42     -16.8130      1.00000
     43     -16.6277      1.00000
     44     -16.5742      1.00000
     45     -16.5096      1.00000
     46     -16.3672      1.00000
     47     -16.2533      1.00000
     48     -16.2347      1.00000
     49      -7.1824      1.00000
     50      -6.9437      1.00000
     51      -6.8059      1.00000
     52      -6.6196      1.00000
     53      -6.2568      1.00000
     54      -6.0684      1.00000
     55      -5.9427      1.00000
     56      -5.9007      1.00000
     57      -5.7763      1.00000
     58      -5.7565      1.00000
     59      -5.6884      1.00000
     60      -5.6650      1.00000
     61      -5.5972      1.00000
     62      -5.4986      1.00000
     63      -5.4780      1.00000
     64      -5.4510      1.00000
     65      -5.4056      1.00000
     66      -5.3828      1.00000
     67      -5.2247      1.00000
     68      -5.1864      1.00000
     69      -4.9122      1.00000
     70      -4.8928      1.00000
     71      -4.8368      1.00000
     72      -4.7390      1.00000
     73      -4.6984      1.00000
     74      -4.6487      1.00000
     75      -4.6258      1.00000
     76      -4.6200      1.00000
     77      -4.5425      1.00000
     78      -4.4833      1.00000
     79      -4.4449      1.00000
     80      -4.3753      1.00000
     81      -4.2732      1.00000
     82      -4.1497      1.00000
     83      -3.9811      1.00000
     84      -3.9546      1.00000
     85      -3.8874      1.00000
     86      -3.7615      1.00000
     87      -3.7086      1.00000
     88      -3.6938      1.00000
     89      -3.6511      1.00000
     90      -3.5927      1.00000
     91      -3.5506      1.00000
     92      -3.4589      1.00000
     93      -3.4196      1.00000
     94      -3.3908      1.00000
     95      -3.3233      1.00000
     96      -3.2719      1.00000
     97      -3.2387      1.00000
     98      -3.1971      1.00000
     99      -3.1262      1.00000
    100      -3.0506      1.00000
    101      -2.9944      1.00000
    102      -2.8967      1.00000
    103      -2.8380      1.00000
    104      -2.7886      1.00000
    105      -2.7175      1.00000
    106      -2.6818      1.00000
    107      -2.4756      1.00000
    108      -2.3168      1.00000
    109      -2.1836      1.00000
    110      -2.1519      1.00000
    111      -2.0804      1.00000
    112      -1.9146      1.00000
    113      -1.9012      1.00000
    114      -1.8663      1.00000
    115      -1.7017      1.00000
    116      -1.4741      1.00000
    117      -1.3521      1.00000
    118      -1.1566      1.00000
    119      -0.9691      1.00000
    120      -0.8106      1.00000
    121       1.9402      0.00000
    122       2.0098      0.00000
    123       2.0431      0.00000
    124       2.1568      0.00000
    125       2.3473      0.00000
    126       2.5985      0.00000
    127       2.6166      0.00000
    128       2.6496      0.00000
    129       2.6531      0.00000
    130       2.7195      0.00000
    131       3.0730      0.00000
    132       3.0868      0.00000
    133       3.1185      0.00000
    134       3.1395      0.00000
    135       3.1859      0.00000
    136       3.2758      0.00000
    137       3.3206      0.00000
    138       3.3819      0.00000
    139       3.4771      0.00000
    140       3.5435      0.00000
    141       3.6783      0.00000
    142       3.7419      0.00000
    143       3.7900      0.00000
    144       3.8274      0.00000
    145       3.9288      0.00000
    146       4.0019      0.00000
    147       4.0529      0.00000
    148       4.1293      0.00000
    149       4.2031      0.00000
    150       4.2675      0.00000
    151       4.3963      0.00000
    152       4.4514      0.00000
    153       4.8471      0.00000
    154       5.1507      0.00000
    155       5.3676      0.00000
    156       5.7349      0.00000
    157       5.9833      0.00000
    158       6.1429      0.00000
    159       6.4814      0.00000
    160       6.5657      0.00000

 k-point     4 :      -0.2500   -0.2500    0.2500
  band No.  band energies     occupation 
      1     -35.5873      1.00000
      2     -35.5724      1.00000
      3     -35.3903      1.00000
      4     -35.2047      1.00000
      5     -35.0621      1.00000
      6     -35.0088      1.00000
      7     -34.9646      1.00000
      8     -34.8328      1.00000
      9     -34.8112      1.00000
     10     -34.7986      1.00000
     11     -34.7802      1.00000
     12     -34.7297      1.00000
     13     -34.6642      1.00000
     14     -34.6190      1.00000
     15     -34.6113      1.00000
     16     -34.5730      1.00000
     17     -34.5522      1.00000
     18     -34.5341      1.00000
     19     -34.5017      1.00000
     20     -34.4923      1.00000
     21     -34.4641      1.00000
     22     -34.3542      1.00000
     23     -34.3330      1.00000
     24     -34.3241      1.00000
     25     -23.6870      1.00000
     26     -23.4201      1.00000
     27     -23.3057      1.00000
     28     -23.2579      1.00000
     29     -23.1147      1.00000
     30     -23.1054      1.00000
     31     -22.9625      1.00000
     32     -22.7725      1.00000
     33     -22.7518      1.00000
     34     -22.4373      1.00000
     35     -22.3370      1.00000
     36     -22.3022      1.00000
     37     -22.1466      1.00000
     38     -22.0458      1.00000
     39     -21.9826      1.00000
     40     -21.8032      1.00000
     41     -17.1411      1.00000
     42     -16.8130      1.00000
     43     -16.6284      1.00000
     44     -16.5739      1.00000
     45     -16.5087      1.00000
     46     -16.3673      1.00000
     47     -16.2531      1.00000
     48     -16.2351      1.00000
     49      -7.1831      1.00000
     50      -6.9426      1.00000
     51      -6.8059      1.00000
     52      -6.6193      1.00000
     53      -6.2567      1.00000
     54      -6.0677      1.00000
     55      -5.9456      1.00000
     56      -5.8996      1.00000
     57      -5.7789      1.00000
     58      -5.7547      1.00000
     59      -5.7008      1.00000
     60      -5.6654      1.00000
     61      -5.5907      1.00000
     62      -5.5010      1.00000
     63      -5.4688      1.00000
     64      -5.4520      1.00000
     65      -5.4049      1.00000
     66      -5.3719      1.00000
     67      -5.2100      1.00000
     68      -5.1879      1.00000
     69      -4.9403      1.00000
     70      -4.8928      1.00000
     71      -4.8373      1.00000
     72      -4.7402      1.00000
     73      -4.6955      1.00000
     74      -4.6661      1.00000
     75      -4.6359      1.00000
     76      -4.6199      1.00000
     77      -4.5442      1.00000
     78      -4.4814      1.00000
     79      -4.4350      1.00000
     80      -4.3503      1.00000
     81      -4.2765      1.00000
     82      -4.1397      1.00000
     83      -4.0367      1.00000
     84      -3.9556      1.00000
     85      -3.9038      1.00000
     86      -3.7366      1.00000
     87      -3.7144      1.00000
     88      -3.6788      1.00000
     89      -3.6512      1.00000
     90      -3.5648      1.00000
     91      -3.5153      1.00000
     92      -3.4281      1.00000
     93      -3.4147      1.00000
     94      -3.3710      1.00000
     95      -3.2967      1.00000
     96      -3.2767      1.00000
     97      -3.2520      1.00000
     98      -3.1973      1.00000
     99      -3.1849      1.00000
    100      -3.0476      1.00000
    101      -2.9956      1.00000
    102      -2.8931      1.00000
    103      -2.8404      1.00000
    104      -2.7886      1.00000
    105      -2.7462      1.00000
    106      -2.6960      1.00000
    107      -2.4804      1.00000
    108      -2.4095      1.00000
    109      -2.2041      1.00000
    110      -2.1502      1.00000
    111      -2.0960      1.00000
    112      -1.9129      1.00000
    113      -1.8849      1.00000
    114      -1.7552      1.00000
    115      -1.6333      1.00000
    116      -1.4665      1.00000
    117      -1.3313      1.00000
    118      -1.1653      1.00000
    119      -1.0617      1.00000
    120      -0.8105      1.00000
    121       1.9415      0.00000
    122       2.0107      0.00000
    123       2.0223      0.00000
    124       2.1555      0.00000
    125       2.4235      0.00000
    126       2.5998      0.00000
    127       2.6162      0.00000
    128       2.6496      0.00000
    129       2.6939      0.00000
    130       2.7231      0.00000
    131       2.9640      0.00000
    132       3.0693      0.00000
    133       3.0868      0.00000
    134       3.1204      0.00000
    135       3.1458      0.00000
    136       3.3056      0.00000
    137       3.3509      0.00000
    138       3.4126      0.00000
    139       3.4945      0.00000
    140       3.5865      0.00000
    141       3.6721      0.00000
    142       3.7134      0.00000
    143       3.7798      0.00000
    144       3.8412      0.00000
    145       3.9216      0.00000
    146       3.9961      0.00000
    147       4.0520      0.00000
    148       4.1555      0.00000
    149       4.2281      0.00000
    150       4.2726      0.00000
    151       4.3526      0.00000
    152       4.4664      0.00000
    153       4.8267      0.00000
    154       5.1044      0.00000
    155       5.4382      0.00000
    156       5.7537      0.00000
    157       5.9560      0.00000
    158       6.1506      0.00000
    159       6.4690      0.00000
    160       6.5630      0.00000

 spin component 2

 k-point     1 :       0.2500    0.2500    0.2500
  band No.  band energies     occupation 
      1     -35.5873      1.00000
      2     -35.5724      1.00000
      3     -35.3903      1.00000
      4     -35.2047      1.00000
      5     -35.0621      1.00000
      6     -35.0088      1.00000
      7     -34.9646      1.00000
      8     -34.8328      1.00000
      9     -34.8112      1.00000
     10     -34.7986      1.00000
     11     -34.7802      1.00000
     12     -34.7297      1.00000
     13     -34.6642      1.00000
     14     -34.6190      1.00000
     15     -34.6113      1.00000
     16     -34.5731      1.00000
     17     -34.5522      1.00000
     18     -34.5340      1.00000
     19     -34.5018      1.00000
     20     -34.4923      1.00000
     21     -34.4641      1.00000
     22     -34.3542      1.00000
     23     -34.3330      1.00000
     24     -34.3241      1.00000
     25     -23.6870      1.00000
     26     -23.4201      1.00000
     27     -23.3056      1.00000
     28     -23.2580      1.00000
     29     -23.1147      1.00000
     30     -23.1054      1.00000
     31     -22.9625      1.00000
     32     -22.7725      1.00000
     33     -22.7518      1.00000
     34     -22.4377      1.00000
     35     -22.3365      1.00000
     36     -22.3041      1.00000
     37     -22.1329      1.00000
     38     -22.0667      1.00000
     39     -21.9735      1.00000
     40     -21.8033      1.00000
     41     -17.1409      1.00000
     42     -16.8136      1.00000
     43     -16.6293      1.00000
     44     -16.5893      1.00000
     45     -16.4535      1.00000
     46     -16.4163      1.00000
     47     -16.2551      1.00000
     48     -16.2228      1.00000
     49      -7.1833      1.00000
     50      -6.9425      1.00000
     51      -6.8060      1.00000
     52      -6.6196      1.00000
     53      -6.2593      1.00000
     54      -6.0763      1.00000
     55      -5.9453      1.00000
     56      -5.8911      1.00000
     57      -5.7840      1.00000
     58      -5.7576      1.00000
     59      -5.7042      1.00000
     60      -5.6653      1.00000
     61      -5.5895      1.00000
     62      -5.4970      1.00000
     63      -5.4745      1.00000
     64      -5.4240      1.00000
     65      -5.4057      1.00000
     66      -5.3719      1.00000
     67      -5.2077      1.00000
     68      -5.1894      1.00000
     69      -4.9280      1.00000
     70      -4.9025      1.00000
     71      -4.8362      1.00000
     72      -4.7351      1.00000
     73      -4.6857      1.00000
     74      -4.6633      1.00000
     75      -4.6318      1.00000
     76      -4.6015      1.00000
     77      -4.5438      1.00000
     78      -4.4922      1.00000
     79      -4.4527      1.00000
     80      -4.3771      1.00000
     81      -4.2727      1.00000
     82      -4.1431      1.00000
     83      -3.9916      1.00000
     84      -3.9561      1.00000
     85      -3.8217      1.00000
     86      -3.7765      1.00000
     87      -3.7153      1.00000
     88      -3.7007      1.00000
     89      -3.6575      1.00000
     90      -3.6407      1.00000
     91      -3.5700      1.00000
     92      -3.4992      1.00000
     93      -3.4364      1.00000
     94      -3.3783      1.00000
     95      -3.3481      1.00000
     96      -3.3048      1.00000
     97      -3.2506      1.00000
     98      -3.2347      1.00000
     99      -3.1456      1.00000
    100      -3.1007      1.00000
    101      -3.0490      1.00000
    102      -2.7938      1.00000
    103      -2.7395      1.00000
    104      -2.6899      1.00000
    105      -2.5687      1.00000
    106      -2.4859      1.00000
    107      -2.4564      1.00000
    108      -2.3494      1.00000
    109      -2.3097      1.00000
    110      -2.1813      1.00000
    111      -2.1707      1.00000
    112      -1.8970      1.00000
    113      -1.8779      1.00000
    114      -1.7924      1.00000
    115      -1.7261      1.00000
    116      -1.7065      1.00000
    117      -1.3864      1.00000
    118      -1.3054      1.00000
    119      -0.9795      1.00000
    120      -0.4972      1.00000
    121       1.9288      0.00000
    122       1.9420      0.00000
    123       2.0212      0.00000
    124       2.1562      0.00000
    125       2.3474      0.00000
    126       2.4103      0.00000
    127       2.6100      0.00000
    128       2.6873      0.00000
    129       2.7216      0.00000
    130       2.7553      0.00000
    131       3.0471      0.00000
    132       3.0804      0.00000
    133       3.0914      0.00000
    134       3.1159      0.00000
    135       3.2969      0.00000
    136       3.3377      0.00000
    137       3.4215      0.00000
    138       3.4859      0.00000
    139       3.5437      0.00000
    140       3.6010      0.00000
    141       3.6508      0.00000
    142       3.6661      0.00000
    143       3.7720      0.00000
    144       3.7751      0.00000
    145       3.8344      0.00000
    146       3.9731      0.00000
    147       4.0246      0.00000
    148       4.1369      0.00000
    149       4.1582      0.00000
    150       4.2841      0.00000
    151       4.3608      0.00000
    152       4.4916      0.00000
    153       4.8656      0.00000
    154       5.1640      0.00000
    155       5.3576      0.00000
    156       5.7489      0.00000
    157       5.9394      0.00000
    158       6.1266      0.00000
    159       6.4859      0.00000
    160       6.5742      0.00000

 k-point     2 :      -0.2500    0.2500    0.2500
  band No.  band energies     occupation 
      1     -35.5873      1.00000
      2     -35.5724      1.00000
      3     -35.3903      1.00000
      4     -35.2047      1.00000
      5     -35.0621      1.00000
      6     -35.0088      1.00000
      7     -34.9646      1.00000
      8     -34.8328      1.00000
      9     -34.8112      1.00000
     10     -34.7986      1.00000
     11     -34.7802      1.00000
     12     -34.7297      1.00000
     13     -34.6642      1.00000
     14     -34.6190      1.00000
     15     -34.6113      1.00000
     16     -34.5731      1.00000
     17     -34.5522      1.00000
     18     -34.5340      1.00000
     19     -34.5018      1.00000
     20     -34.4923      1.00000
     21     -34.4641      1.00000
     22     -34.3542      1.00000
     23     -34.3330      1.00000
     24     -34.3241      1.00000
     25     -23.6870      1.00000
     26     -23.4200      1.00000
     27     -23.3056      1.00000
     28     -23.2581      1.00000
     29     -23.1147      1.00000
     30     -23.1054      1.00000
     31     -22.9625      1.00000
     32     -22.7725      1.00000
     33     -22.7518      1.00000
     34     -22.4378      1.00000
     35     -22.3366      1.00000
     36     -22.3041      1.00000
     37     -22.1326      1.00000
     38     -22.0668      1.00000
     39     -21.9735      1.00000
     40     -21.8034      1.00000
     41     -17.1409      1.00000
     42     -16.8137      1.00000
     43     -16.6298      1.00000
     44     -16.5889      1.00000
     45     -16.4528      1.00000
     46     -16.4164      1.00000
     47     -16.2554      1.00000
     48     -16.2229      1.00000
     49      -7.1827      1.00000
     50      -6.9438      1.00000
     51      -6.8059      1.00000
     52      -6.6195      1.00000
     53      -6.2590      1.00000
     54      -6.0766      1.00000
     55      -5.9442      1.00000
     56      -5.8882      1.00000
     57      -5.7828      1.00000
     58      -5.7572      1.00000
     59      -5.6892      1.00000
     60      -5.6648      1.00000
     61      -5.5876      1.00000
     62      -5.5099      1.00000
     63      -5.4725      1.00000
     64      -5.4245      1.00000
     65      -5.4071      1.00000
     66      -5.3797      1.00000
     67      -5.2264      1.00000
     68      -5.1891      1.00000
     69      -4.9419      1.00000
     70      -4.9180      1.00000
     71      -4.8349      1.00000
     72      -4.7361      1.00000
     73      -4.6855      1.00000
     74      -4.6389      1.00000
     75      -4.6267      1.00000
     76      -4.5949      1.00000
     77      -4.5441      1.00000
     78      -4.4904      1.00000
     79      -4.4455      1.00000
     80      -4.3527      1.00000
     81      -4.2718      1.00000
     82      -4.1451      1.00000
     83      -4.0486      1.00000
     84      -3.9652      1.00000
     85      -3.8122      1.00000
     86      -3.7603      1.00000
     87      -3.7102      1.00000
     88      -3.6962      1.00000
     89      -3.6419      1.00000
     90      -3.6116      1.00000
     91      -3.5332      1.00000
     92      -3.4893      1.00000
     93      -3.4186      1.00000
     94      -3.3821      1.00000
     95      -3.3310      1.00000
     96      -3.2998      1.00000
     97      -3.2533      1.00000
     98      -3.2263      1.00000
     99      -3.2050      1.00000
    100      -3.1105      1.00000
    101      -3.0529      1.00000
    102      -2.8491      1.00000
    103      -2.7843      1.00000
    104      -2.7322      1.00000
    105      -2.5685      1.00000
    106      -2.4803      1.00000
    107      -2.4560      1.00000
    108      -2.4099      1.00000
    109      -2.3228      1.00000
    110      -2.1543      1.00000
    111      -2.1242      1.00000
    112      -1.8947      1.00000
    113      -1.8001      1.00000
    114      -1.7471      1.00000
    115      -1.7230      1.00000
    116      -1.6361      1.00000
    117      -1.3911      1.00000
    118      -1.3243      1.00000
    119      -1.0818      1.00000
    120      -0.4984      1.00000
    121       1.9304      0.00000
    122       1.9420      0.00000
    123       2.0405      0.00000
    124       2.1575      0.00000
    125       2.4085      0.00000
    126       2.4256      0.00000
    127       2.6058      0.00000
    128       2.6423      0.00000
    129       2.7185      0.00000
    130       2.7584      0.00000
    131       2.9661      0.00000
    132       3.0737      0.00000
    133       3.0854      0.00000
    134       3.1761      0.00000
    135       3.2897      0.00000
    136       3.3238      0.00000
    137       3.3691      0.00000
    138       3.4916      0.00000
    139       3.5850      0.00000
    140       3.6070      0.00000
    141       3.6507      0.00000
    142       3.6635      0.00000
    143       3.7450      0.00000
    144       3.7727      0.00000
    145       3.8396      0.00000
    146       4.0124      0.00000
    147       4.0452      0.00000
    148       4.1259      0.00000
    149       4.1724      0.00000
    150       4.2836      0.00000
    151       4.3687      0.00000
    152       4.4407      0.00000
    153       4.8971      0.00000
    154       5.1609      0.00000
    155       5.3782      0.00000
    156       5.7416      0.00000
    157       5.9408      0.00000
    158       6.1267      0.00000
    159       6.4693      0.00000
    160       6.5613      0.00000

 k-point     3 :       0.2500   -0.2500    0.2500
  band No.  band energies     occupation 
      1     -35.5873      1.00000
      2     -35.5724      1.00000
      3     -35.3903      1.00000
      4     -35.2047      1.00000
      5     -35.0621      1.00000
      6     -35.0088      1.00000
      7     -34.9646      1.00000
      8     -34.8328      1.00000
      9     -34.8112      1.00000
     10     -34.7986      1.00000
     11     -34.7802      1.00000
     12     -34.7297      1.00000
     13     -34.6642      1.00000
     14     -34.6190      1.00000
     15     -34.6113      1.00000
     16     -34.5730      1.00000
     17     -34.5522      1.00000
     18     -34.5341      1.00000
     19     -34.5017      1.00000
     20     -34.4923      1.00000
     21     -34.4641      1.00000
     22     -34.3542      1.00000
     23     -34.3330      1.00000
     24     -34.3241      1.00000
     25     -23.6870      1.00000
     26     -23.4201      1.00000
     27     -23.3057      1.00000
     28     -23.2580      1.00000
     29     -23.1147      1.00000
     30     -23.1053      1.00000
     31     -22.9625      1.00000
     32     -22.7725      1.00000
     33     -22.7518      1.00000
     34     -22.4372      1.00000
     35     -22.3369      1.00000
     36     -22.3022      1.00000
     37     -22.1470      1.00000
     38     -22.0457      1.00000
     39     -21.9826      1.00000
     40     -21.8031      1.00000
     41     -17.1411      1.00000
     42     -16.8130      1.00000
     43     -16.6277      1.00000
     44     -16.5742      1.00000
     45     -16.5096      1.00000
     46     -16.3672      1.00000
     47     -16.2533      1.00000
     48     -16.2347      1.00000
     49      -7.1824      1.00000
     50      -6.9437      1.00000
     51      -6.8059      1.00000
     52      -6.6196      1.00000
     53      -6.2568      1.00000
     54      -6.0684      1.00000
     55      -5.9427      1.00000
     56      -5.9007      1.00000
     57      -5.7763      1.00000
     58      -5.7565      1.00000
     59      -5.6884      1.00000
     60      -5.6650      1.00000
     61      -5.5972      1.00000
     62      -5.4986      1.00000
     63      -5.4780      1.00000
     64      -5.4510      1.00000
     65      -5.4056      1.00000
     66      -5.3828      1.00000
     67      -5.2247      1.00000
     68      -5.1864      1.00000
     69      -4.9122      1.00000
     70      -4.8928      1.00000
     71      -4.8368      1.00000
     72      -4.7390      1.00000
     73      -4.6984      1.00000
     74      -4.6487      1.00000
     75      -4.6258      1.00000
     76      -4.6200      1.00000
     77      -4.5425      1.00000
     78      -4.4833      1.00000
     79      -4.4449      1.00000
     80      -4.3753      1.00000
     81      -4.2732      1.00000
     82      -4.1497      1.00000
     83      -3.9811      1.00000
     84      -3.9546      1.00000
     85      -3.8874      1.00000
     86      -3.7615      1.00000
     87      -3.7086      1.00000
     88      -3.6938      1.00000
     89      -3.6511      1.00000
     90      -3.5927      1.00000
     91      -3.5506      1.00000
     92      -3.4589      1.00000
     93      -3.4196      1.00000
     94      -3.3908      1.00000
     95      -3.3233      1.00000
     96      -3.2719      1.00000
     97      -3.2387      1.00000
     98      -3.1971      1.00000
     99      -3.1262      1.00000
    100      -3.0506      1.00000
    101      -2.9944      1.00000
    102      -2.8967      1.00000
    103      -2.8380      1.00000
    104      -2.7886      1.00000
    105      -2.7175      1.00000
    106      -2.6818      1.00000
    107      -2.4756      1.00000
    108      -2.3168      1.00000
    109      -2.1836      1.00000
    110      -2.1519      1.00000
    111      -2.0804      1.00000
    112      -1.9146      1.00000
    113      -1.9012      1.00000
    114      -1.8663      1.00000
    115      -1.7017      1.00000
    116      -1.4741      1.00000
    117      -1.3521      1.00000
    118      -1.1566      1.00000
    119      -0.9691      1.00000
    120      -0.8106      1.00000
    121       1.9402      0.00000
    122       2.0098      0.00000
    123       2.0431      0.00000
    124       2.1568      0.00000
    125       2.3473      0.00000
    126       2.5985      0.00000
    127       2.6166      0.00000
    128       2.6496      0.00000
    129       2.6531      0.00000
    130       2.7195      0.00000
    131       3.0730      0.00000
    132       3.0868      0.00000
    133       3.1185      0.00000
    134       3.1395      0.00000
    135       3.1859      0.00000
    136       3.2758      0.00000
    137       3.3206      0.00000
    138       3.3819      0.00000
    139       3.4771      0.00000
    140       3.5435      0.00000
    141       3.6783      0.00000
    142       3.7419      0.00000
    143       3.7900      0.00000
    144       3.8274      0.00000
    145       3.9288      0.00000
    146       4.0019      0.00000
    147       4.0529      0.00000
    148       4.1293      0.00000
    149       4.2031      0.00000
    150       4.2675      0.00000
    151       4.3963      0.00000
    152       4.4514      0.00000
    153       4.8471      0.00000
    154       5.1507      0.00000
    155       5.3676      0.00000
    156       5.7349      0.00000
    157       5.9833      0.00000
    158       6.1429      0.00000
    159       6.4814      0.00000
    160       6.5657      0.00000

 k-point     4 :      -0.2500   -0.2500    0.2500
  band No.  band energies     occupation 
      1     -35.5873      1.00000
      2     -35.5724      1.00000
      3     -35.3903      1.00000
[...]
 -0.000   0.000   0.000  -0.000  -0.000   0.000  -0.000   0.000   0.000  -0.000   0.000   0.000  -0.000  -0.000   0.000   0.000
  0.000   0.000  -0.000  -0.000   0.000  -0.000  -0.000   0.000  -0.000   0.000  -0.000   0.000   0.000   0.000  -0.000   0.000
 -0.000   0.000  -0.000   0.000  -0.000  -0.000   0.000  -0.000   0.000   0.000   0.000   0.000   0.000  -0.000  -0.000  -0.000
 -0.000  -0.000  -0.000  -0.000  -0.000  -0.000  -0.000   0.000  -0.000  -0.000   0.000   0.000  -0.000   0.000   0.000  -0.000
  0.000   0.000   0.000   0.000  -0.000  -0.000   0.000  -0.000   0.000  -0.000   0.000  -0.000   0.000  -0.000   0.000   0.000
  0.000  -0.000  -0.000  -0.000   0.000   0.000   0.000  -0.000  -0.000   0.000  -0.000  -0.000   0.000   0.000  -0.000   0.000
 -0.000  -0.000   0.000   0.000   0.000  -0.000   0.000  -0.000  -0.000   0.000   0.000  -0.000  -0.000   0.000   0.000  -0.000
 -0.000   0.000   0.000  -0.000  -0.000  -0.000   0.000   0.000  -0.000  -0.000  -0.000  -0.000   0.000   0.000   0.000  -0.000
 -0.000   0.000   0.000  -0.000   0.000  -0.000   0.000   0.000  -0.000  -0.000  -0.000  -0.000  -0.000   0.000   0.000   0.000


------------------------ aborting loop because EDIFF is reached ----------------------------------------


 


 total charge     
 
# of ion       s       p       d       tot
------------------------------------------
    1        0.319   6.463   1.761   8.543
    2        0.321   6.480   1.790   8.591
    3        0.319   6.462   1.763   8.543
    4        0.317   6.457   1.793   8.567
    5        0.318   6.460   1.783   8.561
    6        0.316   6.458   1.793   8.567
    7        0.318   6.461   1.779   8.558
    8        0.318   6.450   1.725   8.493
    9        1.569   3.453   0.000   5.022
   10        1.570   3.466   0.000   5.037
   11        1.569   3.471   0.000   5.041
   12        1.570   3.466   0.000   5.036
   13        1.572   3.470   0.000   5.043
   14        1.571   3.473   0.000   5.044
   15        1.570   3.476   0.000   5.047
   16        1.571   3.472   0.000   5.043
   17        1.730   4.387   0.000   6.116
   18        1.730   4.387   0.000   6.117
   19        1.730   4.388   0.000   6.118
   20        1.728   4.365   0.000   6.092
   21        1.730   4.387   0.000   6.117
   22        1.729   4.386   0.000   6.115
   23        1.729   4.386   0.000   6.116
   24        1.729   4.372   0.000   6.101
   25        1.731   4.395   0.000   6.126
   26        1.730   4.392   0.000   6.123
   27        1.729   4.372   0.000   6.101
   28        1.728   4.372   0.000   6.100
   29        1.729   4.377   0.000   6.106
   30        1.729   4.376   0.000   6.105
   31        1.729   4.376   0.000   6.105
   32        1.729   4.375   0.000   6.104
--------------------------------------------------
tot         42.777 149.535  14.186 206.498
 


 magnetization (x)
 
# of ion       s       p       d       tot
------------------------------------------
    1        0.000   0.000  -0.000  -0.000
    2       -0.000   0.000  -0.000  -0.000
    3       -0.000  -0.000  -0.000  -0.000
    4       -0.000   0.000   0.000   0.000
    5        0.000  -0.000  -0.000  -0.000
    6       -0.000  -0.000  -0.000  -0.000
    7       -0.000   0.000  -0.000  -0.000
    8       -0.000  -0.000  -0.000  -0.000
    9       -0.000  -0.000   0.000  -0.000
   10       -0.000   0.000   0.000   0.000
   11       -0.000   0.000   0.000   0.000
   12        0.000   0.000   0.000   0.000
   13       -0.000   0.000   0.000   0.000
   14       -0.000   0.000   0.000   0.000
   15       -0.000   0.000   0.000   0.000
   16        0.000   0.000   0.000   0.000
   17        0.000  -0.000   0.000   0.000
   18       -0.000   0.000   0.000  -0.000
   19        0.000   0.000   0.000   0.000
   20        0.000   0.000   0.000   0.000
   21        0.000  -0.000   0.000  -0.000
   22       -0.000  -0.000   0.000  -0.000
   23       -0.000   0.000   0.000   0.000
   24        0.000   0.000   0.000   0.000
   25       -0.000   0.000   0.000   0.000
   26        0.000  -0.000   0.000   0.000
   27       -0.000   0.000   0.000   0.000
   28        0.000   0.000   0.000   0.000
   29       -0.000  -0.000   0.000  -0.000
   30        0.000   0.000   0.000   0.000
   31       -0.000   0.000   0.000   0.000
   32        0.000  -0.000   0.000   0.000
--------------------------------------------------
tot         -0.000   0.000  -0.000   0.000
 
    CHARGE:  cpu time    0.3939: real time    0.3924
    FORLOC:  cpu time    0.0110: real time    0.0101
    FORNL :  cpu time    2.0837: real time    2.0767
    STRESS:  cpu time    6.5510: real time    6.5287
    FORCOR:  cpu time    0.1300: real time    0.1301
    FORHAR:  cpu time    0.0220: real time    0.0214
    MIXING:  cpu time    0.0010: real time    0.0017
    OFIELD:  cpu time    0.0010: real time    0.0000

  FORCE on cell =-STRESS in cart. coord.  units (eV):
  Direction    XX          YY          ZZ          XY          YZ          ZX
  --------------------------------------------------------------------------------------
  Alpha Z   756.78188   756.78188   756.78188
  Ewald   -4288.76192 -4252.83779 -4244.00334    -3.78444   -27.11306    -8.10158
  Hartree  2737.42996  2754.57029  2757.02506    -1.30530    -7.97135    -2.25919
  E(xc)   -1232.26675 -1232.53005 -1232.67830     0.00334     0.06151     0.01698
  Local   -2101.13836 -2183.55856 -2209.27650     5.23832    36.77778    10.92144
  n-local  -972.68590  -966.88245  -964.37740    -0.19199    -1.42337    -0.44262
  augment   748.62825   758.35089   763.29068    -0.10308    -1.29807    -0.39872
  Kinetic  4352.16675  4366.21218  4373.32381     0.14351     0.98583     0.26647
  Fock        0.00000     0.00000     0.00000     0.00000     0.00000     0.00000
  -------------------------------------------------------------------------------------
  Total       0.15392     0.10639     0.08589     0.00036     0.01928     0.00278
  in kB       0.53295     0.36839     0.29742     0.00124     0.06674     0.00961
  external pressure =        0.40 kB  Pullay stress =        0.00 kB


 VOLUME and BASIS-vectors are now :
 -----------------------------------------------------------------------------
  energy-cutoff  :      700.00
  volume of cell :      462.70
      direct lattice vectors                 reciprocal lattice vectors
     7.819527382 -0.000848644  0.001222899     0.127884972  0.000013916 -0.000021193
    -0.000839075  7.716478228  0.003633668     0.000014074  0.129592828 -0.000062219
     0.001270381  0.003681534  7.668383994    -0.000020401 -0.000061410  0.130405605

  length of vectors
     7.819527524  7.716479129  7.668384983     0.127884974  0.129592844  0.130405621


 FORCES acting on ions
    electron-ion (+dipol)            ewald-force                    non-local-force                 convergence-correction
 -----------------------------------------------------------------------------------------------
   0.470E+00 0.193E+01 0.708E+01   -.481E+00 -.265E+01 -.810E+01   0.124E-01 0.723E+00 0.102E+01   0.607E-04 0.225E-04 -.234E-03
   0.794E+01 0.116E+02 -.234E+01   -.786E+01 -.115E+02 0.267E+01   -.756E-01 -.941E-01 -.333E+00   -.691E-05 -.919E-05 0.123E-03
   0.484E+01 -.104E+02 0.713E+01   -.481E+01 0.115E+02 -.625E+01   -.322E-01 -.108E+01 -.884E+00   0.317E-04 0.150E-03 0.193E-03
   0.659E+01 -.128E+02 -.102E+00   -.739E+01 0.127E+02 -.112E+01   0.795E+00 0.147E+00 0.123E+01   -.111E-03 -.130E-04 -.148E-03
   -.290E-01 0.506E+01 0.298E+01   0.498E-01 -.398E+01 -.184E+01   -.188E-01 -.108E+01 -.114E+01   -.955E-04 0.827E-04 0.835E-04
   -.678E+01 0.185E+01 -.218E+01   0.670E+01 -.275E+01 0.956E+00   0.809E-01 0.905E+00 0.122E+01   -.417E-04 0.650E-04 0.475E-05
   -.677E+01 -.295E+01 -.605E+01   0.670E+01 0.173E+01 0.514E+01   0.656E-01 0.122E+01 0.907E+00   -.126E-04 -.104E-03 0.134E-03
   -.130E+02 -.234E+01 0.521E+01   0.140E+02 0.349E+01 -.409E+01   -.100E+01 -.115E+01 -.113E+01   0.209E-03 0.703E-05 0.110E-03
   0.469E+02 0.260E+01 -.188E+01   -.511E+02 -.326E+01 0.209E+01   0.420E+01 0.657E+00 -.213E+00   -.385E-03 -.629E-06 0.302E-04
   0.169E+01 0.273E+02 0.571E+01   -.174E+01 -.301E+02 -.631E+01   0.519E-01 0.282E+01 0.601E+00   0.119E-04 -.985E-04 -.692E-04
   -.190E+01 -.110E+02 -.723E+00   0.194E+01 0.121E+02 0.779E+00   -.343E-01 -.110E+01 -.590E-01   -.522E-04 -.209E-04 0.648E-04
   0.194E+01 0.318E+02 -.329E+01   -.256E+01 -.345E+02 0.370E+01   0.618E+00 0.265E+01 -.410E+00   0.478E-04 -.275E-03 0.661E-04
   0.292E+01 -.604E+01 -.468E+02   -.303E+01 0.740E+01 0.514E+02   0.116E+00 -.136E+01 -.455E+01   0.383E-05 0.339E-04 0.177E-03
   -.922E+01 0.364E+01 -.181E+02   0.109E+02 -.457E+01 0.202E+02   -.165E+01 0.928E+00 -.208E+01   0.827E-04 0.391E-04 -.895E-04
   -.173E+01 0.159E+01 -.341E+01   0.176E+01 -.157E+01 0.378E+01   -.260E-01 -.199E-01 -.371E+00   -.632E-04 0.283E-04 -.651E-04
   0.230E+01 -.426E+01 0.245E+02   -.301E+01 0.456E+01 -.264E+02   0.702E+00 -.302E+00 0.191E+01   0.758E-04 0.693E-05 -.305E-03
   -.144E+02 0.293E+00 0.450E+01   0.161E+02 0.172E+00 -.515E+01   -.172E+01 -.466E+00 0.652E+00   0.528E-04 0.230E-04 -.449E-04
   -.360E+02 -.534E+01 0.416E+01   0.395E+02 0.722E+01 -.533E+01   -.353E+01 -.187E+01 0.118E+01   0.540E-04 0.123E-04 -.806E-04
   -.993E+01 -.418E+01 0.934E+00   0.112E+02 0.443E+01 -.122E+01   -.127E+01 -.250E+00 0.282E+00   -.526E-05 -.129E-04 0.899E-04
   -.981E+01 0.574E+00 0.110E+01   0.856E+01 -.139E+01 -.116E+01   0.124E+01 0.822E+00 0.557E-01   0.284E-03 -.811E-05 0.293E-04
   0.143E+02 0.195E+00 0.458E+01   -.160E+02 0.268E+00 -.523E+01   0.176E+01 -.464E+00 0.646E+00   -.492E-04 0.279E-04 -.536E-04
   0.365E+02 -.708E+01 0.414E+01   -.402E+02 0.899E+01 -.535E+01   0.371E+01 -.192E+01 0.122E+01   -.675E-04 -.525E-06 -.559E-04
   0.105E+02 -.392E+01 0.206E+01   -.116E+02 0.415E+01 -.235E+01   0.115E+01 -.229E+00 0.282E+00   -.280E-05 -.534E-05 0.115E-03
   0.198E+01 0.201E+00 0.609E+01   -.204E+01 -.137E+01 -.696E+01   0.622E-01 0.117E+01 0.869E+00   0.207E-04 -.810E-05 -.475E-04
   -.104E+02 -.308E+02 0.674E+01   0.132E+02 0.339E+02 -.846E+01   -.285E+01 -.313E+01 0.173E+01   -.289E-04 -.426E-04 -.913E-04
   -.113E+02 0.318E+02 0.604E+01   0.141E+02 -.349E+02 -.765E+01   -.280E+01 0.312E+01 0.161E+01   -.164E-04 0.264E-04 -.609E-04
   0.119E-01 -.149E+02 -.931E+00   -.762E+00 0.149E+02 0.122E+01   0.747E+00 -.243E-01 -.293E+00   0.567E-04 0.198E-03 0.361E-04
   -.187E+01 0.204E+01 -.169E+00   0.189E+01 -.179E+01 0.283E+00   -.189E-01 -.247E+00 -.119E+00   -.551E-04 0.581E-04 0.959E-04
   0.248E+01 -.663E+01 0.788E+01   -.256E+01 0.852E+01 -.616E+01   0.797E-01 -.189E+01 -.171E+01   0.288E-04 0.258E-04 -.352E-04
   -.790E+01 0.169E+01 -.327E+01   0.998E+01 -.275E+01 0.444E+01   -.208E+01 0.106E+01 -.117E+01   0.526E-04 0.353E-04 0.105E-03
   -.213E+01 0.214E+01 -.230E+00   0.216E+01 -.205E+01 0.465E+00   -.225E-01 -.841E-01 -.235E+00   -.736E-04 0.414E-04 0.537E-04
   0.253E+01 -.293E+01 -.120E+02   -.348E+01 0.319E+01 0.121E+02   0.953E+00 -.255E+00 -.159E-01   0.786E-04 -.534E-04 0.208E-03
 -----------------------------------------------------------------------------------------------
   0.796E+00 0.789E+00 -.711E+00   0.537E-13 0.329E-13 -.497E-13   -.795E+00 -.791E+00 0.710E+00   0.847E-04 0.231E-03 0.339E-03
 
 
 POSITION                                       TOTAL-FORCE (eV/Angst)
 -----------------------------------------------------------------------------------
      7.81989      7.59016      7.63026         0.001831      0.000508      0.004717
      0.00687      0.01279      3.97850         0.002454     -0.000131      0.000364
      0.00672      3.92394      0.11834        -0.000886     -0.001387     -0.000106
      7.67019      3.85955      3.76029        -0.001826     -0.000284     -0.001071
      3.91032      0.11798      0.10083         0.001851      0.000693     -0.000023
      3.90997      7.59362      3.74325         0.001863      0.002390     -0.002151
      3.91156      3.77433      7.55135        -0.001406      0.000694     -0.004853
      3.96485      3.93128      3.91013        -0.002217      0.000195     -0.005184
      5.88515      3.85369      3.83502        -0.001469      0.001484     -0.001747
      7.82007      5.80145      7.67214         0.001467      0.000751      0.004541
      3.91412      1.93135      7.66596         0.002168     -0.001433     -0.003115
      3.90342      5.80323      3.83950        -0.001357      0.001274     -0.004296
      7.81777      0.01631      5.73807         0.001615     -0.002861      0.006223
      0.00991      3.84805      1.90978        -0.004740     -0.003765     -0.000361
      3.91196      7.71569      1.91847         0.002943      0.000970     -0.002602
      3.90078      3.86279      5.75911        -0.005893     -0.000337     -0.003802
      1.94083      0.01014      7.66696         0.001577     -0.000725      0.003921
      1.92806      0.02645      3.82559         0.001865      0.001163      0.007081
      1.94829      3.86426      7.66149        -0.001638     -0.000361     -0.001568
      1.92872      3.84495      3.83732        -0.002567      0.001274     -0.004738
      5.88198      0.00937      7.66791         0.002159     -0.001698      0.004223
      5.90181      0.02938      3.82447         0.001141      0.001573      0.004876
      5.88002      3.86310      7.66076        -0.001047     -0.000005     -0.006082
      7.82013      1.91698      7.66462         0.001744     -0.001642      0.004493
      0.03797      1.91280      3.81674         0.002743     -0.000399      0.008831
      0.03826      5.81928      3.82083        -0.000172     -0.000956      0.003430
      3.89442      1.90636      3.84246        -0.003125      0.001878     -0.004940
      3.91378      5.80233      7.66501         0.002701      0.000441     -0.005259
      7.81745      0.03243      1.94341         0.001541     -0.001809      0.003929
      0.03312      3.83214      5.75585        -0.004084     -0.000666      0.000741
      3.91326      7.71824      5.75527         0.004468      0.000567     -0.000843
      3.88443      3.86634      1.89844        -0.003705      0.002607     -0.004629
 -----------------------------------------------------------------------------------
    total drift:                                0.000888     -0.002165     -0.000920


--------------------------------------------------------------------------------------------------------



  FREE ENERGIE OF THE ION-ELECTRON SYSTEM (eV)
  ---------------------------------------------------
  free  energy   TOTEN  =      -213.30174381 eV

  energy  without entropy=     -213.30174381  energy(sigma->0) =     -213.30174381
 


--------------------------------------------------------------------------------------------------------


    POTLOK:  cpu time    1.1218: real time    1.1191


--------------------------------------------------------------------------------------------------------


 stress matrix after NEB project (eV)
      0.15392      0.00036      0.00278
      0.00036      0.10639      0.01928
      0.00277      0.01928      0.08589
  FORCES: max atom, RMS     0.009256    0.005109
  FORCE total and by dimension    0.028898    0.008831
  Stress total and by dimension    0.207715    0.153916
 Quasi-Newton relaxation of ions (Broydens 2nd method)
  g(Force)  = 0.403E-04   g(Stress)= 0.650E-04

 Reset! Starting new Quasi-Newton update for ions 


--------------------------------------------------------------------------------------------------------


  
 reached required accuracy - stopping structural energy minimisation
 writing wavefunctions
     LOOP+:  cpu time   41.9926: real time   44.2604
    4ORBIT:  cpu time    0.0000: real time    0.0000
 


 total charge     
 
# of ion       s       p       d       tot
------------------------------------------
    1        0.319   6.463   1.761   8.543
    2        0.321   6.480   1.790   8.591
    3        0.319   6.462   1.763   8.543
    4        0.317   6.457   1.793   8.567
    5        0.318   6.460   1.783   8.561
    6        0.316   6.458   1.793   8.567
    7        0.318   6.461   1.779   8.558
    8        0.318   6.450   1.725   8.493
    9        1.569   3.453   0.000   5.022
   10        1.570   3.466   0.000   5.037
   11        1.569   3.471   0.000   5.041
   12        1.570   3.466   0.000   5.036
   13        1.572   3.470   0.000   5.043
   14        1.571   3.473   0.000   5.044
   15        1.570   3.476   0.000   5.047
   16        1.571   3.472   0.000   5.043
   17        1.730   4.387   0.000   6.116
   18        1.730   4.387   0.000   6.117
   19        1.730   4.388   0.000   6.118
   20        1.728   4.365   0.000   6.092
   21        1.730   4.387   0.000   6.117
   22        1.729   4.386   0.000   6.115
   23        1.729   4.386   0.000   6.116
   24        1.729   4.372   0.000   6.101
   25        1.731   4.395   0.000   6.126
   26        1.730   4.392   0.000   6.123
   27        1.729   4.372   0.000   6.101
   28        1.728   4.372   0.000   6.100
   29        1.729   4.377   0.000   6.106
   30        1.729   4.376   0.000   6.105
   31        1.729   4.376   0.000   6.105
   32        1.729   4.375   0.000   6.104
--------------------------------------------------
tot         42.777 149.535  14.186 206.498
 


 magnetization (x)
 
# of ion       s       p       d       tot
------------------------------------------
    1        0.000   0.000  -0.000  -0.000
    2       -0.000   0.000  -0.000  -0.000
    3       -0.000  -0.000  -0.000  -0.000
    4       -0.000   0.000   0.000   0.000
    5        0.000  -0.000  -0.000  -0.000
    6       -0.000  -0.000  -0.000  -0.000
    7       -0.000   0.000  -0.000  -0.000
    8       -0.000  -0.000  -0.000  -0.000
    9       -0.000  -0.000   0.000  -0.000
   10       -0.000   0.000   0.000   0.000
   11       -0.000   0.000   0.000   0.000
   12        0.000   0.000   0.000   0.000
   13       -0.000   0.000   0.000   0.000
   14       -0.000   0.000   0.000   0.000
   15       -0.000   0.000   0.000   0.000
   16        0.000   0.000   0.000   0.000
   17        0.000  -0.000   0.000   0.000
   18       -0.000   0.000   0.000  -0.000
   19        0.000   0.000   0.000   0.000
   20        0.000   0.000   0.000   0.000
   21        0.000  -0.000   0.000  -0.000
   22       -0.000  -0.000   0.000  -0.000
   23       -0.000   0.000   0.000   0.000
   24        0.000   0.000   0.000   0.000
   25       -0.000   0.000   0.000   0.000
   26        0.000  -0.000   0.000   0.000
   27       -0.000   0.000   0.000   0.000
   28        0.000   0.000   0.000   0.000
   29       -0.000  -0.000   0.000  -0.000
   30        0.000   0.000   0.000   0.000
   31       -0.000   0.000   0.000   0.000
   32        0.000  -0.000   0.000   0.000
--------------------------------------------------
tot         -0.000   0.000  -0.000   0.000
 

 total amount of memory used by VASP MPI-rank0    62255. kBytes
=======================================================================

   base      :      30000. kBytes
   nonlr-proj:       8578. kBytes
   fftplans  :       8422. kBytes
   grid      :       8783. kBytes
   one-center:        124. kBytes
   wavefun   :       6348. kBytes
 
  
  
 General timing and accounting informations for this job:
 ========================================================
  
                  Total CPU time used (sec):       58.432
                            User time (sec):       55.072
                          System time (sec):        3.360
                         Elapsed time (sec):       68.773
  
                   Maximum memory used (kb):      175044.
                   Average memory used (kb):           0.
  
                          Minor page faults:       103378
                          Major page faults:            2
                 Voluntary context switches:        18306
