LTO                                     
           1
     7.819527   -0.000849    0.001223
    -0.000839    7.716478    0.003634
     0.001270    0.003682    7.668384
   Ti   O    F 
   8   8  16
Direct configuration=     1
   0.99999077  0.98326620  0.99440259
   0.00079465  0.00140963  0.51881823
   0.00091112  0.50850698  0.01519100
   0.98087635  0.50004384  0.48996875
   0.50007023  0.01533863  0.01306188
   0.50005264  0.98390024  0.48759471
   0.50012237  0.48871070  0.98442645
   0.50701615  0.50927853  0.50958057
   0.75259414  0.49925506  0.49975127
   0.99998803  0.75145901  0.99997385
   0.50042117  0.24986669  0.99948546
   0.49918872  0.75187240  0.50025649
   0.99965421  0.00186610  0.74811618
   0.00128043  0.49856121  0.24881003
   0.50034787  0.99983345  0.24962565
   0.49878287  0.50028645  0.75070355
   0.24804018  0.00086404  0.99977369
   0.24648974  0.00321681  0.49883736
   0.24904821  0.50033106  0.99882447
   0.24662672  0.49806694  0.50013209
   0.75205483  0.00082038  0.99981826
   0.75467258  0.00365306  0.49860947
   0.75185719  0.50023644  0.99864869
   0.99994188  0.24805983  0.99923175
   0.00480163  0.24764780  0.49760571
   0.00489344  0.75389958  0.49789966
   0.49798289  0.24686603  0.50088227
   0.50043156  0.75151842  0.99912359
   0.99969404  0.00419158  0.25327065
   0.00416642  0.49626049  0.75035945
   0.50043259  0.99992562  0.74996537
   0.49677437  0.50098682  0.24725086
