 vasp.5.4.4.18Apr17-6-g9f103f2a35 (build Apr 30 2017 20:10:35) complex          
  
 executed on             LinuxIFC date 2017.08.16  08:59:27
 running on  128 total cores
 distrk:  each k-point on  128 cores,    1 groups
 distr:  one band on NCORES_PER_BAND=   8 cores,   16 groups


--------------------------------------------------------------------------------------------------------


 INCAR:
 POTCAR:   PAW_PBE Ti_pv 07Sep2000                
 POTCAR:   PAW_PBE O 08Apr2002                    
 POTCAR:    PAW_PBE F 08Apr2002                   
 POTCAR:   PAW_PBE Ti_pv 07Sep2000                
   VRHFIN =Ti: d3 s1                                                            
   LEXCH  = PE                                                                  
   EATOM  =  1042.3781 eV,   76.6126 Ry                                         
                                                                                
   TITEL  = PAW_PBE Ti_pv 07Sep2000                                             
   LULTRA =        F    use ultrasoft PP ?                                      
   IUNSCR =        1    unscreen: 0-lin 1-nonlin 2-no                           
   RPACOR =    2.200    partial core radius                                     
   POMASS =   47.880; ZVAL   =   10.000    mass and valenz                      
   RCORE  =    2.500    outmost cutoff radius                                   
   RWIGS  =    2.500; RWIGS  =    1.323    wigner-seitz radius (au A)           
   ENMAX  =  222.338; ENMIN  =  166.753 eV                                      
   RCLOC  =    1.701    cutoff for local pot                                    
   LCOR   =        T    correct aug charges                                     
   LPAW   =        T    paw PP                                                  
   EAUG   =  482.848                                                            
   DEXC   =    -.008                                                            
   RMAX   =    3.092    core radius for proj-oper                               
   RAUG   =    1.300    factor for augmentation sphere                          
   RDEP   =    2.538    radius for radial grids                                 
   QCUT   =   -4.042; QGAM   =    8.085    optimization parameters              
                                                                                
   Description                                                                  
     l     E      TYP  RCUT    TYP  RCUT                                        
     1   .000     23  2.300                                                     
     1  -.100     23  2.300                                                     
     2   .000     23  2.500                                                     
     2   .000     23  2.500                                                     
     0   .000     23  2.500                                                     
     0  1.500     23  2.500                                                     
     3   .000      7   .000                                                     
  local pseudopotential read in
  partial core-charges read in
  atomic valenz-charges read in
  non local Contribution for L=           1  read in
    real space projection operators read in
  non local Contribution for L=           1  read in
    real space projection operators read in
  non local Contribution for L=           2  read in
    real space projection operators read in
  non local Contribution for L=           2  read in
    real space projection operators read in
  non local Contribution for L=           0  read in
    real space projection operators read in
  non local Contribution for L=           0  read in
    real space projection operators read in
    PAW grid and wavefunctions read in
 
   number of l-projection  operators is LMAX  =           6
   number of lm-projection operators is LMMAX =          18
 
 POTCAR:   PAW_PBE O 08Apr2002                    
   VRHFIN =O: s2p4                                                              
   LEXCH  = PE                                                                  
   EATOM  =   432.3788 eV,   31.7789 Ry                                         
                                                                                
   TITEL  = PAW_PBE O 08Apr2002                                                 
   LULTRA =        F    use ultrasoft PP ?                                      
   IUNSCR =        0    unscreen: 0-lin 1-nonlin 2-no                           
   RPACOR =     .000    partial core radius                                     
   POMASS =   16.000; ZVAL   =    6.000    mass and valenz                      
   RCORE  =    1.520    outmost cutoff radius                                   
   RWIGS  =    1.550; RWIGS  =     .820    wigner-seitz radius (au A)           
   ENMAX  =  400.000; ENMIN  =  300.000 eV                                      
   ICORE  =        2    local potential                                         
   LCOR   =        T    correct aug charges                                     
   LPAW   =        T    paw PP                                                  
   EAUG   =  605.392                                                            
   DEXC   =     .000                                                            
   RMAX   =    2.264    core radius for proj-oper                               
   RAUG   =    1.300    factor for augmentation sphere                          
   RDEP   =    1.550    radius for radial grids                                 
   QCUT   =   -5.520; QGAM   =   11.041    optimization parameters              
                                                                                
   Description                                                                  
     l     E      TYP  RCUT    TYP  RCUT                                        
     0   .000     23  1.200                                                     
     0  -.700     23  1.200                                                     
     1   .000     23  1.520                                                     
     1   .600     23  1.520                                                     
     2   .000      7  1.500                                                     
  local pseudopotential read in
  atomic valenz-charges read in
  non local Contribution for L=           0  read in
    real space projection operators read in
  non local Contribution for L=           0  read in
    real space projection operators read in
  non local Contribution for L=           1  read in
    real space projection operators read in
  non local Contribution for L=           1  read in
    real space projection operators read in
    PAW grid and wavefunctions read in
 
   number of l-projection  operators is LMAX  =           4
   number of lm-projection operators is LMMAX =           8
 
 POTCAR:    PAW_PBE F 08Apr2002                   
   VRHFIN =F: s2p5                                                              
   LEXCH  = PE                                                                  
   EATOM  =   659.6475 eV,   48.4827 Ry                                         
                                                                                
   TITEL  = PAW_PBE F 08Apr2002                                                 
   LULTRA =        F    use ultrasoft PP ?                                      
   IUNSCR =        1    unscreen: 0-lin 1-nonlin 2-no                           
   RPACOR =    1.200    partial core radius                                     
   POMASS =   18.998; ZVAL   =    7.000    mass and valenz                      
   RCORE  =    1.520    outmost cutoff radius                                   
   RWIGS  =    1.500; RWIGS  =    0.794    wigner-seitz radius (au A)           
   ENMAX  =  400.000; ENMIN  =  300.000 eV                                      
   ICORE  =        2    local potential                                         
   LCOR   =        T    correct aug charges                                     
   LPAW   =        T    paw PP                                                  
   EAUG   =  613.614                                                            
   RMAX   =    1.555    core radius for proj-oper                               
   RAUG   =    1.300    factor for augmentation sphere                          
   RDEP   =    1.539    radius for radial grids                                 
   RDEPT  =    1.299    core radius for aug-charge                              
                                                                                
   Atomic configuration                                                         
    4 entries                                                                   
     n  l   j            E        occ.                                          
     1  0  0.50      -663.3661   2.0000                                         
     2  0  0.50       -29.8995   2.0000                                         
     2  1  0.50       -11.1114   5.0000                                         
     3  2  1.50       -10.8847   0.0000                                         
   Description                                                                  
     l       E           TYP  RCUT    TYP  RCUT                                 
     0    -29.8995018     23  1.200                                             
     0     -9.5240782     23  1.200                                             
     1    -11.1113914     23  1.520                                             
     1      1.3605826     23  1.520                                             
     2    -10.8846608      7  1.500                                             
  local pseudopotential read in
  partial core-charges read in
  partial kinetic energy density read in
  atomic valenz-charges read in
  non local Contribution for L=           0  read in
    real space projection operators read in
  non local Contribution for L=           0  read in
    real space projection operators read in
  non local Contribution for L=           1  read in
    real space projection operators read in
  non local Contribution for L=           1  read in
    real space projection operators read in
    PAW grid and wavefunctions read in
 
   number of l-projection  operators is LMAX  =           4
   number of lm-projection operators is LMMAX =           8
 
 Optimization of the real space projectors (new method)

 maximal supplied QI-value         = 15.12
 optimisation between [QCUT,QGAM] = [ 13.45, 27.06] = [ 50.69,205.06] Ry 
 Optimized for a Real-space Cutoff    1.49 Angstroem

   l    n(q)    QCUT    max X(q) W(low)/X(q) W(high)/X(q)  e(spline) 
   1     12    13.455     4.841    0.13E-05    0.83E-06    0.56E-07
   1     12    13.455     5.701    0.32E-04    0.25E-04    0.17E-06
   2     11    13.455     4.569    0.64E-05    0.34E-05    0.50E-07
   2     11    13.455    32.276    0.49E-04    0.38E-04    0.46E-06
   0     12    13.455    30.046    0.17E-04    0.41E-05    0.51E-07
   0     12    13.455    45.433    0.12E-04    0.27E-04    0.38E-06
 Optimization of the real space projectors (new method)

 maximal supplied QI-value         = 24.76
 optimisation between [QCUT,QGAM] = [ 13.37, 26.98] = [ 50.04,203.89] Ry 
 Optimized for a Real-space Cutoff    1.17 Angstroem

   l    n(q)    QCUT    max X(q) W(low)/X(q) W(high)/X(q)  e(spline) 
   0      9    13.368     4.192    0.20E-04    0.58E-05    0.56E-07
   0      9    13.368     8.473    0.60E-04    0.52E-04    0.21E-06
   1      9    13.368     2.474    0.22E-04    0.17E-04    0.28E-07
   1      9    13.368     3.912    0.94E-04    0.97E-04    0.20E-06
 Optimization of the real space projectors (new method)

 maximal supplied QI-value         = 24.76
 optimisation between [QCUT,QGAM] = [ 13.37, 26.98] = [ 50.04,203.89] Ry 
 Optimized for a Real-space Cutoff    1.17 Angstroem

   l    n(q)    QCUT    max X(q) W(low)/X(q) W(high)/X(q)  e(spline) 
   0      9    13.368    14.049    0.39E-04    0.34E-04    0.16E-06
   0      9    13.368     8.945    0.54E-04    0.47E-04    0.20E-06
   1      9    13.368     7.086    0.99E-04    0.10E-03    0.23E-06
   1      9    13.368     6.747    0.86E-04    0.89E-04    0.21E-06

 ----------------------------------------------------------------------------- 
|                                                                             |
|  ADVICE TO THIS USER RUNNING 'VASP/VAMP'   (HEAR YOUR MASTER'S VOICE ...):  |
|                                                                             |
|      You enforced a specific xc-type in the INCAR file,                     |
|      a different type was found on the POTCAR file                          |
|          I HOPE YOU KNOW, WHAT YOU ARE  DOING                               |
|                                                                             |
 ----------------------------------------------------------------------------- 

 PAW_PBE Ti_pv 07Sep2000                :
 energy of atom  1       EATOM=-1042.3781
 kinetic energy error for atom=    0.0006 (will be added to EATOM!!)
 PAW_PBE O 08Apr2002                    :
 energy of atom  2       EATOM= -432.3788
 kinetic energy error for atom=    0.0091 (will be added to EATOM!!)
  PAW_PBE F 08Apr2002                   :
 energy of atom  3       EATOM= -659.6475
 kinetic energy error for atom=    0.0140 (will be added to EATOM!!)
 
 
 POSCAR: Ti64 O64 F128                           
  positions in direct lattice
  velocities in cartesian coordinates
 exchange correlation table for  LEXCH =       14
   RHO(1)=    0.500       N(1)  =     2000
   RHO(2)=  100.500       N(2)  =     4000

 VTST: version 3.1, (03/28/14)

 CHAIN: initializing optimizer
 
 OPT: Using VASP QUASI-newton optimizer
 CHAIN: Read ICHAIN            0
 
 POSCAR: Ti64 O64 F128                           
  positions in direct lattice
  velocities in cartesian coordinates
 


--------------------------------------------------------------------------------------------------------


 ion  position               nearest neighbor table
   1  1.000  0.008  0.007-  65 1.81 102 1.82 172 1.95 200 1.95 231 2.00 135 2.03
   2  0.993  0.992  0.499- 109 1.79  94 1.83 134 1.95 129 1.98 220 2.04 173 2.07
   3  0.993  0.499  0.993-  68 1.82  95 1.84 230 1.94 221 1.96 130 2.02 174 2.06
   4  0.994  0.493  0.502- 108 1.84  96 1.85 131 1.94 136 1.97 222 2.00 175 2.05
   5  0.499  0.992  0.006- 111 1.80  66 1.84 198 1.94 176 1.96 138 2.01 223 2.06
   6  0.502  0.993  0.506- 112 1.81  67 1.85 177 1.93 199 2.00 224 2.03 137 2.04
   7  0.494  0.502  0.992-  69 1.80  92 1.85 225 1.92 232 1.99 178 2.02 132 2.04
   8  0.494  0.494  0.501- 110 1.84  93 1.85 133 1.93 139 1.97 226 2.01 179 2.03
   9  1.000  0.007  0.243- 103 1.83  65 1.83 180 1.95 204 1.95 235 2.00 134 2.01
  10  0.992  0.007  0.752-  98 1.80 104 1.82 135 1.95 129 1.97 236 2.02 181 2.06
  11  0.994  0.506  0.248- 105 1.82  99 1.85 130 1.94 136 1.97 233 2.04 182 2.05
  12  0.007  0.499  0.758-  68 1.82  86 1.82 234 1.93 227 1.94 131 2.02 205 2.04
  13  0.499  0.995  0.244- 114 1.83  66 1.85 201 1.95 183 1.96 137 2.01 228 2.01
  14  0.502  0.006  0.744-  67 1.83 106 1.84 184 1.94 202 1.98 238 2.01 138 2.05
  15  0.494  0.496  0.248-  97 1.84 113 1.88 132 1.93 139 1.96 229 1.99 185 2.02
  16  0.498  0.506  0.757- 107 1.81  69 1.84 203 1.94 186 1.97 133 2.02 237 2.03
  17  1.000  0.243  0.006- 102 1.83  70 1.83 187 1.94 210 1.96 230 2.01 145 2.02
  18  0.999  0.255  0.506- 108 1.83  71 1.84 211 1.95 188 1.98 220 2.02 144 2.04
  19  0.008  0.752  0.994-  75 1.81  87 1.84 231 1.94 221 1.97 140 2.03 212 2.05
  20  0.006  0.754  0.495- 109 1.87  74 1.88  88 1.89 222 2.02 141 2.03 213 2.04
  21  0.500  0.248  0.009-  72 1.77 223 1.90 206 1.93 232 1.93 189 1.93 147 2.02
  22  0.507  0.256  0.499-  89 1.82 110 1.82 146 1.96 142 1.96 224 2.01 207 2.05
  23  0.498  0.757  0.008-  73 1.82 111 1.83 208 1.93 190 1.96 225 2.01 149 2.01
  24  0.506  0.756  0.498-  90 1.82 112 1.85 148 1.95 143 1.97 226 2.02 209 2.05
  25  1.000  0.245  0.244- 103 1.84  70 1.85 191 1.95 217 1.96 233 1.99 144 2.01
  26  0.998  0.242  0.744- 104 1.81  71 1.83 218 1.94 192 1.98 234 2.03 145 2.04
  27  0.000  0.744  0.256-  74 1.80 105 1.84 219 1.96 193 1.97 235 2.04 140 2.05
  28  0.992  0.752  0.755- 101 1.80  75 1.88 236 1.95 227 1.96 141 2.00 194 2.09
  29  0.500  0.257  0.245- 113 1.79  72 1.89 214 1.94 195 1.95 146 1.98 228 2.01
  30  0.507  0.244  0.752- 106 1.82  91 1.82 147 1.96 142 1.97 237 2.02 215 2.04
  31  0.500  0.757  0.243-  73 1.82 114 1.84 196 1.94 216 1.94 148 2.01 229 2.03
  32  0.493  0.744  0.752- 100 1.84 107 1.85 149 1.95 143 1.96 197 2.01 238 2.03
  33  0.251  0.994  0.007- 122 1.82  76 1.83 198 1.96 172 1.96 239 2.03 155 2.03
  34  0.249  0.002  0.508-  77 1.78 240 1.91 173 1.92 250 1.94 199 1.95 154 2.04
  35  0.257  0.495  0.000-  92 1.84 120 1.84 150 1.94 157 1.94 241 2.01 174 2.03
  36  0.257  0.493  0.499- 121 1.82  93 1.83 151 1.94 156 1.95 242 2.00 175 2.04
  37  0.750  0.006  0.007-  78 1.82 115 1.84 200 1.95 176 1.95 253 1.99 159 2.01
  38  0.759  0.007  0.498-  94 1.80 116 1.82 158 1.94 152 1.96 254 2.00 177 2.05
  39  0.756  0.506  0.999- 117 1.82  95 1.85 161 1.93 153 1.97 251 2.04 178 2.05
  40  0.758  0.499  0.507-  79 1.82  96 1.83 252 1.94 243 1.95 160 2.03 179 2.06
  41  0.251  0.994  0.245- 125 1.82  76 1.84 201 1.95 180 1.96 244 2.02 154 2.03
  42  0.248  0.993  0.747- 126 1.80  77 1.90 181 1.92 202 1.97 155 2.00 245 2.03
  43  0.256  0.494  0.250- 123 1.84  97 1.85 150 1.94 156 1.94 246 2.02 182 2.02
  44  0.242  0.493  0.750-  86 1.82 124 1.82 151 1.94 157 1.95 247 2.02 203 2.04
  45  0.750  0.005  0.243-  78 1.82 118 1.84 183 1.95 204 1.95 256 1.99 158 2.02
  46  0.757  0.992  0.751- 128 1.79  98 1.85 159 1.95 152 1.98 184 2.03 248 2.06
  47  0.757  0.505  0.251-  99 1.84 119 1.84 160 1.93 153 1.97 255 2.03 185 2.06
  48  0.752  0.494  0.742-  79 1.82 127 1.84 205 1.94 186 1.98 249 2.00 161 2.04
  49  0.249  0.256  0.006- 120 1.83  80 1.84 187 1.94 206 1.99 239 2.01 166 2.01
  50  0.251  0.257  0.506- 121 1.81  81 1.84 207 1.94 188 1.97 240 2.03 165 2.04
  51  0.242  0.756  0.003-  87 1.80 122 1.85 162 1.93 167 1.96 241 2.01 208 2.07
  52  0.242  0.748  0.493-  88 1.79  85 1.85 242 1.92 250 1.99 163 2.02 209 2.06
  53  0.751  0.244  0.007-  82 1.82 115 1.83 210 1.94 189 1.97 251 1.99 169 2.02
  54  0.742  0.242  0.498- 116 1.80  89 1.82 168 1.94 164 1.96 252 2.01 211 2.04
  55  0.751  0.744  0.007- 117 1.84  83 1.84 212 1.94 190 1.99 171 2.00 253 2.05
  56  0.743  0.751  0.507-  84 1.81  90 1.86 254 1.94 243 1.96 213 2.03 170 2.06
  57  0.250  0.256  0.244- 123 1.83  80 1.84 191 1.95 214 1.96 165 2.01 244 2.01
  58  0.252  0.256  0.744- 124 1.84  81 1.84 215 1.94 192 1.98 245 2.01 166 2.04
  59  0.250  0.756  0.258-  85 1.79 125 1.85 193 1.95 216 1.96 246 2.01 162 2.04
  60  0.256  0.755  0.749- 100 1.84 126 1.86 163 1.93 167 1.97 247 2.01 194 2.01
  61  0.750  0.244  0.243-  82 1.82 118 1.84 217 1.94 195 1.96 255 1.99 168 2.02
  62  0.742  0.256  0.751-  91 1.83 127 1.83 169 1.94 164 1.97 248 2.01 218 2.04
  63  0.750  0.744  0.244- 119 1.83  83 1.84 219 1.95 196 1.97 170 2.00 256 2.04
  64  0.755  0.754  0.745-  84 1.87 128 1.87 101 1.88 249 2.02 171 2.05 197 2.05
  65  0.999  0.001  0.124-   1 1.81   9 1.83
  66  0.499  0.005  0.125-   5 1.84  13 1.85
  67  0.500  0.999  0.625-  14 1.83   6 1.85
  68  1.000  0.504  0.876-  12 1.82   3 1.82
  69  0.498  0.496  0.875-   7 1.80  16 1.84
  70  1.000  0.251  0.124-  17 1.83  25 1.85
  71  0.000  0.246  0.626-  26 1.83  18 1.84
  72  0.502  0.244  0.123-  21 1.77  29 1.89
  73  0.503  0.748  0.125-  23 1.82  31 1.82
  74  0.002  0.748  0.373-  27 1.80  20 1.88
  75  0.003  0.748  0.876-  19 1.81  28 1.88
  76  0.250  0.005  0.125-  33 1.83  41 1.84
  77  0.250  0.003  0.624-  34 1.78  42 1.90
  78  0.751  0.996  0.125-  45 1.82  37 1.82
  79  0.750  0.505  0.624-  48 1.82  40 1.82
  80  0.250  0.247  0.125-  49 1.84  57 1.84
  81  0.250  0.248  0.625-  50 1.84  58 1.84
  82  0.748  0.254  0.125-  53 1.82  61 1.82
  83  0.746  0.755  0.126-  63 1.84  55 1.84
  84  0.748  0.745  0.624-  56 1.81  64 1.87
  85  0.250  0.748  0.374-  59 1.79  52 1.85
  86  0.125  0.497  0.749-  44 1.82  12 1.82
  87  0.126  0.752  0.006-  51 1.80  19 1.84
  88  0.127  0.750  0.501-  52 1.79  20 1.89
  89  0.625  0.250  0.502-  22 1.82  54 1.82
  90  0.624  0.751  0.495-  24 1.82  56 1.86
  91  0.625  0.252  0.749-  30 1.82  62 1.83
  92  0.375  0.501  0.004-  35 1.84   7 1.85
  93  0.375  0.501  0.497-  36 1.83   8 1.85
  94  0.875  0.001  0.503-  38 1.80   2 1.83
  95  0.875  0.495  0.002-   3 1.84  39 1.85
  96  0.875  0.498  0.497-  40 1.83   4 1.85
  97  0.375  0.504  0.249-  15 1.84  43 1.85
  98  0.876  0.998  0.747-  10 1.80  46 1.85
  99  0.875  0.495  0.250-  47 1.84  11 1.85
 100  0.375  0.752  0.752-  60 1.84  32 1.84
 101  0.876  0.752  0.752-  28 1.80  64 1.88
 102  0.994  0.125  0.993-   1 1.82  17 1.83
 103  0.994  0.125  0.252-   9 1.83  25 1.84
 104  0.001  0.125  0.759-  26 1.81  10 1.82
 105  0.998  0.625  0.244-  11 1.82  27 1.84
 106  0.499  0.126  0.754-  30 1.82  14 1.84
 107  0.500  0.624  0.749-  16 1.81  32 1.85
 108  0.004  0.374  0.500-  18 1.83   4 1.84
 109  0.001  0.876  0.502-   2 1.79  20 1.87
 110  0.499  0.374  0.497-  22 1.82   8 1.84
 111  0.493  0.875  1.000-   5 1.80  23 1.83
 112  0.496  0.876  0.494-   6 1.81  24 1.85
 113  0.498  0.374  0.249-  29 1.79  15 1.88
 114  0.495  0.876  0.252-  13 1.83  31 1.84
 115  0.753  0.125  0.001-  53 1.83  37 1.84
 116  0.750  0.125  0.495-  54 1.80  38 1.82
 117  0.750  0.624  0.003-  39 1.82  55 1.84
 118  0.755  0.125  0.252-  61 1.84  45 1.84
 119  0.751  0.625  0.249-  63 1.83  47 1.84
 120  0.250  0.375  0.999-  49 1.83  35 1.84
 121  0.248  0.375  0.497-  50 1.81  36 1.82
 122  0.256  0.876  0.000-  33 1.82  51 1.85
 123  0.253  0.375  0.252-  57 1.83  43 1.84
 124  0.252  0.375  0.752-  44 1.82  58 1.84
 125  0.255  0.876  0.249-  41 1.82  59 1.85
 126  0.247  0.876  0.751-  42 1.80  60 1.86
 127  0.754  0.375  0.749-  62 1.83  48 1.84
 128  0.746  0.876  0.750-  46 1.79  64 1.87
 129  0.007  0.006  0.625-  10 1.97   2 1.98
 130  0.006  0.491  0.124-  11 1.94   3 2.02
 131  0.997  0.499  0.627-   4 1.94  12 2.02
 132  0.505  0.503  0.123-  15 1.93   7 2.04
 133  0.501  0.497  0.626-   8 1.93  16 2.02
 134  0.001  0.998  0.373-   2 1.95   9 2.01
 135  0.001  0.990  0.877-  10 1.95   1 2.03
 136  0.006  0.503  0.375-  11 1.97   4 1.97
 137  0.501  0.006  0.374-  13 2.01   6 2.04
 138  0.501  0.999  0.876-   5 2.01  14 2.05
 139  0.504  0.505  0.374-  15 1.96   8 1.97
 140  0.995  0.757  0.124-  19 2.03  27 2.05
 141  1.000  0.749  0.626-  28 2.00  20 2.03
 142  0.493  0.249  0.625-  22 1.96  30 1.97
 143  0.501  0.754  0.625-  32 1.96  24 1.97
 144  0.999  0.250  0.374-  25 2.01  18 2.04
 145  0.999  0.258  0.876-  17 2.02  26 2.04
 146  0.499  0.246  0.373-  22 1.96  29 1.98
 147  0.499  0.258  0.878-  30 1.96  21 2.02
 148  0.493  0.742  0.373-  24 1.95  31 2.01
 149  0.500  0.748  0.878-  32 1.95  23 2.01
 150  0.244  0.503  0.125-  43 1.94  35 1.94
 151  0.252  0.502  0.625-  44 1.94  36 1.94
 152  0.743  0.003  0.624-  38 1.96  46 1.98
 153  0.745  0.491  0.125-  47 1.97  39 1.97
 154  0.249  0.998  0.376-  41 2.03  34 2.04
 155  0.249  0.003  0.876-  42 2.00  33 2.03
 156  0.245  0.508  0.375-  43 1.94  36 1.95
 157  0.252  0.507  0.875-  35 1.94  44 1.95
 158  0.749  0.995  0.373-  38 1.94  45 2.02
 159  0.749  0.003  0.877-  46 1.95  37 2.01
 160  0.745  0.495  0.376-  47 1.93  40 2.03
 161  0.749  0.499  0.874-  39 1.93  48 2.04
 162  0.258  0.746  0.126-  51 1.93  59 2.04
 163  0.253  0.750  0.624-  60 1.93  52 2.02
 164  0.756  0.248  0.624-  54 1.96  62 1.97
 165  0.252  0.248  0.374-  57 2.01  50 2.04
 166  0.251  0.247  0.876-  49 2.01  58 2.04
 167  0.248  0.745  0.876-  51 1.96  60 1.97
 168  0.750  0.256  0.373-  54 1.94  61 2.02
 169  0.750  0.249  0.877-  62 1.94  53 2.02
 170  0.754  0.754  0.374-  63 2.00  56 2.06
 171  0.749  0.749  0.877-  55 2.00  64 2.05
 172  0.125  0.001  0.997-   1 1.95  33 1.96
 173  0.126  0.002  0.497-  34 1.92   2 2.07
 174  0.126  0.503  0.999-  35 2.03   3 2.06
 175  0.126  0.504  0.504-  36 2.04   4 2.05
 176  0.625  0.000  0.998-  37 1.95   5 1.96
 177  0.626  0.999  0.497-   6 1.93  38 2.05
 178  0.624  0.497  1.000-   7 2.02  39 2.05
 179  0.625  0.500  0.500-   8 2.03  40 2.06
 180  0.125  0.001  0.253-   9 1.95  41 1.96
 181  0.124  0.003  0.753-  42 1.92  10 2.06
 182  0.126  0.499  0.250-  43 2.02  11 2.05
 183  0.625  0.001  0.252-  45 1.95  13 1.96
 184  0.626  0.004  0.753-  14 1.94  46 2.03
 185  0.624  0.499  0.249-  15 2.02  47 2.06
 186  0.624  0.496  0.750-  16 1.97  48 1.98
 187  0.125  0.246  0.996-  17 1.94  49 1.94
 188  0.126  0.243  0.495-  50 1.97  18 1.98
 189  0.624  0.250  0.995-  21 1.93  53 1.97
 190  0.624  0.754  0.996-  23 1.96  55 1.99
 191  0.125  0.248  0.254-  25 1.95  57 1.95
 192  0.125  0.253  0.755-  58 1.98  26 1.98
 193  0.126  0.753  0.240-  59 1.95  27 1.97
 194  0.127  0.746  0.748-  60 2.01  28 2.09
 195  0.625  0.247  0.255-  29 1.95  61 1.96
 196  0.624  0.753  0.259-  31 1.94  63 1.97
 197  0.623  0.749  0.753-  32 2.01  64 2.05
 198  0.375  0.012  0.996-   5 1.94  33 1.96
 199  0.374  0.005  0.495-  34 1.95   6 2.00
 200  0.875  0.994  0.995-  37 1.95   1 1.95
 201  0.375  0.010  0.255-  13 1.95  41 1.95
 202  0.375  0.998  0.754-  42 1.97  14 1.98
 203  0.373  0.501  0.747-  16 1.94  44 2.04
 204  0.875  0.991  0.254-  45 1.95   9 1.95
 205  0.876  0.505  0.751-  48 1.94  12 2.04
 206  0.377  0.246  0.997-  21 1.93  49 1.99
 207  0.376  0.245  0.497-  50 1.94  22 2.05
 208  0.375  0.742  0.998-  23 1.93  51 2.07
 209  0.375  0.747  0.502-  24 2.05  52 2.06
 210  0.875  0.260  0.998-  53 1.94  17 1.96
 211  0.874  0.251  0.497-  18 1.95  54 2.04
 212  0.876  0.753  0.001-  55 1.94  19 2.05
 213  0.874  0.749  0.499-  56 2.03  20 2.04
 214  0.376  0.241  0.251-  29 1.94  57 1.96
 215  0.376  0.249  0.754-  58 1.94  30 2.04
 216  0.376  0.741  0.248-  31 1.94  59 1.96
 217  0.875  0.260  0.252-  61 1.94  25 1.96
 218  0.873  0.247  0.753-  26 1.94  62 2.04
 219  0.875  0.759  0.248-  63 1.95  27 1.96
 220  0.001  0.125  0.495-  18 2.02   2 2.04
 221  0.998  0.625  0.010-   3 1.96  19 1.97
 222  0.000  0.623  0.503-   4 2.00  20 2.02
 223  0.504  0.125  0.990-  21 1.90   5 2.06
 224  0.499  0.125  0.500-  22 2.01   6 2.03
 225  0.506  0.626  0.998-   7 1.92  23 2.01
 226  0.501  0.624  0.504-   8 2.01  24 2.02
 227  0.001  0.624  0.745-  12 1.94  28 1.96
 228  0.504  0.126  0.253-  29 2.01  13 2.01
 229  0.506  0.625  0.250-  15 1.99  31 2.03
 230  0.008  0.373  0.998-   3 1.94  17 2.01
 231  0.999  0.877  0.999-  19 1.94   1 2.00
 232  0.500  0.373  0.006-  21 1.93   7 1.99
 233  0.006  0.374  0.254-  25 1.99  11 2.04
 234  0.994  0.374  0.750-  12 1.93  26 2.03
 235  0.004  0.877  0.250-   9 2.00  27 2.04
 236  0.009  0.877  0.746-  28 1.95  10 2.02
 237  0.495  0.375  0.746-  30 2.02  16 2.03
 238  0.503  0.876  0.755-  14 2.01  32 2.03
 239  0.248  0.126  0.996-  49 2.01  33 2.03
 240  0.250  0.126  0.493-  34 1.91  50 2.03
 241  0.249  0.625  0.001-  35 2.01  51 2.01
 242  0.250  0.623  0.504-  52 1.92  36 2.00
 243  0.750  0.624  0.489-  40 1.95  56 1.96
 244  0.247  0.125  0.256-  57 2.01  41 2.02
 245  0.250  0.125  0.754-  58 2.01  42 2.03
 246  0.245  0.625  0.247-  59 2.01  43 2.02
 247  0.251  0.624  0.748-  60 2.01  44 2.02
 248  0.750  0.126  0.750-  62 2.01  46 2.06
 249  0.747  0.623  0.757-  48 2.00  64 2.02
 250  0.255  0.877  0.500-  34 1.94  52 1.99
 251  0.744  0.373  0.994-  53 1.99  39 2.04
 252  0.750  0.373  0.502-  40 1.94  54 2.01
 253  0.748  0.876  0.994-  37 1.99  55 2.05
 254  0.749  0.877  0.501-  56 1.94  38 2.00
 255  0.743  0.374  0.253-  61 1.99  47 2.03
 256  0.746  0.876  0.254-  45 1.99  63 2.04
 

IMPORTANT INFORMATION: All symmetrisations will be switched off!
NOSYMM: (Re-)initialisation of all symmetry stuff for point group C_1.

 
 
 KPOINTS: Title                                   

Automatic generation of k-mesh.
Space group operators:
 irot       det(A)        alpha          n_x          n_y          n_z        tau_x        tau_y        tau_z
    1     1.000000     0.000000     1.000000     0.000000     0.000000     0.000000     0.000000     0.000000
 
 Subroutine IBZKPT returns following result:
 ===========================================
 
 Found      4 irreducible k-points:
 
 Following reciprocal coordinates:
            Coordinates               Weight
  0.250000  0.250000  0.250000      2.000000
 -0.250000  0.250000  0.250000      2.000000
  0.250000 -0.250000  0.250000      2.000000
 -0.250000 -0.250000  0.250000      2.000000
 
 Following cartesian coordinates:
            Coordinates               Weight
  0.016134  0.016289  0.016206      2.000000
 -0.016126  0.016283  0.016205      2.000000
  0.016127 -0.016281  0.016204      2.000000
 -0.016133 -0.016288  0.016203      2.000000
 


--------------------------------------------------------------------------------------------------------




 Dimension of arrays:
   k-points           NKPTS =      4   k-points in BZ     NKDIM =      4   number of bands    NBANDS=   1280
   number of dos      NEDOS =   3001   number of ions     NIONS =    256
   non local maximal  LDIM  =      6   non local SUM 2l+1 LMDIM =     18
   total plane-waves  NPLWV = ******
   max r-space proj   IRMAX =  10364   max aug-charges    IRDMAX= 232345
   dimension x,y,z NGX =   140 NGY =  140 NGZ =  140
   dimension x,y,z NGXF=   280 NGYF=  280 NGZF=  280
   support grid    NGXF=   560 NGYF=  560 NGZF=  560
   ions per type =              64  64 128
   NGX,Y,Z   is equivalent  to a cutoff of  15.02, 15.16, 15.09 a.u.
   NGXF,Y,Z  is equivalent  to a cutoff of  30.03, 30.32, 30.17 a.u.

 SYSTEM =  LTO                                     
 POSCAR =  Ti64 O64 F128                           

 Startparameter for this run:
   NWRITE =      2    write-flag & timer
   PREC   = accura    normal or accurate (medium, high low for compatibility)
   ISTART =      1    job   : 0-new  1-cont  2-samecut
   ICHARG =      0    charge: 1-file 2-atom 10-const
   ISPIN  =      2    spin polarized calculation?
   LNONCOLLINEAR =      F non collinear calculations
   LSORBIT =      F    spin-orbit coupling
   INIWAV =      1    electr: 0-lowe 1-rand  2-diag
   LASPH  =      T    aspherical Exc in radial PAW
   METAGGA=      F    non-selfconsistent MetaGGA calc.

 Electronic Relaxation 1
   ENCUT  =  700.0 eV  51.45 Ry    7.17 a.u.  33.44 33.12 33.28*2*pi/ulx,y,z
   ENINI  =  700.0     initial cutoff
   ENAUG  =  613.6 eV  augmentation charge cutoff
   NELM   =     60;   NELMIN=  2; NELMDL=  0     # of ELM steps 
   EDIFF  = 0.1E-05   stopping-criterion for ELM
   LREAL  =      T    real-space projection
   NLSPLINE    = F    spline interpolate recip. space projectors
   LCOMPAT=      F    compatible to vasp.4.4
   GGA_COMPAT  = T    GGA compatible to vasp.4.4-vasp.4.6
   LMAXPAW     = -100 max onsite density
   LMAXMIX     =    4 max onsite mixed and CHGCAR
   VOSKOWN=      0    Vosko Wilk Nusair interpolation
   ROPT   =   -0.00010  -0.00010  -0.00010
 Ionic relaxation
   EDIFFG = -.1E-01   stopping-criterion for IOM
   NSW    =    100    number of steps for IOM
   NBLOCK =      1;   KBLOCK =    100    inner block; outer block 
   IBRION =      1    ionic relax: 0-MD 1-quasi-New 2-CG
   NFREE  =      0    steps in history (QN), initial steepest desc. (CG)
   ISIF   =      3    stress and relaxation
   IWAVPR =     11    prediction:  0-non 1-charg 2-wave 3-comb
   ISYM   =      0    0-nonsym 1-usesym 2-fastsym
   LCORR  =      T    Harris-Foulkes like correction to forces

   POTIM  = 0.5000    time-step for ionic-motion
   TEIN   =    0.0    initial temperature
   TEBEG  =    0.0;   TEEND  =   0.0 temperature during run
   SMASS  =  -3.00    Nose mass-parameter (am)
   estimated Nose-frequenzy (Omega)   =  0.10E-29 period in steps =****** mass=  -0.549E-26a.u.
   SCALEE = 1.0000    scale energy and forces
   NPACO  =    256;   APACO  = 16.0  distance and # of slots for P.C.
   PSTRESS=    0.0 pullay stress

  Mass of Ions in am
   POMASS =  47.88 16.00 19.00
  Ionic Valenz
   ZVAL   =  10.00  6.00  7.00
  Atomic Wigner-Seitz radii
   RWIGS  =  -1.00 -1.00 -1.00
  virtual crystal weights 
   VCA    =   1.00  1.00  1.00
   NELECT =    1920.0000    total number of electrons
   NUPDOWN=      -1.0000    fix difference up-down

 DOS related values:
   EMIN   =  10.00;   EMAX   =-10.00  energy-range for DOS
   EFERMI =   0.00
   ISMEAR =     0;   SIGMA  =   0.01  broadening in eV -4-tet -1-fermi 0-gaus

 Electronic relaxation 2 (details)
   IALGO  =     38    algorithm
   LDIAG  =      T    sub-space diagonalisation (order eigenvalues)
   LSUBROT=      F    optimize rotation matrix (better conditioning)
   TURBO    =      0    0=normal 1=particle mesh
   IRESTART =      0    0=no restart 2=restart with 2 vectors
   NREBOOT  =      0    no. of reboots
   NMIN     =      0    reboot dimension
   EREF     =   0.00    reference energy to select bands
   IMIX   =      4    mixing-type and parameters
     AMIX     =   0.40;   BMIX     =  1.00
     AMIX_MAG =   1.60;   BMIX_MAG =  1.00
     AMIN     =   0.10
     WC   =   100.;   INIMIX=   1;  MIXPRE=   1;  MAXMIX= -45

 Intra band minimization:
   WEIMIN = 0.0010     energy-eigenvalue tresh-hold
   EBREAK =  0.20E-09  absolut break condition
   DEPER  =   0.30     relativ break condition  

   TIME   =   0.40     timestep for ELM

  volume/ion in A,a.u.               =      14.34        96.77
  Fermi-wavevector in a.u.,A,eV,Ry     =   1.319026  2.492597 23.671814  1.739829
  Thomas-Fermi vector in A             =   2.448954
 
 Write flags
   LWAVE        =      T    write WAVECAR
   LDOWNSAMPLE  =      F    k-point downsampling of WAVECAR
   LCHARG       =      T    write CHGCAR
   LVTOT        =      F    write LOCPOT, total local potential
   LVHAR        =      F    write LOCPOT, Hartree potential only
   LELF         =      F    write electronic localiz. function (ELF)
   LORBIT       =     11    0 simple, 1 ext, 2 COOP (PROOUT), +10 PAW based schemes


 Dipole corrections
   LMONO  =      F    monopole corrections only (constant potential shift)
   LDIPOL =      F    correct potential (dipole corrections)
   IDIPOL =      0    1-x, 2-y, 3-z, 4-all directions 
   EPSILON=  1.0000000 bulk dielectric constant

 LDA+U is selected, type is set to LDAUTYPE =  2
   angular momentum for each species LDAUL =     2   -1   -1
   U (eV)           for each species LDAUU =   4.2  0.0  0.0
   J (eV)           for each species LDAUJ =   0.0  0.0  0.0
 Exchange correlation treatment:
   GGA     =    PS    GGA type
   LEXCH   =    14    internal setting for exchange type
   VOSKOWN=      0    Vosko Wilk Nusair interpolation
   LHFCALC =     F    Hartree Fock is set to
   LHFONE  =     F    Hartree Fock one center treatment
   AEXX    =    0.0000 exact exchange contribution

 Linear response parameters
   LEPSILON=     F    determine dielectric tensor
   LRPA    =     F    only Hartree local field effects (RPA)
   LNABLA  =     F    use nabla operator in PAW spheres
   LVEL    =     F    velocity operator in full k-point grid
   LINTERFAST=   F  fast interpolation
   KINTER  =     0    interpolate to denser k-point grid
   CSHIFT  =0.1000    complex shift for real part using Kramers Kronig
   OMEGAMAX=  -1.0    maximum frequency
   DEG_THRESHOLD= 0.2000000E-02 threshold for treating states as degnerate
   RTIME   =   -0.100 relaxation time in fs
  (WPLASMAI=    0.000 imaginary part of plasma frequency in eV, 0.658/RTIME)
   DFIELD  = 0.0000000 0.0000000 0.0000000 field for delta impulse in time
 
 Orbital magnetization related:
   ORBITALMAG=     F  switch on orbital magnetization
   LCHIMAG   =     F  perturbation theory with respect to B field
   DQ        =  0.001000  dq finite difference perturbation B field
   LLRAUG    =     F  two centre corrections for induced B field



--------------------------------------------------------------------------------------------------------


 quasi-Newton-method for relaxation of ions
 charge density and potential will be updated during run
 spin polarized calculation
 Variant of blocked Davidson
 Davidson routine will perform the subspace rotation
 perform sub-space diagonalisation
    after iterative eigenvector-optimisation
 modified Broyden-mixing scheme, WC =      100.0
 initial mixing is a Kerker type mixing with AMIX =  0.4000 and BMIX =      1.0000
 Hartree-type preconditioning will be used
 using additional bands          320
 real space projection scheme for non local part
 use partial core corrections
 calculate Harris-corrections to forces 
   (improved forces if not selfconsistent)
 use gradient corrections 
 use of overlap-Matrix (Vanderbilt PP)
 Gauss-broadening in eV      SIGMA  =   0.01


--------------------------------------------------------------------------------------------------------


  energy-cutoff  :      700.00
  volume of cell :     3670.84
      direct lattice vectors                 reciprocal lattice vectors
    15.499158738 -0.003061733 -0.000460341     0.064519633  0.000012794  0.000001918
    -0.003044019 15.351511036 -0.000666824     0.000012868  0.065140170  0.000002827
    -0.000458454 -0.000669473 15.427890450     0.000001926  0.000002816  0.064817676

  length of vectors
    15.499159048 15.351511352 15.427890471     0.064519635  0.065140171  0.064817676


 
 old parameters found on file WAVECAR:
  energy-cutoff  :      700.00
  volume of cell :     3670.89
      direct lattice vectors                 reciprocal lattice vectors
    15.499233956 -0.003060156 -0.000459498     0.064519320  0.000012787  0.000001914
    -0.003042447 15.351613624 -0.000667287     0.000012861  0.065139735  0.000002829
    -0.000457613 -0.000669933 15.427930084     0.000001922  0.000002818  0.064817509

  length of vectors

 
 k-points in units of 2pi/SCALE and weight: Title                                   
   0.01613361  0.01628894  0.01620561       0.250
  -0.01612621  0.01628255  0.01620465       0.250
   0.01612717 -0.01628114  0.01620419       0.250
  -0.01613264 -0.01628754  0.01620323       0.250
 
 k-points in reciprocal lattice and weights: Title                                   
   0.25000000  0.25000000  0.25000000       0.250
  -0.25000000  0.25000000  0.25000000       0.250
   0.25000000 -0.25000000  0.25000000       0.250
  -0.25000000 -0.25000000  0.25000000       0.250
 
 position of ions in fractional coordinates (direct lattice) 
   0.99956464  0.00760477  0.00680388
   0.99271900  0.99225496  0.49891105
   0.99294677  0.49854506  0.99336097
   0.99434326  0.49327849  0.50157930
   0.49898159  0.99200690  0.00593770
   0.50201534  0.99313981  0.50558612
   0.49370152  0.50181552  0.99158980
   0.49415039  0.49381250  0.50085525
   0.99974301  0.00651608  0.24284497
   0.99165965  0.00692645  0.75195093
   0.99375877  0.50635631  0.24806608
   0.00736613  0.49887541  0.75814929
   0.49943399  0.99508857  0.24403009
   0.50162551  0.00643219  0.74352701
   0.49380177  0.49619835  0.24786102
   0.49790883  0.50641672  0.75655414
   0.99960100  0.24319747  0.00581836
   0.99880564  0.25541570  0.50648076
   0.00761679  0.75169082  0.99362282
   0.00559736  0.75446558  0.49450168
   0.50035814  0.24757899  0.00879687
   0.50732736  0.25588818  0.49938623
   0.49792869  0.75667493  0.00792041
   0.50636910  0.75573963  0.49758729
   0.99968202  0.24455058  0.24430274
   0.99812266  0.24176282  0.74438215
   0.00007688  0.74410946  0.25628540
   0.99233184  0.75166416  0.75536577
   0.49989927  0.25682557  0.24510229
   0.50736784  0.24402877  0.75227238
   0.49993143  0.75679242  0.24329737
   0.49348318  0.74420749  0.75199337
   0.25074675  0.99409552  0.00723306
   0.24911485  0.00233131  0.50804742
   0.25681939  0.49453239  0.00020472
   0.25727819  0.49315552  0.49949828
   0.75018147  0.00556727  0.00718238
   0.75850922  0.00690704  0.49829165
   0.75611022  0.50567794  0.99873173
   0.75767849  0.49897957  0.50658290
   0.25051312  0.99391901  0.24454741
   0.24784270  0.99307048  0.74656340
   0.25617598  0.49432485  0.25007950
   0.24178715  0.49314431  0.74990547
   0.75049762  0.00534491  0.24282989
   0.75664699  0.99199501  0.75121270
   0.75674850  0.50512253  0.25148024
   0.75169667  0.49426292  0.74169720
   0.24926152  0.25592423  0.00599024
   0.25129743  0.25729674  0.50627488
   0.24193958  0.75585764  0.00260308
   0.24230877  0.74772551  0.49343641
   0.75071896  0.24432740  0.00742315
   0.74195128  0.24231336  0.49813557
   0.75108259  0.74389781  0.00684798
   0.74315615  0.75069065  0.50711718
   0.25001514  0.25561768  0.24418898
   0.25184917  0.25557007  0.74403168
   0.25020188  0.75556749  0.25794566
   0.25633025  0.75520464  0.74881771
   0.75038768  0.24417802  0.24286472
   0.74243380  0.25643058  0.75126853
   0.75010255  0.74386097  0.24434292
   0.75491440  0.75444123  0.74474270
   0.99924118  0.00071850  0.12421812
   0.49948348  0.00501412  0.12461154
   0.49968929  0.99925756  0.62519699
   0.99959042  0.50362739  0.87569351
   0.49775815  0.49565082  0.87505775
   0.99997802  0.25062222  0.12442793
   0.00003900  0.24623907  0.62570937
   0.50154708  0.24398004  0.12337366
   0.50258715  0.74787941  0.12546288
   0.00209866  0.74798958  0.37287434
   0.00330950  0.74794238  0.87636002
   0.25031185  0.00470361  0.12547231
   0.25033692  0.00327702  0.62360812
   0.75110449  0.99600767  0.12499569
   0.75031598  0.50473317  0.62433919
   0.25021514  0.24734791  0.12499713
   0.25011838  0.24750845  0.62489834
   0.74803331  0.25366275  0.12502659
   0.74581858  0.75524062  0.12559349
   0.74768477  0.74502252  0.62402639
   0.25004911  0.74784162  0.37387086
   0.12470917  0.49747203  0.74947802
   0.12585126  0.75219550  0.00627031
   0.12699249  0.75039751  0.50141840
   0.62456791  0.24987603  0.50235889
   0.62364048  0.75071563  0.49504582
   0.62467702  0.25211016  0.74852710
   0.37527108  0.50106618  0.00400229
   0.37492757  0.50067698  0.49718253
   0.87468107  0.00056422  0.50264661
   0.87483487  0.49531496  0.00249650
   0.87547586  0.49818350  0.49678060
   0.37542125  0.50392394  0.24910691
   0.87572783  0.99830206  0.74747236
   0.87485891  0.49488840  0.24988038
   0.37489529  0.75163520  0.75227428
   0.87609959  0.75185324  0.75173608
   0.99407922  0.12512705  0.99312476
   0.99442529  0.12511710  0.25177656
   0.00128938  0.12483385  0.75910600
   0.99835432  0.62465634  0.24351737
   0.49850986  0.12600574  0.75403964
   0.50024193  0.62422526  0.74932430
   0.00434559  0.37414950  0.50009906
   0.00077993  0.87605062  0.50209158
   0.49857653  0.37434682  0.49665478
   0.49287688  0.87527497  0.99988440
   0.49649132  0.87564984  0.49417942
   0.49799691  0.37356244  0.24866604
   0.49529940  0.87599958  0.25241645
   0.75339172  0.12532660  0.00110032
   0.74963368  0.12522326  0.49461997
   0.74973707  0.62422637  0.00338392
   0.75511024  0.12498049  0.25203031
   0.75127843  0.62478526  0.24925550
   0.24988883  0.37475563  0.99854018
   0.24802592  0.37494749  0.49742953
   0.25600944  0.87566947  0.00028105
   0.25283555  0.37473288  0.25157317
   0.25219743  0.37500094  0.75217470
   0.25508639  0.87550434  0.24857862
   0.24680239  0.87566595  0.75120991
   0.75416646  0.37486252  0.74901049
   0.74639173  0.87609173  0.74990668
   0.00739501  0.00609168  0.62535205
   0.00559320  0.49134321  0.12353521
   0.99743928  0.49868457  0.62746343
   0.50462255  0.50284354  0.12343976
   0.50131245  0.49708200  0.62592538
   0.00116731  0.99814502  0.37312787
   0.00093262  0.99029881  0.87663267
   0.00638966  0.50276440  0.37476392
   0.50123225  0.00626592  0.37399075
   0.50082974  0.99929784  0.87616506
   0.50403866  0.50491916  0.37397443
   0.99510253  0.75650693  0.12439165
   0.99984273  0.74859359  0.62572317
   0.49300137  0.24933245  0.62530242
   0.50077852  0.75415454  0.62545605
   0.99853059  0.25019809  0.37432594
   0.99873395  0.25780060  0.87595240
   0.49880258  0.24578385  0.37320958
   0.49948657  0.25841065  0.87845714
   0.49275798  0.74187410  0.37250152
   0.50034758  0.74817915  0.87782195
   0.24414415  0.50328516  0.12521444
   0.25177674  0.50246227  0.62484439
   0.74304990  0.00305918  0.62435897
   0.74480395  0.49051796  0.12516919
   0.24893952  0.99841351  0.37603288
   0.24920350  0.00261913  0.87568872
   0.24461985  0.50838246  0.37472142
   0.25244210  0.50741495  0.87489300
   0.74936164  0.99544385  0.37342109
   0.74927468  0.00283575  0.87664329
   0.74471464  0.49461155  0.37579634
   0.74853773  0.49946148  0.87378512
   0.25812088  0.74578112  0.12624432
   0.25342624  0.75045711  0.62377552
   0.75614224  0.24772172  0.62443949
   0.25192094  0.24839429  0.37445639
   0.25147084  0.24739614  0.87583711
   0.24784750  0.74451344  0.87587990
   0.75031709  0.25569583  0.37339113
   0.75007979  0.24865197  0.87667162
   0.75427482  0.75364701  0.37385097
   0.74892513  0.74927665  0.87720130
   0.12460516  0.00055004  0.99697239
   0.12580934  0.00225778  0.49718698
   0.12582948  0.50309851  0.99876582
   0.12609469  0.50380852  0.50368475
   0.62473088  0.00003781  0.99774556
   0.62639740  0.99924090  0.49692474
   0.62396291  0.49668130  0.99969147
   0.62495400  0.50016773  0.49968367
   0.12486750  0.00128418  0.25301678
   0.12422626  0.00293125  0.75266328
   0.12593533  0.49890287  0.24976884
   0.62517452  0.00140914  0.25218697
   0.62613954  0.00441688  0.75313964
   0.62411567  0.49892238  0.24949734
   0.62434857  0.49553162  0.75006427
   0.12457522  0.24601953  0.99579001
   0.12568667  0.24334521  0.49546465
   0.62413554  0.24964925  0.99505763
   0.62378094  0.75380700  0.99632501
   0.12491288  0.24756175  0.25378416
   0.12487482  0.25263453  0.75487084
   0.12595557  0.75263875  0.23975974
   0.12670780  0.74578782  0.74754277
   0.62478893  0.24711382  0.25455565
   0.62411355  0.75266261  0.25885704
   0.62303556  0.74943424  0.75323972
   0.37543861  0.01165913  0.99594747
   0.37399489  0.00491350  0.49531244
   0.87475475  0.99381013  0.99517866
   0.37510915  0.00988057  0.25468880
   0.37454804  0.99838939  0.75418251
   0.37302631  0.50140244  0.74691978
   0.87506566  0.99145985  0.25442741
   0.87640067  0.50472732  0.75052735
   0.37667148  0.24562154  0.99738054
   0.37569032  0.24523794  0.49722681
   0.37474948  0.74155253  0.99788000
   0.37467901  0.74671534  0.50190407
   0.87476554  0.25995815  0.99753308
   0.87357177  0.25134754  0.49728864
   0.87574984  0.75324822  0.00073609
   0.87415469  0.74873054  0.49931533
   0.37573058  0.24124400  0.25142401
   0.37614835  0.24938520  0.75403305
   0.37557713  0.74076470  0.24818723
   0.87455941  0.25969031  0.25209783
   0.87347227  0.24693064  0.75342084
   0.87469084  0.75925878  0.24822223
   0.00086263  0.12464194  0.49489962
   0.99778624  0.62498461  0.01002703
   0.00011391  0.62346034  0.50337274
   0.50440467  0.12518928  0.99025334
   0.49921849  0.12525289  0.49966812
   0.50589767  0.62633629  0.99767552
   0.50057967  0.62431216  0.50423653
   0.00089799  0.62446942  0.74491001
   0.50377644  0.12596149  0.25257306
   0.50599536  0.62508710  0.24950865
   0.00776523  0.37344679  0.99816702
   0.99941731  0.87745418  0.99947519
   0.50005411  0.37312600  0.00618576
   0.00566749  0.37393573  0.25393305
   0.99426108  0.37397343  0.75022685
   0.00418093  0.87671813  0.25021324
   0.00903464  0.87687430  0.74563805
   0.49494561  0.37468965  0.74609327
   0.50325868  0.87577449  0.75476296
   0.24794043  0.12555752  0.99561338
   0.25004458  0.12572229  0.49312860
   0.24918893  0.62497155  0.00130776
   0.24990284  0.62309116  0.50405844
   0.74953049  0.62423594  0.48885472
   0.24677707  0.12503666  0.25624908
   0.25026711  0.12495424  0.75379399
   0.24497986  0.62507916  0.24690233
   0.25067666  0.62423876  0.74775768
   0.75047206  0.12570356  0.74985012
   0.74659268  0.62338384  0.75687128
   0.25464752  0.87653573  0.50003002
   0.74449770  0.37343716  0.99445731
   0.74979221  0.37305365  0.50189618
   0.74822058  0.87645372  0.99365267
   0.74904030  0.87710133  0.50130779
   0.74348704  0.37350424  0.25282345
   0.74550349  0.87640614  0.25441355
 
 position of ions in cartesian coordinates  (Angst):
  15.49238472  0.11367969  0.10450437
  15.38306013 15.22923958  7.69602643
  15.38786655  7.64971482 15.32467470
  15.40975253  7.56918995  7.73752382
   7.73077247 15.22727317  0.09071499
   7.77756048 15.24432117  7.79923393
   7.64997606  7.70145114 15.29757692
   7.65718257  7.57891980  7.72658313
  15.49504442  0.09680818  3.74612105
  15.36952458  0.10279180 11.60055541
  15.40076987  7.77012584  3.82634120
   0.11230259  7.65796120 11.69630812
   7.73766579 15.27442067  3.76397598
   7.77441293  0.09671015 11.47081798
   7.65188794  7.61571663  3.82341448
   7.71527954  7.77223095 11.67146756
  15.49223167  3.73038418  0.08914274
  15.47963742  3.91761973  7.81329958
   0.11531011 11.53890137 15.32899928
   0.08423110 11.58183844  7.62861214
   7.75437264  3.79917381  0.13532168
   7.86213947  3.92638261  7.70407185
   7.71516888 11.61457370  0.12146147
   7.84576646 11.59986174  7.67598511
  15.49337387  3.75099656  3.76845258
  15.46898437  3.70787030 11.48362557
  -0.00119102 11.42303275  3.95344681
  15.37767438 11.53563670 11.65274238
   7.74712396  3.94096596  3.78100988
   7.86268700  3.74415331 11.60557962
   7.74610134 11.61621371  3.75283037
   7.64596394 11.42269514 11.60094793
   3.88333440 15.26009586  0.11081253
   3.86083057  0.03468625  7.83798377
   3.97897902  7.59103300  0.00271035
   3.98586531  7.56956031  7.70575747
  11.62716140  0.08316430  0.11045997
  11.75600533  0.10337750  7.68723521
  11.71707510  7.75993691 15.40763844
  11.74162809  7.65743147  7.81482400
   3.87960498 15.25722792  3.77207256
   3.83798818 15.24387383 11.51712210
   3.96889278  7.58768166  3.85775165
   3.74565247  7.56926798 11.56901929
  11.63195414  0.07959204  3.74600384
  11.72402775 15.22580275 11.58861747
  11.72731216  7.75190877  3.87912447
  11.64882137  7.58488469 11.44214760
   3.86256214  3.92805648  0.09213131
   3.89388346  3.94878533  7.81046617
   3.74755792 11.60281447  0.03954458
   3.75307981 11.47764417  7.61207276
  11.63476523  3.74849133  0.11401511
  11.49865464  3.71727107  7.68467787
  11.63888068 11.41765127  0.10480801
  11.51577747 11.52162092  7.82290559
   3.87413427  3.92318871  3.76703525
   3.90233119  3.92211760 11.47855289
   3.87550041 11.59816385  3.97893844
   3.97026110 11.59224617 11.55205596
  11.62952312  3.74604151  3.74638210
  11.50597438  3.93382076 11.58997582
  11.62358213 11.41692969  3.76885449
  11.69790020 11.57900298 11.48895815
  15.48733860  0.00788747  1.91596309
   7.74150131  0.07536161  1.92225987
   7.74143529 15.33816496  9.64457435
  15.49087605  7.72779473 13.50930751
   7.71292266  7.60687927 13.49973548
  15.49799809  3.84428477  1.91903310
  -0.00043191  3.77972283  9.65321141
   7.77275852  3.74384401  1.90300170
   7.78734389 11.47945621  1.93489743
   0.03007969 11.48251420  5.75216468
   0.04861592 11.48144893 13.51988610
   3.87955120  0.07135715  1.93565462
   3.87971586  0.04912331  9.62084027
  11.63839860 15.28783931  1.92740986
  11.62744378  7.74570160  9.63155464
   3.87731395  3.79631447  1.92816196
   3.87558461  3.79844449  9.64058296
  11.59305754  3.89173251  1.92838301
  11.55720402 11.59171718  1.93679562
  11.58593106 11.43451448  9.62656986
   3.87310299 11.47948295  5.76742490
   1.93102925  7.63606379 11.56247568
   1.94829614 11.54694797  0.09617818
   1.96576270 11.51901120  7.73526930
   9.67928630  3.83372608  7.74988384
   9.66339069 11.52237850  7.63672498
   9.68085767  3.86785824 11.54773841
   5.81485898  7.69097134  0.06124003
   5.80930999  7.68466733  7.66997111
  13.55658862  0.00564709  7.75437377
  13.55769563  7.60115288  0.03778274
  13.56739511  7.64485648  7.66354146
   5.81706543  7.73467779  3.84268527
  13.56966312 15.32226348 11.53085283
  13.55795607  7.59443885  3.85439444
   5.80792868 11.53708459 11.60533135
  13.57617339 11.53889772 11.59679718
  15.40655539  1.91718089 15.32127896
  15.41225912  1.91752326  3.88383996
   0.01925632  1.91587603 11.71132040
  15.47163898  9.58619891  3.75608323
   7.72575426  1.93234740 11.63292745
   7.75108539  9.58076771 11.55984675
   0.06598473  5.74341209  7.71522196
   0.00919142 13.44836217  7.74562934
   7.72614951  5.74493032  7.66185642
   7.63605420 13.43461496 15.42529640
   7.69230577 13.44069722  7.62333355
   7.71728198  5.73305676  3.83591401
   7.67394173 13.44623177  3.89344126
  11.67655585  1.92164530  0.01654521
  11.61808341  1.91973998  7.63051410
  11.61839212  9.58052028  0.05144540
  11.70307756  1.91615866  3.88786502
  11.64216750  9.58893073  3.84472411
   3.87146809  5.75163159 15.40500355
   3.84282368  5.75491807  7.67392403
   3.96526531 13.44206544  0.00363430
   3.91748230  5.75177342  3.88087706
   3.90736167  5.75555534 11.60410266
   3.95084545 13.43936708  3.83434253
   3.82221950 13.44153700 11.58888665
  11.68746126  5.75189560 11.55505465
  11.56543331 13.44654459 11.56855026
   0.11431116  0.09307520  9.64785538
   0.08513767  7.54276096  1.90555744
  15.45766414  7.65208776  9.67964543
   7.81963774  7.71778046  1.90384744
   7.76812109  7.62900596  9.65614590
   0.01488296 15.32278089  5.75590973
   0.01103849 15.20199341 13.52393205
   0.09733204  7.71792276  5.78147857
   7.76848769  0.09440637  5.76965336
   7.75899602 15.33861181 13.51648162
   7.81046676  7.74947847  5.76906774
  15.42089229 11.61039452  1.91813814
  15.49415554 11.48856265  9.65262910
   7.64006085  3.82570173  9.64670398
   7.75906335 11.57545980  9.64873405
  15.47545094  3.83761095  5.77443310
  15.47834975  3.95398441 13.51346593
   7.73010107  3.77137651  5.75744294
   7.74043236  3.96487653 13.55233824
   7.63490514 11.38713031  5.74619116
   7.75228666 11.48356089 13.54221157
   3.78243957  7.72535639  1.93134663
   3.90051165  7.71236591  9.63957988
  11.51635274  0.04426995  9.63219763
  11.54228409  7.52782767  1.93042653
   3.85514155 15.32614209  5.80061376
   3.86203517  0.03885835 13.50991322
   3.78968258  7.80343907  5.78070939
   3.91069447  7.78822757 13.49729873
  11.61127370 15.27902295  5.76009096
  11.61271664  0.04065211 13.52440975
  11.54077253  7.59050300  5.79707207
  11.59978419  7.66461156 13.47998343
   3.99832851 11.44799236  1.94706743
   3.92532315 11.51945713  9.62292332
  11.71852822  3.80016950  9.63327085
   3.90363490  3.81220567  5.77679050
   3.89643185  3.79654827 13.51203829
   3.83875986 11.42806113 13.51236860
  11.62833416  3.92277011  5.76012158
  11.62444699  3.81429999 13.52468262
  11.68815964 11.56706066  5.76688209
  11.60502658 11.49964849 13.53252115
   1.93081635  0.00739501 15.38112310
   1.94970415  0.03394233  7.67048689
   1.94826173  7.72226844 15.40845625
   1.95259714  7.73349874  7.77039907
   9.68234558 -0.00200030 15.39282157
   9.70536314 15.33760711  7.66554580
   9.66893004  7.62222876 15.42251202
   9.68450958  7.67608248  7.70844376
   1.93522130  0.01916240  3.90345687
   1.92504854  0.04411481 11.61194751
   1.95025843  7.65836005  3.85301565
   9.68955922  0.01954941  3.89042418
   9.70427733  0.06538457 11.61906473
   9.67163475  7.65713456  3.84859758
   9.67502537  7.60474537 11.57129148
   1.92960571  3.77572341 15.36271780
   1.94706972  3.73500021  7.64375426
   9.67235969  3.82991619 15.35118634
   9.66532842 11.56949963 15.37040327
   1.93517461  3.79989461  3.91513160
   1.93433951  3.87743405 11.64583868
   1.94980440 11.55359585  3.69842721
   1.96125136 11.44808152 11.53245226
   9.68283394  3.79148719  3.92680433
   9.67082514 11.55242421  3.99282879
   9.65390036 11.50253615 11.62011338
   5.81849053  0.17716906 15.36518785
   5.79636412  0.07395303  7.64145060
  13.55448124 15.25314262 15.35244202
   5.81372944  0.15036271  3.92913169
   5.80179471 15.32513402 11.63460693
   5.77972533  7.69564292 11.52289043
  13.55964683 15.21755731  3.92421430
  13.58159260  7.74514127 11.57831368
   5.83688608  3.76884086 15.38714057
   5.82190947  3.76328984  7.67082430
   5.80558687 11.38213648 15.39451627
   5.80470636 11.46172565  7.74265065
  13.55688133  3.98740428 15.38925510
  13.53863447  3.85555696  7.67154489
  13.57109261 11.56081653  0.01045086
  13.54615427 11.49113442  7.70248051
   5.82265830  3.70214121  3.87860828
   5.82887820  3.82678321 11.63279989
   5.81876090 11.37054147  3.82833848
  13.55402901  3.98379229  3.88876192
  13.53698828  3.78757974 11.62312746
  13.55454716 11.65292524  3.82863646
   0.01276370  1.91310819  7.63517366
  15.46294022  9.59139640  0.15381977
  -0.00036313  9.57072101  7.76556373
   7.81701299  1.91963729 15.27720443
   7.73685626  1.92095816  7.70851163
   7.83862440  9.61299157 15.39137813
   7.75643215  9.58226476  7.77865913
   0.01167564  9.58604767 11.49197314
   7.80761181  1.93198769  3.89635360
   7.84048519  9.59431523  3.84874242
   0.11876014  5.73228057 15.39935877
  15.48699837 13.46651850 15.41874857
   7.74927935  5.72651277  0.09495417
   0.08658663  5.74029114  3.91739931
  15.40872800  5.73751086 11.57371053
   0.06201737 13.45876777  3.85967590
   0.13701831 13.46081858 11.50303322
   7.66975789  5.75003736 11.51016751
   7.79707427 13.44241565 11.64358455
   3.84202937  1.92607197 15.36001624
   3.87487185  1.92893142  7.60773504
   3.86031576  9.59349389  0.01964454
   3.87115602  9.56428817  7.77602783
  11.61496772  9.58034284  7.54123570
   3.82433890  1.91857462  3.95318583
   3.87820372  1.91696552 11.62925257
   3.79496577  9.59499425  3.80865255
   3.88303438  9.58174016 11.53579199
  11.63095918  1.92693991 11.56817625
  11.56931380  9.56709134 11.67616781
   3.94392497 13.45503346  7.71370666
  11.53749534  5.72987948 15.34178666
  11.61978281  5.72430554  7.74260542
  11.59366612 13.45193289 15.32903565
  11.60659480 13.46220182  7.73319196
  11.52217075  5.73140890  3.89994111
  11.55189248 13.45170568  3.92413672
 


--------------------------------------------------------------------------------------------------------


 k-point  1 :   0.2500 0.2500 0.2500  plane waves:  154381
 k-point  2 :  -0.2500 0.2500 0.2500  plane waves:  154375
 k-point  3 :   0.2500-0.2500 0.2500  plane waves:  154376
 k-point  4 :  -0.2500-0.2500 0.2500  plane waves:  154379

 maximum and minimum number of plane-waves per node :     19343    19243

 maximum number of plane-waves:    154381
 maximum index in each direction: 
   IXMAX=   33   IYMAX=   33   IZMAX=   33
   IXMIN=  -33   IYMIN=  -33   IZMIN=  -33


 real space projection operators:
  total allocation   :     149128.52 KBytes
  max/ min on nodes  :      19755.92      17531.19


 parallel 3D FFT for wavefunctions:
    minimum data exchange during FFTs selected (reduces bandwidth)
 parallel 3D FFT for charge:
    minimum data exchange during FFTs selected (reduces bandwidth)


 total amount of memory used by VASP MPI-rank0   389540. kBytes
=======================================================================

   base      :      30000. kBytes
   nonlr-proj:      69329. kBytes
   fftplans  :      38734. kBytes
   grid      :      49123. kBytes
   one-center:        995. kBytes
   wavefun   :     201359. kBytes
 
     INWAV:  cpu time  128.1825: real time  153.4214
 Broyden mixing: mesh for mixing (old mesh)
   NGX = 67   NGY = 67   NGZ = 67
  (NGX  =280   NGY  =280   NGZ  =280)
  gives a total of 300763 points

 charge density for first step will be calculated from the start-wavefunctions


--------------------------------------------------------------------------------------------------------


 Maximum index for non-local projection operator         1585
 Maximum index for augmentation-charges         4505 (set IRDMAX)


--------------------------------------------------------------------------------------------------------


 initial charge from wavefunction
 First call to EWALD:  gamma=   0.115
 Maximum number of real-space cells 3x 3x 3
 Maximum number of reciprocal cells 3x 3x 3

    FEWALD:  cpu time    0.0240: real time    0.0233


--------------------------------------- Iteration      1(   1)  ---------------------------------------


    POTLOK:  cpu time    0.7169: real time    0.7863
    SETDIJ:  cpu time    2.3516: real time    2.3578
     EDDAV:  cpu time  167.1356: real time  170.8599
       DOS:  cpu time    0.0050: real time    0.0050
    CHARGE:  cpu time    8.3087: real time    8.3275
    MIXING:  cpu time    0.0710: real time    0.0713
    --------------------------------------------
      LOOP:  cpu time  178.5889: real time  182.4079

 eigenvalue-minimisations  : 18912
 total energy-change (2. order) :-0.1709039E+04  (-0.4037494E-06)
 number of electron    1920.0000026 magnetization       0.0000000
 augmentation part      495.6170484 magnetization       0.0000000

 Broyden mixing:
  rms(total) = 0.29606E-03    rms(broyden)= 0.28541E-03
  rms(prec ) = 0.45898E-03
  weight for this iteration     100.00

 Free energy of the ion-electron system (eV)
  ---------------------------------------------------
  alpha Z        PSCENC =      6105.03691386
  Ewald energy   TEWEN  =   -102819.57274867
  -Hartree energ DENC   =    -65592.09942896
  -exchange      EXHF   =         0.00000000
  -V(xc)+E(xc)   XCENC  =      8959.05653474
  PAW double counting   =    144210.07301557  -145199.49207600
  entropy T*S    EENTRO =        -0.00000000
  eigenvalues    EBANDS =    -25790.86652733
  atomic energy  EATOM  =    178418.82573015
  Solvation  Ediel_sol  =         0.00000000
  ---------------------------------------------------
  free energy    TOTEN  =     -1709.03858664 eV

  energy without entropy =    -1709.03858664  energy(sigma->0) =    -1709.03858664


--------------------------------------------------------------------------------------------------------




--------------------------------------- Iteration      1(   2)  ---------------------------------------


    POTLOK:  cpu time    0.6999: real time    0.7134
    SETDIJ:  cpu time    2.3956: real time    2.3937
     EDDAV:  cpu time  181.3444: real time  180.7514
       DOS:  cpu time    0.0040: real time    0.0043
    --------------------------------------------
      LOOP:  cpu time  184.4440: real time  183.8628

 eigenvalue-minimisations  : 20544
 total energy-change (2. order) : 0.3119058E-06  (-0.3505861E-06)
 number of electron    1920.0000026 magnetization       0.0000000
 augmentation part      495.6170484 magnetization       0.0000000

 Free energy of the ion-electron system (eV)
  ---------------------------------------------------
  alpha Z        PSCENC =      6105.03691386
  Ewald energy   TEWEN  =   -102819.57274867
  -Hartree energ DENC   =    -65592.10760740
  -exchange      EXHF   =         0.00000000
  -V(xc)+E(xc)   XCENC  =      8959.05685253
  PAW double counting   =    144210.08056650  -145199.49912085
  entropy T*S    EENTRO =        -0.00000000
  eigenvalues    EBANDS =    -25790.85917245
  atomic energy  EATOM  =    178418.82573015
  Solvation  Ediel_sol  =         0.00000000
  ---------------------------------------------------
  free energy    TOTEN  =     -1709.03858633 eV

  energy without entropy =    -1709.03858633  energy(sigma->0) =    -1709.03858633


--------------------------------------------------------------------------------------------------------




 average (electrostatic) potential at core
  the test charge radii are     1.0397  0.7215  0.7167
  (the norm of the test charge is              1.0000)
       1 -59.0418       2 -58.6313       3 -58.8478       4 -58.7681       5 -58.9971
       6 -58.7604       7 -58.8764       8 -58.8899       9 -59.0467      10 -58.7356
      11 -58.7589      12 -58.8310      13 -59.0610      14 -58.8104      15 -59.0998
      16 -58.7931      17 -59.0539      18 -58.7919      19 -58.7377      20 -58.4370
      21 -59.6546      22 -58.8486      23 -58.9925      24 -58.6651      25 -59.0709
      26 -58.7638      27 -58.6158      28 -58.6162      29 -59.2084      30 -58.8067
      31 -59.0089      32 -58.7997      33 -58.9163      34 -59.3324      35 -58.9622
      36 -58.8358      37 -59.1121      38 -58.7891      39 -58.8198      40 -58.7407
      41 -58.9537      42 -58.9734      43 -59.0064      44 -58.8144      45 -59.0950
      46 -58.6440      47 -58.8077      48 -58.7697      49 -59.0114      50 -58.8473
      51 -58.8060      52 -58.6131      53 -59.0973      54 -58.8275      55 -58.8246
      56 -58.5707      57 -59.0138      58 -58.8917      59 -58.8103      60 -58.8466
      61 -59.0944      62 -58.8243      63 -58.8040      64 -58.3953      65 -74.3463
      66 -74.1691      67 -74.0009      68 -74.1761      69 -74.2183      70 -74.1863
      71 -74.0013      72 -74.7330      73 -74.2826      74 -73.8032      75 -73.8788
      76 -74.1327      77 -74.3099      78 -74.3776      79 -74.1050      80 -74.1709
      81 -74.0718      82 -74.3982      83 -73.9374      84 -73.7542      85 -74.1299
      86 -74.1837      87 -74.1407      88 -73.7983      89 -74.1825      90 -73.7985
      91 -74.1604      92 -74.0925      93 -74.0062      94 -74.1253      95 -74.0221
      96 -73.9349      97 -74.1361      98 -74.0904      99 -73.9588     100 -73.9131
     101 -73.7584     102 -74.3666     103 -74.1955     104 -74.1247     105 -73.9644
     106 -74.0196     107 -74.0166     108 -73.9550     109 -73.8556     110 -74.0502
     111 -74.3997     112 -73.9512     113 -74.3458     114 -74.2328     115 -74.2629
     116 -74.1795     117 -74.0558     118 -74.2398     119 -74.0407     120 -74.1915
     121 -74.2237     122 -74.1082     123 -74.1938     124 -74.0745     125 -74.1210
     126 -74.0986     127 -73.9951     128 -73.8570     129 -79.1759     130 -78.9735
     131 -78.9262     132 -79.1103     133 -79.0662     134 -79.0243     135 -79.0629
     136 -79.0914     137 -78.5234     138 -78.5270     139 -79.2699     140 -78.2625
     141 -78.3009     142 -79.2848     143 -79.0740     144 -78.5145     145 -78.5214
     146 -79.2824     147 -79.2094     148 -78.9680     149 -78.9822     150 -79.4861
     151 -79.4509     152 -79.1990     153 -79.1177     154 -78.5538     155 -78.6604
     156 -79.4955     157 -79.4748     158 -79.0951     159 -79.0512     160 -78.9509
     161 -78.9255     162 -78.9681     163 -78.9830     164 -79.2618     165 -78.5465
     166 -78.5505     167 -79.1681     168 -79.1446     169 -79.1232     170 -78.2813
     171 -78.3009     172 -79.5674     173 -79.1505     174 -78.3824     175 -78.3226
     176 -79.6201     177 -78.9272     178 -78.4667     179 -78.3261     180 -79.5477
     181 -78.9588     182 -78.4011     183 -79.5777     184 -78.9327     185 -78.3783
     186 -79.0928     187 -79.6165     188 -79.1211     189 -79.8311     190 -79.1740
     191 -79.5506     192 -79.1411     193 -79.2974     194 -78.1663     195 -79.6491
     196 -79.3967     197 -78.2402     198 -79.5552     199 -79.2738     200 -79.6046
     201 -79.5383     202 -79.1445     203 -78.9289     204 -79.5823     205 -78.9210
     206 -79.8063     207 -78.9692     208 -79.0201     209 -78.1648     210 -79.6683
     211 -78.9235     212 -78.9272     213 -78.1950     214 -79.6009     215 -78.9794
     216 -79.4119     217 -79.5919     218 -78.9423     219 -79.2586     220 -78.4190
     221 -79.2713     222 -78.4287     223 -79.5176     224 -78.5179     225 -79.2526
     226 -78.5197     227 -79.1709     228 -78.7063     229 -78.7330     230 -79.1467
     231 -79.1142     232 -79.6475     233 -78.5754     234 -79.0529     235 -78.5707
     236 -78.9622     237 -78.5268     238 -78.5125     239 -78.6324     240 -79.2527
     241 -78.6420     242 -79.0549     243 -79.1293     244 -78.6238     245 -78.5661
     246 -78.6302     247 -78.5740     248 -78.4098     249 -78.4677     250 -79.3685
     251 -78.6637     252 -79.0308     253 -78.6341     254 -78.9721     255 -78.6185
     256 -78.5933
 
 
 
 E-fermi :  -0.6537     XC(G=0):  -9.0199     alpha+bet : -7.7008


 spin component 1

 k-point     1 :       0.2500    0.2500    0.2500
  band No.  band energies     occupation 
      1     -35.6646      1.00000
      2     -35.6265      1.00000
      3     -35.4697      1.00000
      4     -35.3016      1.00000
      5     -35.2977      1.00000
      6     -35.2343      1.00000
      7     -35.1619      1.00000
      8     -35.1552      1.00000
      9     -35.1495      1.00000
     10     -35.1408      1.00000
     11     -35.1133      1.00000
     12     -35.1052      1.00000
     13     -35.0938      1.00000
     14     -35.0922      1.00000
     15     -35.0861      1.00000
     16     -35.0802      1.00000
     17     -35.0801      1.00000
     18     -35.0630      1.00000
     19     -35.0424      1.00000
     20     -35.0386      1.00000
     21     -35.0371      1.00000
     22     -35.0277      1.00000
     23     -35.0271      1.00000
     24     -35.0185      1.00000
     25     -35.0040      1.00000
     26     -34.9995      1.00000
     27     -34.9879      1.00000
     28     -34.9747      1.00000
     29     -34.9693      1.00000
     30     -34.9639      1.00000
     31     -34.9615      1.00000
     32     -34.9488      1.00000
     33     -34.9464      1.00000
     34     -34.9453      1.00000
     35     -34.9424      1.00000
     36     -34.9370      1.00000
     37     -34.9340      1.00000
     38     -34.9294      1.00000
     39     -34.9290      1.00000
     40     -34.9144      1.00000
     41     -34.9051      1.00000
     42     -34.9038      1.00000
     43     -34.9011      1.00000
     44     -34.9001      1.00000
     45     -34.8983      1.00000
     46     -34.8949      1.00000
     47     -34.8936      1.00000
     48     -34.8905      1.00000
     49     -34.8874      1.00000
     50     -34.8838      1.00000
     51     -34.8803      1.00000
     52     -34.8790      1.00000
     53     -34.8777      1.00000
     54     -34.8770      1.00000
     55     -34.8753      1.00000
     56     -34.8642      1.00000
     57     -34.8615      1.00000
     58     -34.8548      1.00000
     59     -34.8543      1.00000
     60     -34.8527      1.00000
     61     -34.8495      1.00000
     62     -34.8487      1.00000
     63     -34.8440      1.00000
     64     -34.8432      1.00000
     65     -34.8411      1.00000
     66     -34.8405      1.00000
     67     -34.8349      1.00000
     68     -34.8322      1.00000
     69     -34.8268      1.00000
     70     -34.8245      1.00000
     71     -34.8240      1.00000
     72     -34.8190      1.00000
     73     -34.8169      1.00000
     74     -34.8148      1.00000
     75     -34.8116      1.00000
     76     -34.8091      1.00000
     77     -34.8087      1.00000
     78     -34.8060      1.00000
     79     -34.8049      1.00000
     80     -34.8018      1.00000
     81     -34.8005      1.00000
     82     -34.7984      1.00000
     83     -34.7944      1.00000
     84     -34.7927      1.00000
     85     -34.7921      1.00000
     86     -34.7856      1.00000
     87     -34.7831      1.00000
     88     -34.7822      1.00000
     89     -34.7820      1.00000
     90     -34.7782      1.00000
     91     -34.7753      1.00000
     92     -34.7739      1.00000
     93     -34.7708      1.00000
     94     -34.7683      1.00000
     95     -34.7640      1.00000
     96     -34.7609      1.00000
     97     -34.7568      1.00000
     98     -34.7563      1.00000
     99     -34.7562      1.00000
    100     -34.7517      1.00000
    101     -34.7489      1.00000
    102     -34.7478      1.00000
    103     -34.7438      1.00000
    104     -34.7409      1.00000
    105     -34.7340      1.00000
    106     -34.7316      1.00000
    107     -34.7277      1.00000
    108     -34.7234      1.00000
    109     -34.7223      1.00000
    110     -34.7211      1.00000
    111     -34.7164      1.00000
    112     -34.7133      1.00000
    113     -34.7084      1.00000
    114     -34.7048      1.00000
    115     -34.7010      1.00000
    116     -34.6940      1.00000
    117     -34.6927      1.00000
    118     -34.6906      1.00000
    119     -34.6886      1.00000
    120     -34.6875      1.00000
    121     -34.6863      1.00000
    122     -34.6804      1.00000
    123     -34.6769      1.00000
    124     -34.6753      1.00000
    125     -34.6745      1.00000
    126     -34.6741      1.00000
    127     -34.6731      1.00000
    128     -34.6704      1.00000
    129     -34.6694      1.00000
    130     -34.6644      1.00000
    131     -34.6624      1.00000
    132     -34.6614      1.00000
    133     -34.6606      1.00000
    134     -34.6604      1.00000
    135     -34.6582      1.00000
    136     -34.6565      1.00000
    137     -34.6542      1.00000
    138     -34.6532      1.00000
    139     -34.6522      1.00000
    140     -34.6503      1.00000
    141     -34.6494      1.00000
    142     -34.6483      1.00000
    143     -34.6441      1.00000
    144     -34.6440      1.00000
    145     -34.6439      1.00000
    146     -34.6431      1.00000
    147     -34.6410      1.00000
    148     -34.6376      1.00000
    149     -34.6336      1.00000
    150     -34.6319      1.00000
    151     -34.6318      1.00000
    152     -34.6271      1.00000
    153     -34.6199      1.00000
    154     -34.6167      1.00000
    155     -34.6158      1.00000
    156     -34.6146      1.00000
    157     -34.6080      1.00000
    158     -34.6059      1.00000
    159     -34.6047      1.00000
    160     -34.6024      1.00000
    161     -34.5975      1.00000
    162     -34.5967      1.00000
    163     -34.5946      1.00000
    164     -34.5899      1.00000
    165     -34.5856      1.00000
    166     -34.5802      1.00000
    167     -34.5798      1.00000
    168     -34.5729      1.00000
    169     -34.5722      1.00000
    170     -34.5712      1.00000
    171     -34.5584      1.00000
    172     -34.5446      1.00000
    173     -34.5414      1.00000
    174     -34.5353      1.00000
    175     -34.5212      1.00000
    176     -34.5166      1.00000
    177     -34.4841      1.00000
    178     -34.4834      1.00000
    179     -34.4803      1.00000
    180     -34.4705      1.00000
    181     -34.4598      1.00000
    182     -34.4417      1.00000
    183     -34.4407      1.00000
    184     -34.4211      1.00000
    185     -34.4154      1.00000
    186     -34.3824      1.00000
    187     -34.3074      1.00000
    188     -34.2792      1.00000
    189     -34.2784      1.00000
    190     -34.2737      1.00000
    191     -34.2427      1.00000
    192     -34.2261      1.00000
    193     -23.6901      1.00000
    194     -23.4949      1.00000
    195     -23.4866      1.00000
    196     -23.4679      1.00000
    197     -23.4442      1.00000
    198     -23.3940      1.00000
    199     -23.3708      1.00000
    200     -23.3471      1.00000
    201     -23.3371      1.00000
    202     -23.3087      1.00000
    203     -23.2895      1.00000
    204     -23.2534      1.00000
    205     -23.2363      1.00000
    206     -23.2056      1.00000
    207     -23.1638      1.00000
    208     -23.1612      1.00000
    209     -23.1215      1.00000
    210     -23.1144      1.00000
    211     -23.1001      1.00000
    212     -23.0846      1.00000
    213     -23.0817      1.00000
    214     -23.0694      1.00000
    215     -23.0574      1.00000
    216     -23.0398      1.00000
    217     -23.0373      1.00000
    218     -23.0219      1.00000
    219     -23.0116      1.00000
    220     -23.0083      1.00000
    221     -23.0047      1.00000
    222     -22.9987      1.00000
    223     -22.9881      1.00000
    224     -22.9761      1.00000
    225     -22.9632      1.00000
    226     -22.9404      1.00000
    227     -22.9351      1.00000
    228     -22.9262      1.00000
    229     -22.9129      1.00000
    230     -22.9031      1.00000
    231     -22.8992      1.00000
    232     -22.8919      1.00000
    233     -22.8856      1.00000
    234     -22.8824      1.00000
    235     -22.8626      1.00000
    236     -22.8556      1.00000
    237     -22.8441      1.00000
    238     -22.8302      1.00000
    239     -22.8126      1.00000
    240     -22.8078      1.00000
    241     -22.7866      1.00000
    242     -22.7649      1.00000
    243     -22.7488      1.00000
    244     -22.7469      1.00000
    245     -22.7436      1.00000
    246     -22.7339      1.00000
    247     -22.6897      1.00000
    248     -22.6866      1.00000
    249     -22.6774      1.00000
    250     -22.6725      1.00000
    251     -22.6584      1.00000
    252     -22.6511      1.00000
    253     -22.6455      1.00000
    254     -22.6412      1.00000
    255     -22.6299      1.00000
    256     -22.6138      1.00000
    257     -22.6109      1.00000
    258     -22.5976      1.00000
    259     -22.5950      1.00000
    260     -22.5861      1.00000
    261     -22.5827      1.00000
    262     -22.5814      1.00000
    263     -22.5702      1.00000
    264     -22.5542      1.00000
    265     -22.5448      1.00000
    266     -22.5237      1.00000
    267     -22.5204      1.00000
    268     -22.5020      1.00000
    269     -22.5017      1.00000
    270     -22.4946      1.00000
    271     -22.4944      1.00000
    272     -22.4879      1.00000
    273     -22.4742      1.00000
    274     -22.4713      1.00000
    275     -22.4685      1.00000
    276     -22.4444      1.00000
    277     -22.3958      1.00000
    278     -22.3914      1.00000
    279     -22.3774      1.00000
    280     -22.3401      1.00000
    281     -22.3255      1.00000
    282     -22.3080      1.00000
    283     -22.2912      1.00000
    284     -22.2892      1.00000
    285     -22.2788      1.00000
    286     -22.2743      1.00000
    287     -22.2718      1.00000
    288     -22.2619      1.00000
    289     -22.2416      1.00000
    290     -22.2342      1.00000
    291     -22.2299      1.00000
    292     -22.2289      1.00000
    293     -22.2175      1.00000
    294     -22.2084      1.00000
    295     -22.1893      1.00000
    296     -22.1709      1.00000
    297     -22.1688      1.00000
    298     -22.1631      1.00000
    299     -22.1536      1.00000
    300     -22.1528      1.00000
    301     -22.1370      1.00000
    302     -22.1306      1.00000
    303     -22.1189      1.00000
    304     -22.1119      1.00000
    305     -22.0964      1.00000
    306     -22.0580      1.00000
    307     -22.0508      1.00000
    308     -22.0243      1.00000
    309     -22.0158      1.00000
    310     -22.0092      1.00000
    311     -21.9801      1.00000
    312     -21.9576      1.00000
    313     -21.9451      1.00000
    314     -21.9401      1.00000
    315     -21.9312      1.00000
    316     -21.9127      1.00000
    317     -21.8523      1.00000
    318     -21.8099      1.00000
    319     -21.8036      1.00000
    320     -21.7828      1.00000
    321     -17.2060      1.00000
    322     -16.9880      1.00000
    323     -16.9600      1.00000
    324     -16.9551      1.00000
    325     -16.8796      1.00000
    326     -16.8375      1.00000
    327     -16.8093      1.00000
    328     -16.7980      1.00000
    329     -16.7911      1.00000
    330     -16.7892      1.00000
    331     -16.7827      1.00000
    332     -16.7748      1.00000
    333     -16.7605      1.00000
    334     -16.7555      1.00000
    335     -16.7521      1.00000
    336     -16.7467      1.00000
    337     -16.7328      1.00000
    338     -16.7215      1.00000
[...]
   79        1.570   3.476   0.000   5.046
   80        1.568   3.465   0.000   5.033
   81        1.568   3.465   0.000   5.033
   82        1.570   3.477   0.000   5.047
   83        1.568   3.464   0.000   5.032
   84        1.569   3.462   0.000   5.031
   85        1.570   3.477   0.000   5.047
   86        1.570   3.477   0.000   5.047
   87        1.570   3.474   0.000   5.045
   88        1.570   3.463   0.000   5.032
   89        1.570   3.476   0.000   5.046
   90        1.568   3.463   0.000   5.031
   91        1.569   3.475   0.000   5.044
   92        1.568   3.464   0.000   5.032
   93        1.568   3.465   0.000   5.033
   94        1.570   3.478   0.000   5.048
   95        1.568   3.462   0.000   5.030
   96        1.568   3.464   0.000   5.032
   97        1.568   3.459   0.000   5.027
   98        1.569   3.475   0.000   5.044
   99        1.568   3.461   0.000   5.028
  100        1.569   3.463   0.000   5.032
  101        1.568   3.460   0.000   5.028
  102        1.570   3.478   0.000   5.048
  103        1.569   3.469   0.000   5.039
  104        1.571   3.480   0.000   5.051
  105        1.569   3.469   0.000   5.038
  106        1.570   3.470   0.000   5.040
  107        1.570   3.470   0.000   5.040
  108        1.570   3.468   0.000   5.038
  109        1.570   3.469   0.000   5.039
  110        1.569   3.471   0.000   5.040
  111        1.571   3.482   0.000   5.054
  112        1.570   3.469   0.000   5.038
  113        1.570   3.464   0.000   5.033
  114        1.569   3.468   0.000   5.036
  115        1.569   3.470   0.000   5.039
  116        1.571   3.484   0.000   5.055
  117        1.569   3.468   0.000   5.037
  118        1.568   3.467   0.000   5.035
  119        1.569   3.466   0.000   5.035
  120        1.569   3.467   0.000   5.036
  121        1.571   3.479   0.000   5.050
  122        1.568   3.467   0.000   5.035
  123        1.569   3.467   0.000   5.036
  124        1.570   3.471   0.000   5.041
  125        1.569   3.470   0.000   5.039
  126        1.570   3.468   0.000   5.038
  127        1.569   3.470   0.000   5.040
  128        1.570   3.468   0.000   5.038
  129        1.729   4.385   0.000   6.114
  130        1.730   4.383   0.000   6.113
  131        1.730   4.383   0.000   6.113
  132        1.730   4.382   0.000   6.112
  133        1.730   4.384   0.000   6.114
  134        1.730   4.384   0.000   6.114
  135        1.730   4.383   0.000   6.113
  136        1.729   4.384   0.000   6.114
  137        1.729   4.374   0.000   6.102
  138        1.729   4.374   0.000   6.103
  139        1.730   4.385   0.000   6.115
  140        1.729   4.373   0.000   6.102
  141        1.729   4.375   0.000   6.104
  142        1.730   4.386   0.000   6.115
  143        1.729   4.384   0.000   6.114
  144        1.729   4.374   0.000   6.103
  145        1.729   4.374   0.000   6.103
  146        1.730   4.386   0.000   6.116
  147        1.730   4.382   0.000   6.112
  148        1.730   4.383   0.000   6.113
  149        1.730   4.385   0.000   6.115
  150        1.731   4.392   0.000   6.123
  151        1.731   4.394   0.000   6.125
  152        1.729   4.386   0.000   6.115
  153        1.730   4.384   0.000   6.113
  154        1.729   4.373   0.000   6.102
  155        1.729   4.376   0.000   6.105
  156        1.731   4.390   0.000   6.121
  157        1.730   4.391   0.000   6.122
  158        1.730   4.384   0.000   6.115
  159        1.730   4.384   0.000   6.114
  160        1.730   4.383   0.000   6.113
  161        1.730   4.381   0.000   6.111
  162        1.730   4.384   0.000   6.114
  163        1.730   4.385   0.000   6.115
  164        1.730   4.386   0.000   6.115
  165        1.729   4.375   0.000   6.103
  166        1.729   4.374   0.000   6.103
  167        1.729   4.385   0.000   6.114
  168        1.730   4.384   0.000   6.114
  169        1.730   4.384   0.000   6.114
  170        1.729   4.372   0.000   6.101
  171        1.729   4.372   0.000   6.101
  172        1.730   4.389   0.000   6.119
  173        1.730   4.379   0.000   6.109
  174        1.728   4.368   0.000   6.096
  175        1.728   4.369   0.000   6.097
  176        1.730   4.390   0.000   6.119
  177        1.730   4.381   0.000   6.110
  178        1.728   4.371   0.000   6.099
  179        1.728   4.369   0.000   6.097
  180        1.730   4.390   0.000   6.120
  181        1.730   4.381   0.000   6.111
  182        1.728   4.371   0.000   6.100
  183        1.730   4.389   0.000   6.120
  184        1.730   4.382   0.000   6.112
  185        1.729   4.370   0.000   6.098
  186        1.729   4.384   0.000   6.113
  187        1.730   4.391   0.000   6.122
  188        1.729   4.383   0.000   6.113
  189        1.730   4.390   0.000   6.120
  190        1.730   4.384   0.000   6.113
  191        1.730   4.390   0.000   6.120
  192        1.729   4.383   0.000   6.112
  193        1.730   4.387   0.000   6.117
  194        1.728   4.367   0.000   6.095
  195        1.730   4.390   0.000   6.120
  196        1.730   4.388   0.000   6.118
  197        1.729   4.371   0.000   6.100
  198        1.731   4.389   0.000   6.119
  199        1.730   4.384   0.000   6.113
  200        1.731   4.390   0.000   6.120
  201        1.731   4.389   0.000   6.119
  202        1.729   4.383   0.000   6.112
  203        1.730   4.382   0.000   6.112
  204        1.730   4.389   0.000   6.119
  205        1.730   4.381   0.000   6.111
  206        1.730   4.388   0.000   6.118
  207        1.730   4.381   0.000   6.110
  208        1.730   4.378   0.000   6.108
  209        1.728   4.369   0.000   6.097
  210        1.730   4.389   0.000   6.120
  211        1.729   4.380   0.000   6.109
  212        1.729   4.379   0.000   6.109
  213        1.728   4.369   0.000   6.097
  214        1.730   4.389   0.000   6.119
  215        1.730   4.382   0.000   6.112
  216        1.730   4.389   0.000   6.120
  217        1.730   4.388   0.000   6.119
  218        1.730   4.382   0.000   6.112
  219        1.730   4.388   0.000   6.118
  220        1.729   4.375   0.000   6.104
  221        1.730   4.386   0.000   6.116
  222        1.729   4.376   0.000   6.106
  223        1.732   4.382   0.000   6.114
  224        1.729   4.376   0.000   6.105
  225        1.731   4.387   0.000   6.118
  226        1.729   4.376   0.000   6.105
  227        1.730   4.390   0.000   6.120
  228        1.730   4.378   0.000   6.108
  229        1.730   4.378   0.000   6.108
  230        1.731   4.386   0.000   6.117
  231        1.731   4.388   0.000   6.119
  232        1.730   4.388   0.000   6.119
  233        1.729   4.375   0.000   6.104
  234        1.730   4.384   0.000   6.114
  235        1.729   4.377   0.000   6.106
  236        1.730   4.383   0.000   6.113
  237        1.729   4.376   0.000   6.105
  238        1.729   4.374   0.000   6.103
  239        1.729   4.377   0.000   6.107
  240        1.731   4.386   0.000   6.117
  241        1.729   4.379   0.000   6.108
  242        1.731   4.390   0.000   6.120
  243        1.730   4.388   0.000   6.118
  244        1.729   4.377   0.000   6.106
  245        1.729   4.375   0.000   6.104
  246        1.729   4.377   0.000   6.107
  247        1.729   4.377   0.000   6.106
  248        1.729   4.374   0.000   6.103
  249        1.729   4.376   0.000   6.105
  250        1.730   4.387   0.000   6.117
  251        1.729   4.377   0.000   6.106
  252        1.730   4.387   0.000   6.117
  253        1.729   4.375   0.000   6.104
  254        1.730   4.387   0.000   6.117
  255        1.730   4.378   0.000   6.107
  256        1.730   4.377   0.000   6.107
--------------------------------------------------
tot        342.2381196.506 112.7841651.528
 


 magnetization (x)
 
# of ion       s       p       d       tot
------------------------------------------
    1        0.000  -0.000  -0.000  -0.000
    2        0.000   0.000  -0.000  -0.000
    3       -0.000  -0.000   0.000   0.000
    4       -0.000  -0.000  -0.000  -0.000
    5        0.000  -0.000   0.000   0.000
    6        0.000  -0.000  -0.000  -0.000
    7       -0.000  -0.000   0.000   0.000
    8        0.000   0.000  -0.000  -0.000
    9       -0.000  -0.000  -0.000  -0.000
   10        0.000  -0.000   0.000   0.000
   11       -0.000  -0.000  -0.000  -0.000
   12        0.000  -0.000   0.000   0.000
   13        0.000   0.000   0.000   0.000
   14       -0.000   0.000   0.000   0.000
   15        0.000  -0.000  -0.000  -0.000
   16       -0.000  -0.000   0.000   0.000
   17        0.000  -0.000   0.000   0.000
   18       -0.000   0.000   0.000   0.000
   19        0.000  -0.000  -0.000  -0.000
   20       -0.000   0.000   0.000   0.000
   21       -0.000  -0.000   0.000  -0.000
   22        0.000   0.000  -0.000  -0.000
   23       -0.000   0.000   0.000   0.000
   24        0.000   0.000   0.000   0.000
   25       -0.000   0.000   0.000   0.000
   26        0.000   0.000   0.000   0.000
   27       -0.000  -0.000  -0.000  -0.000
   28        0.000   0.000   0.000   0.000
   29        0.000   0.000   0.000   0.000
   30        0.000  -0.000   0.000   0.000
   31        0.000   0.000  -0.000  -0.000
   32        0.000  -0.000   0.000   0.000
   33        0.000   0.000  -0.000  -0.000
   34       -0.000  -0.000   0.000   0.000
   35        0.000   0.000  -0.000  -0.000
   36        0.000  -0.000   0.000   0.000
   37        0.000  -0.000  -0.000  -0.000
   38       -0.000   0.000  -0.000  -0.000
   39        0.000   0.000   0.000   0.000
   40        0.000   0.000   0.000   0.000
   41       -0.000   0.000   0.000   0.000
   42        0.000  -0.000  -0.000  -0.000
   43        0.000   0.000   0.000   0.000
   44        0.000  -0.000   0.000   0.000
   45       -0.000  -0.000  -0.000  -0.000
   46       -0.000   0.000   0.000   0.000
   47        0.000  -0.000  -0.000  -0.000
   48       -0.000  -0.000  -0.000  -0.000
   49        0.000   0.000  -0.000  -0.000
   50       -0.000  -0.000   0.000   0.000
   51        0.000  -0.000  -0.000  -0.000
   52       -0.000   0.000  -0.000  -0.000
   53       -0.000  -0.000   0.000   0.000
   54        0.000   0.000  -0.000  -0.000
   55        0.000  -0.000  -0.000  -0.000
   56        0.000   0.000   0.000   0.000
   57        0.000   0.000   0.000   0.000
   58       -0.000  -0.000  -0.000  -0.000
   59        0.000   0.000  -0.000  -0.000
   60       -0.000  -0.000  -0.000  -0.000
   61        0.000   0.000   0.000   0.000
   62       -0.000  -0.000   0.000   0.000
   63        0.000  -0.000  -0.000  -0.000
   64       -0.000  -0.000  -0.000  -0.000
   65        0.000   0.000   0.000   0.000
   66       -0.000  -0.000   0.000  -0.000
   67        0.000   0.000   0.000   0.000
   68       -0.000  -0.000   0.000  -0.000
   69       -0.000  -0.000   0.000  -0.000
   70       -0.000  -0.000   0.000  -0.000
   71        0.000  -0.000   0.000  -0.000
   72        0.000   0.000   0.000   0.000
   73       -0.000  -0.000   0.000  -0.000
   74       -0.000  -0.000   0.000  -0.000
   75        0.000   0.000   0.000   0.000
   76        0.000   0.000   0.000   0.000
   77       -0.000  -0.000   0.000  -0.000
   78       -0.000   0.000   0.000   0.000
   79        0.000   0.000   0.000   0.000
   80       -0.000  -0.000   0.000  -0.000
   81        0.000  -0.000   0.000  -0.000
   82        0.000  -0.000   0.000  -0.000
   83       -0.000   0.000   0.000  -0.000
   84       -0.000  -0.000   0.000  -0.000
   85        0.000   0.000   0.000   0.000
   86       -0.000  -0.000   0.000  -0.000
   87       -0.000  -0.000   0.000  -0.000
   88        0.000   0.000   0.000   0.000
   89        0.000   0.000   0.000   0.000
   90        0.000  -0.000   0.000  -0.000
   91       -0.000  -0.000   0.000  -0.000
   92        0.000  -0.000   0.000   0.000
   93       -0.000   0.000   0.000   0.000
   94       -0.000   0.000   0.000   0.000
   95       -0.000  -0.000   0.000  -0.000
   96        0.000   0.000   0.000   0.000
   97       -0.000   0.000   0.000   0.000
   98        0.000   0.000   0.000   0.000
   99       -0.000   0.000   0.000   0.000
  100       -0.000  -0.000   0.000  -0.000
  101        0.000  -0.000   0.000   0.000
  102       -0.000  -0.000   0.000  -0.000
  103        0.000  -0.000   0.000   0.000
  104        0.000  -0.000   0.000  -0.000
  105        0.000  -0.000   0.000  -0.000
  106       -0.000  -0.000   0.000  -0.000
  107       -0.000  -0.000   0.000  -0.000
  108        0.000  -0.000   0.000  -0.000
  109       -0.000   0.000   0.000   0.000
  110        0.000   0.000   0.000   0.000
  111       -0.000  -0.000   0.000  -0.000
  112       -0.000   0.000   0.000   0.000
  113        0.000  -0.000   0.000  -0.000
  114       -0.000  -0.000   0.000  -0.000
  115       -0.000  -0.000   0.000  -0.000
  116        0.000   0.000   0.000   0.000
  117       -0.000  -0.000   0.000  -0.000
  118        0.000   0.000   0.000   0.000
  119        0.000  -0.000   0.000  -0.000
  120       -0.000   0.000   0.000   0.000
  121       -0.000  -0.000   0.000  -0.000
  122        0.000   0.000   0.000   0.000
  123        0.000  -0.000   0.000  -0.000
  124       -0.000  -0.000   0.000  -0.000
  125       -0.000  -0.000   0.000  -0.000
  126        0.000   0.000   0.000   0.000
  127        0.000   0.000   0.000   0.000
  128       -0.000  -0.000   0.000  -0.000
  129        0.000  -0.000   0.000   0.000
  130        0.000   0.000   0.000   0.000
  131        0.000  -0.000   0.000  -0.000
  132        0.000   0.000   0.000   0.000
  133       -0.000   0.000   0.000   0.000
  134        0.000   0.000   0.000   0.000
  135       -0.000   0.000   0.000  -0.000
  136       -0.000  -0.000   0.000  -0.000
  137       -0.000   0.000   0.000   0.000
  138       -0.000  -0.000   0.000  -0.000
  139        0.000  -0.000   0.000  -0.000
  140        0.000   0.000   0.000   0.000
  141        0.000   0.000   0.000   0.000
  142       -0.000   0.000   0.000  -0.000
  143       -0.000   0.000   0.000  -0.000
  144       -0.000  -0.000   0.000  -0.000
  145        0.000  -0.000   0.000  -0.000
  146       -0.000  -0.000   0.000  -0.000
  147        0.000  -0.000   0.000   0.000
  148       -0.000  -0.000   0.000  -0.000
  149        0.000  -0.000   0.000   0.000
  150        0.000  -0.000   0.000   0.000
  151        0.000   0.000   0.000   0.000
  152        0.000   0.000   0.000   0.000
  153       -0.000   0.000   0.000  -0.000
  154        0.000  -0.000   0.000  -0.000
  155        0.000   0.000   0.000   0.000
  156       -0.000   0.000   0.000   0.000
  157        0.000   0.000   0.000   0.000
  158       -0.000   0.000   0.000   0.000
  159        0.000   0.000   0.000   0.000
  160        0.000   0.000   0.000   0.000
  161       -0.000   0.000   0.000   0.000
  162       -0.000   0.000   0.000   0.000
  163       -0.000   0.000   0.000   0.000
  164       -0.000   0.000   0.000   0.000
  165       -0.000  -0.000   0.000  -0.000
  166        0.000   0.000   0.000   0.000
  167       -0.000   0.000   0.000  -0.000
  168       -0.000  -0.000   0.000  -0.000
  169        0.000  -0.000   0.000  -0.000
  170       -0.000   0.000   0.000   0.000
  171       -0.000   0.000   0.000   0.000
  172        0.000  -0.000   0.000  -0.000
  173        0.000  -0.000   0.000   0.000
  174       -0.000   0.000   0.000   0.000
  175       -0.000   0.000   0.000   0.000
  176       -0.000  -0.000   0.000  -0.000
  177       -0.000   0.000   0.000   0.000
  178        0.000  -0.000   0.000  -0.000
  179        0.000   0.000   0.000   0.000
  180        0.000  -0.000   0.000   0.000
  181        0.000   0.000   0.000   0.000
  182       -0.000  -0.000   0.000  -0.000
  183       -0.000  -0.000   0.000  -0.000
  184        0.000   0.000   0.000   0.000
  185       -0.000   0.000   0.000   0.000
  186       -0.000   0.000   0.000  -0.000
  187        0.000   0.000   0.000   0.000
  188        0.000  -0.000   0.000   0.000
  189        0.000   0.000   0.000   0.000
  190        0.000  -0.000   0.000   0.000
  191        0.000  -0.000   0.000  -0.000
  192       -0.000   0.000   0.000   0.000
  193        0.000   0.000   0.000   0.000
  194       -0.000   0.000   0.000   0.000
  195        0.000  -0.000   0.000  -0.000
  196        0.000   0.000   0.000   0.000
  197        0.000   0.000   0.000   0.000
  198        0.000  -0.000   0.000  -0.000
  199        0.000  -0.000   0.000  -0.000
  200        0.000   0.000   0.000   0.000
  201       -0.000  -0.000   0.000  -0.000
  202       -0.000  -0.000   0.000  -0.000
  203        0.000  -0.000   0.000  -0.000
  204       -0.000   0.000   0.000  -0.000
  205       -0.000  -0.000   0.000  -0.000
  206       -0.000   0.000   0.000   0.000
  207       -0.000   0.000   0.000   0.000
  208       -0.000  -0.000   0.000  -0.000
  209        0.000  -0.000   0.000  -0.000
  210        0.000   0.000   0.000   0.000
  211        0.000  -0.000   0.000  -0.000
  212       -0.000  -0.000   0.000  -0.000
  213       -0.000   0.000   0.000  -0.000
  214       -0.000   0.000   0.000   0.000
  215        0.000   0.000   0.000   0.000
  216       -0.000   0.000   0.000  -0.000
  217        0.000  -0.000   0.000  -0.000
  218       -0.000   0.000   0.000  -0.000
  219        0.000   0.000   0.000   0.000
  220        0.000  -0.000   0.000  -0.000
  221        0.000  -0.000   0.000  -0.000
  222        0.000   0.000   0.000   0.000
  223        0.000  -0.000   0.000   0.000
  224        0.000   0.000   0.000   0.000
  225        0.000   0.000   0.000   0.000
  226        0.000  -0.000   0.000  -0.000
  227        0.000  -0.000   0.000   0.000
  228       -0.000   0.000   0.000   0.000
  229        0.000   0.000   0.000   0.000
  230        0.000  -0.000   0.000   0.000
  231        0.000  -0.000   0.000   0.000
  232        0.000   0.000   0.000   0.000
  233        0.000   0.000   0.000   0.000
  234        0.000  -0.000   0.000   0.000
  235        0.000   0.000   0.000   0.000
  236       -0.000  -0.000   0.000  -0.000
  237       -0.000  -0.000   0.000  -0.000
  238        0.000   0.000   0.000   0.000
  239       -0.000   0.000   0.000   0.000
  240        0.000  -0.000   0.000   0.000
  241        0.000   0.000   0.000   0.000
  242       -0.000  -0.000   0.000  -0.000
  243       -0.000  -0.000   0.000  -0.000
  244       -0.000  -0.000   0.000  -0.000
  245       -0.000   0.000   0.000   0.000
  246       -0.000   0.000   0.000   0.000
  247       -0.000  -0.000   0.000  -0.000
  248        0.000   0.000   0.000   0.000
  249        0.000  -0.000   0.000  -0.000
  250        0.000   0.000   0.000   0.000
  251       -0.000  -0.000   0.000  -0.000
  252        0.000  -0.000   0.000  -0.000
  253        0.000   0.000   0.000   0.000
  254        0.000  -0.000   0.000   0.000
  255        0.000  -0.000   0.000   0.000
  256       -0.000   0.000   0.000   0.000
--------------------------------------------------
tot          0.000  -0.000   0.000   0.000
 

 total amount of memory used by VASP MPI-rank0   389540. kBytes
=======================================================================

   base      :      30000. kBytes
   nonlr-proj:      69329. kBytes
   fftplans  :      38734. kBytes
   grid      :      49123. kBytes
   one-center:        995. kBytes
   wavefun   :     201359. kBytes
 
  
  
 General timing and accounting informations for this job:
 ========================================================
  
                  Total CPU time used (sec):     1089.188
                            User time (sec):     1043.469
                          System time (sec):       45.719
                         Elapsed time (sec):     1129.770
  
                   Maximum memory used (kb):      706204.
                   Average memory used (kb):           0.
  
                          Minor page faults:        35368
                          Major page faults:            2
                 Voluntary context switches:       543326
