 vasp.5.4.4.18Apr17-6-g9f103f2a35 (build Apr 30 2017 20:10:35) complex          
  
 executed on             LinuxIFC date 2017.08.06  09:31:03
 running on   64 total cores
 distrk:  each k-point on   64 cores,    1 groups
 distr:  one band on NCORES_PER_BAND=   8 cores,    8 groups


--------------------------------------------------------------------------------------------------------


 INCAR:
 POTCAR:   PAW_PBE Ti_pv 07Sep2000                
 POTCAR:   PAW_PBE O 08Apr2002                    
 POTCAR:    PAW_PBE F 08Apr2002                   
 POTCAR:   PAW_PBE Ti_pv 07Sep2000                
   VRHFIN =Ti: d3 s1                                                            
   LEXCH  = PE                                                                  
   EATOM  =  1042.3781 eV,   76.6126 Ry                                         
                                                                                
   TITEL  = PAW_PBE Ti_pv 07Sep2000                                             
   LULTRA =        F    use ultrasoft PP ?                                      
   IUNSCR =        1    unscreen: 0-lin 1-nonlin 2-no                           
   RPACOR =    2.200    partial core radius                                     
   POMASS =   47.880; ZVAL   =   10.000    mass and valenz                      
   RCORE  =    2.500    outmost cutoff radius                                   
   RWIGS  =    2.500; RWIGS  =    1.323    wigner-seitz radius (au A)           
   ENMAX  =  222.338; ENMIN  =  166.753 eV                                      
   RCLOC  =    1.701    cutoff for local pot                                    
   LCOR   =        T    correct aug charges                                     
   LPAW   =        T    paw PP                                                  
   EAUG   =  482.848                                                            
   DEXC   =    -.008                                                            
   RMAX   =    3.092    core radius for proj-oper                               
   RAUG   =    1.300    factor for augmentation sphere                          
   RDEP   =    2.538    radius for radial grids                                 
   QCUT   =   -4.042; QGAM   =    8.085    optimization parameters              
                                                                                
   Description                                                                  
     l     E      TYP  RCUT    TYP  RCUT                                        
     1   .000     23  2.300                                                     
     1  -.100     23  2.300                                                     
     2   .000     23  2.500                                                     
     2   .000     23  2.500                                                     
     0   .000     23  2.500                                                     
     0  1.500     23  2.500                                                     
     3   .000      7   .000                                                     
  local pseudopotential read in
  partial core-charges read in
  atomic valenz-charges read in
  non local Contribution for L=           1  read in
    real space projection operators read in
  non local Contribution for L=           1  read in
    real space projection operators read in
  non local Contribution for L=           2  read in
    real space projection operators read in
  non local Contribution for L=           2  read in
    real space projection operators read in
  non local Contribution for L=           0  read in
    real space projection operators read in
  non local Contribution for L=           0  read in
    real space projection operators read in
    PAW grid and wavefunctions read in
 
   number of l-projection  operators is LMAX  =           6
   number of lm-projection operators is LMMAX =          18
 
 POTCAR:   PAW_PBE O 08Apr2002                    
   VRHFIN =O: s2p4                                                              
   LEXCH  = PE                                                                  
   EATOM  =   432.3788 eV,   31.7789 Ry                                         
                                                                                
   TITEL  = PAW_PBE O 08Apr2002                                                 
   LULTRA =        F    use ultrasoft PP ?                                      
   IUNSCR =        0    unscreen: 0-lin 1-nonlin 2-no                           
   RPACOR =     .000    partial core radius                                     
   POMASS =   16.000; ZVAL   =    6.000    mass and valenz                      
   RCORE  =    1.520    outmost cutoff radius                                   
   RWIGS  =    1.550; RWIGS  =     .820    wigner-seitz radius (au A)           
   ENMAX  =  400.000; ENMIN  =  300.000 eV                                      
   ICORE  =        2    local potential                                         
   LCOR   =        T    correct aug charges                                     
   LPAW   =        T    paw PP                                                  
   EAUG   =  605.392                                                            
   DEXC   =     .000                                                            
   RMAX   =    2.264    core radius for proj-oper                               
   RAUG   =    1.300    factor for augmentation sphere                          
   RDEP   =    1.550    radius for radial grids                                 
   QCUT   =   -5.520; QGAM   =   11.041    optimization parameters              
                                                                                
   Description                                                                  
     l     E      TYP  RCUT    TYP  RCUT                                        
     0   .000     23  1.200                                                     
     0  -.700     23  1.200                                                     
     1   .000     23  1.520                                                     
     1   .600     23  1.520                                                     
     2   .000      7  1.500                                                     
  local pseudopotential read in
  atomic valenz-charges read in
  non local Contribution for L=           0  read in
    real space projection operators read in
  non local Contribution for L=           0  read in
    real space projection operators read in
  non local Contribution for L=           1  read in
    real space projection operators read in
  non local Contribution for L=           1  read in
    real space projection operators read in
    PAW grid and wavefunctions read in
 
   number of l-projection  operators is LMAX  =           4
   number of lm-projection operators is LMMAX =           8
 
 POTCAR:    PAW_PBE F 08Apr2002                   
   VRHFIN =F: s2p5                                                              
   LEXCH  = PE                                                                  
   EATOM  =   659.6475 eV,   48.4827 Ry                                         
                                                                                
   TITEL  = PAW_PBE F 08Apr2002                                                 
   LULTRA =        F    use ultrasoft PP ?                                      
   IUNSCR =        1    unscreen: 0-lin 1-nonlin 2-no                           
   RPACOR =    1.200    partial core radius                                     
   POMASS =   18.998; ZVAL   =    7.000    mass and valenz                      
   RCORE  =    1.520    outmost cutoff radius                                   
   RWIGS  =    1.500; RWIGS  =    0.794    wigner-seitz radius (au A)           
   ENMAX  =  400.000; ENMIN  =  300.000 eV                                      
   ICORE  =        2    local potential                                         
   LCOR   =        T    correct aug charges                                     
   LPAW   =        T    paw PP                                                  
   EAUG   =  613.614                                                            
   RMAX   =    1.555    core radius for proj-oper                               
   RAUG   =    1.300    factor for augmentation sphere                          
   RDEP   =    1.539    radius for radial grids                                 
   RDEPT  =    1.299    core radius for aug-charge                              
                                                                                
   Atomic configuration                                                         
    4 entries                                                                   
     n  l   j            E        occ.                                          
     1  0  0.50      -663.3661   2.0000                                         
     2  0  0.50       -29.8995   2.0000                                         
     2  1  0.50       -11.1114   5.0000                                         
     3  2  1.50       -10.8847   0.0000                                         
   Description                                                                  
     l       E           TYP  RCUT    TYP  RCUT                                 
     0    -29.8995018     23  1.200                                             
     0     -9.5240782     23  1.200                                             
     1    -11.1113914     23  1.520                                             
     1      1.3605826     23  1.520                                             
     2    -10.8846608      7  1.500                                             
  local pseudopotential read in
  partial core-charges read in
  partial kinetic energy density read in
  atomic valenz-charges read in
  non local Contribution for L=           0  read in
    real space projection operators read in
  non local Contribution for L=           0  read in
    real space projection operators read in
  non local Contribution for L=           1  read in
    real space projection operators read in
  non local Contribution for L=           1  read in
    real space projection operators read in
    PAW grid and wavefunctions read in
 
   number of l-projection  operators is LMAX  =           4
   number of lm-projection operators is LMMAX =           8
 
 Optimization of the real space projectors (new method)

 maximal supplied QI-value         = 15.12
 optimisation between [QCUT,QGAM] = [ 13.45, 27.06] = [ 50.69,205.06] Ry 
 Optimized for a Real-space Cutoff    1.49 Angstroem

   l    n(q)    QCUT    max X(q) W(low)/X(q) W(high)/X(q)  e(spline) 
   1     12    13.455     4.841    0.13E-05    0.83E-06    0.56E-07
   1     12    13.455     5.701    0.32E-04    0.25E-04    0.17E-06
   2     11    13.455     4.569    0.64E-05    0.34E-05    0.50E-07
   2     11    13.455    32.276    0.49E-04    0.38E-04    0.46E-06
   0     12    13.455    30.046    0.17E-04    0.41E-05    0.51E-07
   0     12    13.455    45.433    0.12E-04    0.27E-04    0.38E-06
 Optimization of the real space projectors (new method)

 maximal supplied QI-value         = 24.76
 optimisation between [QCUT,QGAM] = [ 13.37, 26.98] = [ 50.04,203.89] Ry 
 Optimized for a Real-space Cutoff    1.17 Angstroem

   l    n(q)    QCUT    max X(q) W(low)/X(q) W(high)/X(q)  e(spline) 
   0      9    13.368     4.192    0.20E-04    0.58E-05    0.56E-07
   0      9    13.368     8.473    0.60E-04    0.52E-04    0.21E-06
   1      9    13.368     2.474    0.22E-04    0.17E-04    0.28E-07
   1      9    13.368     3.912    0.94E-04    0.97E-04    0.20E-06
 Optimization of the real space projectors (new method)

 maximal supplied QI-value         = 24.76
 optimisation between [QCUT,QGAM] = [ 13.37, 26.98] = [ 50.04,203.89] Ry 
 Optimized for a Real-space Cutoff    1.17 Angstroem

   l    n(q)    QCUT    max X(q) W(low)/X(q) W(high)/X(q)  e(spline) 
   0      9    13.368    14.049    0.39E-04    0.34E-04    0.16E-06
   0      9    13.368     8.945    0.54E-04    0.47E-04    0.20E-06
   1      9    13.368     7.086    0.99E-04    0.10E-03    0.23E-06
   1      9    13.368     6.747    0.86E-04    0.89E-04    0.21E-06

 ----------------------------------------------------------------------------- 
|                                                                             |
|  ADVICE TO THIS USER RUNNING 'VASP/VAMP'   (HEAR YOUR MASTER'S VOICE ...):  |
|                                                                             |
|      You enforced a specific xc-type in the INCAR file,                     |
|      a different type was found on the POTCAR file                          |
|          I HOPE YOU KNOW, WHAT YOU ARE  DOING                               |
|                                                                             |
 ----------------------------------------------------------------------------- 

 PAW_PBE Ti_pv 07Sep2000                :
 energy of atom  1       EATOM=-1042.3781
 kinetic energy error for atom=    0.0006 (will be added to EATOM!!)
 PAW_PBE O 08Apr2002                    :
 energy of atom  2       EATOM= -432.3788
 kinetic energy error for atom=    0.0091 (will be added to EATOM!!)
  PAW_PBE F 08Apr2002                   :
 energy of atom  3       EATOM= -659.6475
 kinetic energy error for atom=    0.0140 (will be added to EATOM!!)
 
 
 POSCAR: TiOF2 2x2x2 config 0013                 
  positions in direct lattice
  velocities in cartesian coordinates
 exchange correlation table for  LEXCH =       14
   RHO(1)=    0.500       N(1)  =     2000
   RHO(2)=  100.500       N(2)  =     4000

 VTST: version 3.1, (03/28/14)

 CHAIN: initializing optimizer
 
 OPT: Using VASP QUASI-newton optimizer
 CHAIN: Read ICHAIN            0
 
 POSCAR: TiOF2 2x2x2 config 0013                 
  positions in direct lattice
  velocities in cartesian coordinates
 


--------------------------------------------------------------------------------------------------------


 ion  position               nearest neighbor table
   1  1.000  1.000  1.000-  32 1.93  31 1.93  17 1.94  21 1.94  27 1.97  25 1.97
   2  1.000  1.000  0.500-  31 1.84  32 1.84  18 1.88  22 1.88  28 1.90  26 1.90
   3  0.000  0.500  1.000-  12 1.89  11 1.89  25 1.94  27 1.94  23 1.96  19 1.96
   4  0.000  0.500  0.500-  11 1.88  12 1.88  20 1.93  24 1.93  28 2.02  26 2.02
   5  0.500  1.000  0.000-  13 1.86  14 1.86  30 1.95  29 1.95  17 2.02  21 2.02
   6  0.500  0.000  0.500-  14 1.92  13 1.92   9 1.94  10 1.94  18 2.09  22 2.09
   7  0.500  0.500  1.000-  16 1.86  15 1.86  30 1.96  29 1.96  19 2.00  23 2.00
   8  0.500  0.500  0.500-  15 1.92  16 1.92   9 1.97  10 1.97  20 2.03  24 2.03
   9  0.500  0.248  0.500-   6 1.94   8 1.97
  10  0.500  0.752  0.500-   6 1.94   8 1.97
  11  0.000  0.500  0.251-   4 1.88   3 1.89
  12  1.000  0.500  0.749-   4 1.88   3 1.89
  13  0.500  1.000  0.246-   5 1.86   6 1.92
  14  0.500  1.000  0.754-   5 1.86   6 1.92
  15  0.500  0.500  0.246-   7 1.86   8 1.92
  16  0.500  0.500  0.754-   7 1.86   8 1.92
  17  0.245  1.000  0.000-   1 1.94   5 2.02
  18  0.237  1.000  0.500-   2 1.88   6 2.09
  19  0.248  0.500  1.000-   3 1.96   7 2.00
  20  0.244  0.500  0.500-   4 1.93   8 2.03
  21  0.755  0.000  1.000-   1 1.94   5 2.02
  22  0.763  0.000  0.500-   2 1.88   6 2.09
  23  0.752  0.500  0.000-   3 1.96   7 2.00
  24  0.756  0.500  0.500-   4 1.93   8 2.03
  25  1.000  0.252  0.000-   3 1.94   1 1.97
  26  0.000  0.242  0.500-   2 1.90   4 2.02
  27  0.000  0.748  1.000-   3 1.94   1 1.97
  28  1.000  0.758  0.500-   2 1.90   4 2.02
  29  0.500  0.249  0.000-   5 1.95   7 1.96
  30  0.500  0.751  0.000-   5 1.95   7 1.96
  31  0.000  1.000  0.256-   2 1.84   1 1.93
  32  1.000  0.000  0.744-   2 1.84   1 1.93
 

IMPORTANT INFORMATION: All symmetrisations will be switched off!
NOSYMM: (Re-)initialisation of all symmetry stuff for point group C_1.

 
 
 KPOINTS: Title                                   

Automatic generation of k-mesh.
Space group operators:
 irot       det(A)        alpha          n_x          n_y          n_z        tau_x        tau_y        tau_z
    1     1.000000     0.000000     1.000000     0.000000     0.000000     0.000000     0.000000     0.000000
 
 Subroutine IBZKPT returns following result:
 ===========================================
 
 Found     32 irreducible k-points:
 
 Following reciprocal coordinates:
            Coordinates               Weight
  0.125000  0.125000  0.125000      2.000000
  0.375000  0.125000  0.125000      2.000000
 -0.375000  0.125000  0.125000      2.000000
 -0.125000  0.125000  0.125000      2.000000
  0.125000  0.375000  0.125000      2.000000
  0.375000  0.375000  0.125000      2.000000
 -0.375000  0.375000  0.125000      2.000000
 -0.125000  0.375000  0.125000      2.000000
  0.125000 -0.375000  0.125000      2.000000
  0.375000 -0.375000  0.125000      2.000000
 -0.375000 -0.375000  0.125000      2.000000
 -0.125000 -0.375000  0.125000      2.000000
  0.125000 -0.125000  0.125000      2.000000
  0.375000 -0.125000  0.125000      2.000000
 -0.375000 -0.125000  0.125000      2.000000
 -0.125000 -0.125000  0.125000      2.000000
  0.125000  0.125000  0.375000      2.000000
  0.375000  0.125000  0.375000      2.000000
 -0.375000  0.125000  0.375000      2.000000
 -0.125000  0.125000  0.375000      2.000000
  0.125000  0.375000  0.375000      2.000000
  0.375000  0.375000  0.375000      2.000000
 -0.375000  0.375000  0.375000      2.000000
 -0.125000  0.375000  0.375000      2.000000
  0.125000 -0.375000  0.375000      2.000000
  0.375000 -0.375000  0.375000      2.000000
 -0.375000 -0.375000  0.375000      2.000000
 -0.125000 -0.375000  0.375000      2.000000
  0.125000 -0.125000  0.375000      2.000000
  0.375000 -0.125000  0.375000      2.000000
 -0.375000 -0.125000  0.375000      2.000000
 -0.125000 -0.125000  0.375000      2.000000
 
 Following cartesian coordinates:
            Coordinates               Weight
  0.015767  0.015975  0.016562      2.000000
  0.047296  0.015979  0.016562      2.000000
 -0.047293  0.015968  0.016562      2.000000
 -0.015763  0.015972  0.016562      2.000000
  0.015770  0.047923  0.016562      2.000000
  0.047300  0.047927  0.016561      2.000000
 -0.047289  0.047916  0.016562      2.000000
 -0.015760  0.047919  0.016562      2.000000
  0.015759 -0.047920  0.016562      2.000000
  0.047289 -0.047916  0.016562      2.000000
 -0.047300 -0.047927  0.016563      2.000000
 -0.015770 -0.047923  0.016562      2.000000
  0.015763 -0.015972  0.016562      2.000000
  0.047293 -0.015969  0.016562      2.000000
 -0.047297 -0.015979  0.016563      2.000000
 -0.015767 -0.015976  0.016562      2.000000
  0.015766  0.015975  0.049686      2.000000
  0.047296  0.015979  0.049686      2.000000
 -0.047293  0.015968  0.049686      2.000000
 -0.015763  0.015972  0.049686      2.000000
  0.015770  0.047923  0.049686      2.000000
  0.047300  0.047926  0.049685      2.000000
 -0.047290  0.047916  0.049686      2.000000
 -0.015760  0.047919  0.049686      2.000000
  0.015759 -0.047920  0.049686      2.000000
  0.047289 -0.047916  0.049686      2.000000
 -0.047301 -0.047927  0.049687      2.000000
 -0.015771 -0.047923  0.049687      2.000000
  0.015763 -0.015972  0.049686      2.000000
  0.047292 -0.015969  0.049686      2.000000
 -0.047297 -0.015979  0.049687      2.000000
 -0.015767 -0.015976  0.049686      2.000000
 


--------------------------------------------------------------------------------------------------------




 Dimension of arrays:
   k-points           NKPTS =     32   k-points in BZ     NKDIM =     32   number of bands    NBANDS=    160
   number of dos      NEDOS =   3001   number of ions     NIONS =     32
   non local maximal  LDIM  =      6   non local SUM 2l+1 LMDIM =     18
   total plane-waves  NPLWV = 343000
   max r-space proj   IRMAX =  10156   max aug-charges    IRDMAX= 227667
   dimension x,y,z NGX =    70 NGY =   70 NGZ =   70
   dimension x,y,z NGXF=   140 NGYF=  140 NGZF=  140
   support grid    NGXF=   280 NGYF=  280 NGZF=  280
   ions per type =               8   8  16
   NGX,Y,Z   is equivalent  to a cutoff of  14.68, 14.87, 15.42 a.u.
   NGXF,Y,Z  is equivalent  to a cutoff of  29.35, 29.74, 30.84 a.u.

 SYSTEM =  LTO                                     
 POSCAR =  TiOF2 2x2x2 config 0013                 

 Startparameter for this run:
   NWRITE =      2    write-flag & timer
   PREC   = accura    normal or accurate (medium, high low for compatibility)
   ISTART =      1    job   : 0-new  1-cont  2-samecut
   ICHARG =      0    charge: 1-file 2-atom 10-const
   ISPIN  =      2    spin polarized calculation?
   LNONCOLLINEAR =      F non collinear calculations
   LSORBIT =      F    spin-orbit coupling
   INIWAV =      1    electr: 0-lowe 1-rand  2-diag
   LASPH  =      T    aspherical Exc in radial PAW
   METAGGA=      F    non-selfconsistent MetaGGA calc.

 Electronic Relaxation 1
   ENCUT  =  700.0 eV  51.45 Ry    7.17 a.u.  17.11 16.88 16.28*2*pi/ulx,y,z
   ENINI  =  700.0     initial cutoff
   ENAUG  =  613.6 eV  augmentation charge cutoff
   NELM   =     60;   NELMIN=  2; NELMDL=  0     # of ELM steps 
   EDIFF  = 0.1E-05   stopping-criterion for ELM
   LREAL  =      T    real-space projection
   NLSPLINE    = F    spline interpolate recip. space projectors
   LCOMPAT=      F    compatible to vasp.4.4
   GGA_COMPAT  = T    GGA compatible to vasp.4.4-vasp.4.6
   LMAXPAW     = -100 max onsite density
   LMAXMIX     =    4 max onsite mixed and CHGCAR
   VOSKOWN=      0    Vosko Wilk Nusair interpolation
   ROPT   =   -0.00010  -0.00010  -0.00010
 Ionic relaxation
   EDIFFG = -.1E-01   stopping-criterion for IOM
   NSW    =    100    number of steps for IOM
   NBLOCK =      1;   KBLOCK =    100    inner block; outer block 
   IBRION =      1    ionic relax: 0-MD 1-quasi-New 2-CG
   NFREE  =      0    steps in history (QN), initial steepest desc. (CG)
   ISIF   =      3    stress and relaxation
   IWAVPR =     11    prediction:  0-non 1-charg 2-wave 3-comb
   ISYM   =      0    0-nonsym 1-usesym 2-fastsym
   LCORR  =      T    Harris-Foulkes like correction to forces

   POTIM  = 0.5000    time-step for ionic-motion
   TEIN   =    0.0    initial temperature
   TEBEG  =    0.0;   TEEND  =   0.0 temperature during run
   SMASS  =  -3.00    Nose mass-parameter (am)
   estimated Nose-frequenzy (Omega)   =  0.10E-29 period in steps =****** mass=  -0.144E-26a.u.
   SCALEE = 1.0000    scale energy and forces
   NPACO  =    256;   APACO  = 16.0  distance and # of slots for P.C.
   PSTRESS=    0.0 pullay stress

  Mass of Ions in am
   POMASS =  47.88 16.00 19.00
  Ionic Valenz
   ZVAL   =  10.00  6.00  7.00
  Atomic Wigner-Seitz radii
   RWIGS  =  -1.00 -1.00 -1.00
  virtual crystal weights 
   VCA    =   1.00  1.00  1.00
   NELECT =     240.0000    total number of electrons
   NUPDOWN=      -1.0000    fix difference up-down

 DOS related values:
   EMIN   =  10.00;   EMAX   =-10.00  energy-range for DOS
   EFERMI =   0.00
   ISMEAR =     0;   SIGMA  =   0.01  broadening in eV -4-tet -1-fermi 0-gaus

 Electronic relaxation 2 (details)
   IALGO  =     38    algorithm
   LDIAG  =      T    sub-space diagonalisation (order eigenvalues)
   LSUBROT=      F    optimize rotation matrix (better conditioning)
   TURBO    =      0    0=normal 1=particle mesh
   IRESTART =      0    0=no restart 2=restart with 2 vectors
   NREBOOT  =      0    no. of reboots
   NMIN     =      0    reboot dimension
   EREF     =   0.00    reference energy to select bands
   IMIX   =      4    mixing-type and parameters
     AMIX     =   0.40;   BMIX     =  1.00
     AMIX_MAG =   1.60;   BMIX_MAG =  1.00
     AMIN     =   0.10
     WC   =   100.;   INIMIX=   1;  MIXPRE=   1;  MAXMIX= -45

 Intra band minimization:
   WEIMIN = 0.0010     energy-eigenvalue tresh-hold
   EBREAK =  0.16E-08  absolut break condition
   DEPER  =   0.30     relativ break condition  

   TIME   =   0.40     timestep for ELM

  volume/ion in A,a.u.               =      14.63        98.76
  Fermi-wavevector in a.u.,A,eV,Ry     =   1.310105  2.475739 23.352698  1.716375
  Thomas-Fermi vector in A             =   2.440658
 
 Write flags
   LWAVE        =      T    write WAVECAR
   LDOWNSAMPLE  =      F    k-point downsampling of WAVECAR
   LCHARG       =      T    write CHGCAR
   LVTOT        =      F    write LOCPOT, total local potential
   LVHAR        =      F    write LOCPOT, Hartree potential only
   LELF         =      F    write electronic localiz. function (ELF)
   LORBIT       =     11    0 simple, 1 ext, 2 COOP (PROOUT), +10 PAW based schemes


 Dipole corrections
   LMONO  =      F    monopole corrections only (constant potential shift)
   LDIPOL =      F    correct potential (dipole corrections)
   IDIPOL =      0    1-x, 2-y, 3-z, 4-all directions 
   EPSILON=  1.0000000 bulk dielectric constant

 LDA+U is selected, type is set to LDAUTYPE =  2
   angular momentum for each species LDAUL =     2   -1   -1
   U (eV)           for each species LDAUU =   4.2  0.0  0.0
   J (eV)           for each species LDAUJ =   0.0  0.0  0.0
 Exchange correlation treatment:
   GGA     =    PS    GGA type
   LEXCH   =    14    internal setting for exchange type
   VOSKOWN=      0    Vosko Wilk Nusair interpolation
   LHFCALC =     F    Hartree Fock is set to
   LHFONE  =     F    Hartree Fock one center treatment
   AEXX    =    0.0000 exact exchange contribution

 Linear response parameters
   LEPSILON=     F    determine dielectric tensor
   LRPA    =     F    only Hartree local field effects (RPA)
   LNABLA  =     F    use nabla operator in PAW spheres
   LVEL    =     F    velocity operator in full k-point grid
   LINTERFAST=   F  fast interpolation
   KINTER  =     0    interpolate to denser k-point grid
   CSHIFT  =0.1000    complex shift for real part using Kramers Kronig
   OMEGAMAX=  -1.0    maximum frequency
   DEG_THRESHOLD= 0.2000000E-02 threshold for treating states as degnerate
   RTIME   =   -0.100 relaxation time in fs
  (WPLASMAI=    0.000 imaginary part of plasma frequency in eV, 0.658/RTIME)
   DFIELD  = 0.0000000 0.0000000 0.0000000 field for delta impulse in time
 
 Orbital magnetization related:
   ORBITALMAG=     F  switch on orbital magnetization
   LCHIMAG   =     F  perturbation theory with respect to B field
   DQ        =  0.001000  dq finite difference perturbation B field
   LLRAUG    =     F  two centre corrections for induced B field



--------------------------------------------------------------------------------------------------------


 quasi-Newton-method for relaxation of ions
 charge density and potential will be updated during run
 spin polarized calculation
 Variant of blocked Davidson
 Davidson routine will perform the subspace rotation
 perform sub-space diagonalisation
    after iterative eigenvector-optimisation
 modified Broyden-mixing scheme, WC =      100.0
 initial mixing is a Kerker type mixing with AMIX =  0.4000 and BMIX =      1.0000
 Hartree-type preconditioning will be used
 using additional bands           40
 real space projection scheme for non local part
 use partial core corrections
 calculate Harris-corrections to forces 
   (improved forces if not selfconsistent)
 use gradient corrections 
 use of overlap-Matrix (Vanderbilt PP)
 Gauss-broadening in eV      SIGMA  =   0.01


--------------------------------------------------------------------------------------------------------


  energy-cutoff  :      700.00
  volume of cell :      468.29
      direct lattice vectors                 reciprocal lattice vectors
     7.929011524 -0.000902519  0.000064170     0.126119127  0.000014300 -0.000001005
    -0.000887256  7.825325788  0.000051053     0.000014546  0.127790208 -0.000000851
     0.000060158  0.000050244  7.547376873    -0.000001072 -0.000000865  0.132496365

  length of vectors
     7.929011575  7.825325839  7.547376874     0.126119128  0.127790209  0.132496365


 
 old parameters found on file WAVECAR:
  energy-cutoff  :      700.00
  volume of cell :      467.90
      direct lattice vectors                 reciprocal lattice vectors
     7.927262645 -0.001433098  0.000129229     0.126146954  0.000022755 -0.000002042
    -0.001411079  7.822527911  0.000092552     0.000023110  0.127835918 -0.000001530
     0.000122111  0.000090274  7.545396832    -0.000002161 -0.000001568  0.132531134

  length of vectors

 
 k-points in units of 2pi/SCALE and weight: Title                                   
   0.01576658  0.01597546  0.01656181       0.031
   0.04729636  0.01597903  0.01656156       0.031
  -0.04729299  0.01596831  0.01656232       0.031
  -0.01576321  0.01597188  0.01656206       0.031
   0.01577021  0.04792301  0.01656160       0.031
   0.04729999  0.04792658  0.01656135       0.031
  -0.04728935  0.04791586  0.01656210       0.031
  -0.01575957  0.04791943  0.01656185       0.031
   0.01575930 -0.04791965  0.01656224       0.031
   0.04728908 -0.04791607  0.01656199       0.031
  -0.04730026 -0.04792680  0.01656274       0.031
  -0.01577048 -0.04792322  0.01656249       0.031
   0.01576294 -0.01597210  0.01656203       0.031
   0.04729272 -0.01596852  0.01656177       0.031
  -0.04729662 -0.01597925  0.01656253       0.031
  -0.01576684 -0.01597567  0.01656228       0.031
   0.01576631  0.01597524  0.04968590       0.031
   0.04729609  0.01597881  0.04968565       0.031
  -0.04729326  0.01596809  0.04968641       0.031
  -0.01576347  0.01597166  0.04968616       0.031
   0.01576994  0.04792279  0.04968569       0.031
   0.04729973  0.04792637  0.04968544       0.031
  -0.04728962  0.04791564  0.04968619       0.031
  -0.01575984  0.04791922  0.04968594       0.031
   0.01575903 -0.04791986  0.04968633       0.031
   0.04728882 -0.04791629  0.04968608       0.031
  -0.04730053 -0.04792701  0.04968683       0.031
  -0.01577075 -0.04792344  0.04968658       0.031
   0.01576267 -0.01597231  0.04968612       0.031
   0.04729245 -0.01596874  0.04968587       0.031
  -0.04729689 -0.01597946  0.04968662       0.031
  -0.01576711 -0.01597589  0.04968637       0.031
 
 k-points in reciprocal lattice and weights: Title                                   
   0.12500000  0.12500000  0.12500000       0.031
   0.37500000  0.12500000  0.12500000       0.031
  -0.37500000  0.12500000  0.12500000       0.031
  -0.12500000  0.12500000  0.12500000       0.031
   0.12500000  0.37500000  0.12500000       0.031
   0.37500000  0.37500000  0.12500000       0.031
  -0.37500000  0.37500000  0.12500000       0.031
  -0.12500000  0.37500000  0.12500000       0.031
   0.12500000 -0.37500000  0.12500000       0.031
   0.37500000 -0.37500000  0.12500000       0.031
  -0.37500000 -0.37500000  0.12500000       0.031
  -0.12500000 -0.37500000  0.12500000       0.031
   0.12500000 -0.12500000  0.12500000       0.031
   0.37500000 -0.12500000  0.12500000       0.031
  -0.37500000 -0.12500000  0.12500000       0.031
  -0.12500000 -0.12500000  0.12500000       0.031
   0.12500000  0.12500000  0.37500000       0.031
   0.37500000  0.12500000  0.37500000       0.031
  -0.37500000  0.12500000  0.37500000       0.031
  -0.12500000  0.12500000  0.37500000       0.031
   0.12500000  0.37500000  0.37500000       0.031
   0.37500000  0.37500000  0.37500000       0.031
  -0.37500000  0.37500000  0.37500000       0.031
  -0.12500000  0.37500000  0.37500000       0.031
   0.12500000 -0.37500000  0.37500000       0.031
   0.37500000 -0.37500000  0.37500000       0.031
  -0.37500000 -0.37500000  0.37500000       0.031
  -0.12500000 -0.37500000  0.37500000       0.031
   0.12500000 -0.12500000  0.37500000       0.031
   0.37500000 -0.12500000  0.37500000       0.031
  -0.37500000 -0.12500000  0.37500000       0.031
  -0.12500000 -0.12500000  0.37500000       0.031
 
 position of ions in fractional coordinates (direct lattice) 
   1.00000000  0.99999903  0.99999990
   0.99999992  0.99999965  0.49999944
   0.00000020  0.49999915  0.99999991
   0.00000009  0.50000010  0.49999987
   0.49999992  0.99999393  0.00000028
   0.49999944  0.00003880  0.50000019
   0.50000043  0.50000168  0.99999939
   0.49999999  0.49999207  0.49999950
   0.49999034  0.24783285  0.50000021
   0.50000592  0.75215979  0.49999997
   0.00000057  0.50000288  0.25106982
   0.99999977  0.49999699  0.74893024
   0.49999864  0.99997758  0.24589319
   0.50000023  0.99997820  0.75410677
   0.50000025  0.50002150  0.24602777
   0.50000250  0.50002306  0.75397305
   0.24504602  0.99992046  0.00000202
   0.23651694  0.99999751  0.50000267
   0.24756791  0.49997797  0.99999933
   0.24373001  0.49998782  0.49999946
   0.75495385  0.00008102  0.99999771
   0.76348248  0.00000266  0.49999719
   0.75243295  0.50001630  0.00000096
   0.75627015  0.50000599  0.50000114
   0.99991457  0.25186198  0.00000916
   0.00000742  0.24245096  0.49999879
   0.00008544  0.74813634  0.99999041
   0.99999263  0.75754846  0.50000098
   0.49997781  0.24896243  0.00000001
   0.50002337  0.75103388  0.00000048
   0.00000687  0.99999757  0.25622813
   0.99999336  0.00000141  0.74377205
 
 position of ions in cartesian coordinates  (Angst):
   7.92818440  7.82446589  7.54749137
   7.92815372  7.82444562  3.77379943
  -0.00038189  3.91270646  7.54740172
  -0.00041281  3.91268879  3.77371300
   3.96361788  7.82482703  0.00008528
   3.96453140 -0.00012252  3.77372194
   3.96412568  3.91227505  7.54742986
   3.96409212  3.91217473  3.77374225
   3.96423939  1.93894669  3.77373477
   3.96391542  5.88546922  3.77375873
  -0.00042399  3.91269801  1.89494410
   7.92861115  3.91177442  5.65254845
   3.96362255  7.82471142  1.85593175
   3.96366568  7.82474183  5.69161112
   3.96407886  3.91239225  1.85692192
   3.96412727  3.91242998  5.69057634
   1.94208550  7.82448219  0.00008206
   1.87448836  7.82511793  3.77377482
   1.96258539  3.91231732  7.54741324
   1.93212453  3.91237274  3.77372551
   5.98609785  0.00000288  7.54740807
   6.05369144 -0.00064308  3.77371620
   5.96560590  3.91211134  0.00008105
   5.99606117  3.91205238  3.77377108
   7.92811069  1.96999957  0.00014618
  -0.00012622  1.89728287  3.77369172
   0.00007386  5.85446077  7.54734268
   7.92831106  5.92718610  3.77379865
   3.96410893  1.94776092  0.00004485
   3.96402474  5.87663347  0.00007404
  -0.00081734  7.82531963  1.93390134
   7.92900361 -0.00085412  5.61359214
 


--------------------------------------------------------------------------------------------------------


 k-point  1 :   0.1250 0.1250 0.1250  plane waves:   19679
 k-point  2 :   0.3750 0.1250 0.1250  plane waves:   19699
 k-point  3 :  -0.3750 0.1250 0.1250  plane waves:   19694
 k-point  4 :  -0.1250 0.1250 0.1250  plane waves:   19678
 k-point  5 :   0.1250 0.3750 0.1250  plane waves:   19702
 k-point  6 :   0.3750 0.3750 0.1250  plane waves:   19684
 k-point  7 :  -0.3750 0.3750 0.1250  plane waves:   19685
 k-point  8 :  -0.1250 0.3750 0.1250  plane waves:   19703
 k-point  9 :   0.1250-0.3750 0.1250  plane waves:   19703
 k-point 10 :   0.3750-0.3750 0.1250  plane waves:   19686
 k-point 11 :  -0.3750-0.3750 0.1250  plane waves:   19684
 k-point 12 :  -0.1250-0.3750 0.1250  plane waves:   19702
 k-point 13 :   0.1250-0.1250 0.1250  plane waves:   19678
 k-point 14 :   0.3750-0.1250 0.1250  plane waves:   19694
 k-point 15 :  -0.3750-0.1250 0.1250  plane waves:   19699
 k-point 16 :  -0.1250-0.1250 0.1250  plane waves:   19679
 k-point 17 :   0.1250 0.1250 0.3750  plane waves:   19673
 k-point 18 :   0.3750 0.1250 0.3750  plane waves:   19685
 k-point 19 :  -0.3750 0.1250 0.3750  plane waves:   19689
 k-point 20 :  -0.1250 0.1250 0.3750  plane waves:   19670
 k-point 21 :   0.1250 0.3750 0.3750  plane waves:   19692
 k-point 22 :   0.3750 0.3750 0.3750  plane waves:   19711
 k-point 23 :  -0.3750 0.3750 0.3750  plane waves:   19709
 k-point 24 :  -0.1250 0.3750 0.3750  plane waves:   19696
 k-point 25 :   0.1250-0.3750 0.3750  plane waves:   19695
 k-point 26 :   0.3750-0.3750 0.3750  plane waves:   19709
 k-point 27 :  -0.3750-0.3750 0.3750  plane waves:   19710
 k-point 28 :  -0.1250-0.3750 0.3750  plane waves:   19692
 k-point 29 :   0.1250-0.1250 0.3750  plane waves:   19672
 k-point 30 :   0.3750-0.1250 0.3750  plane waves:   19689
 k-point 31 :  -0.3750-0.1250 0.3750  plane waves:   19685
 k-point 32 :  -0.1250-0.1250 0.3750  plane waves:   19672

 maximum and minimum number of plane-waves per node :      2487     2426

 maximum number of plane-waves:     19711
 maximum index in each direction: 
   IXMAX=   17   IYMAX=   17   IZMAX=   16
   IXMIN=  -17   IYMIN=  -17   IZMIN=  -16


 real space projection operators:
  total allocation   :      18200.72 KBytes
  max/ min on nodes  :       2417.31       1891.00


 parallel 3D FFT for wavefunctions:
    minimum data exchange during FFTs selected (reduces bandwidth)
 parallel 3D FFT for charge:
    minimum data exchange during FFTs selected (reduces bandwidth)


 total amount of memory used by VASP MPI-rank0   107197. kBytes
=======================================================================

   base      :      30000. kBytes
   nonlr-proj:       8421. kBytes
   fftplans  :       8424. kBytes
   grid      :       8783. kBytes
   one-center:        124. kBytes
   wavefun   :      51445. kBytes
 
     INWAV:  cpu time   29.9954: real time   37.8263
 Broyden mixing: mesh for mixing (old mesh)
   NGX = 35   NGY = 33   NGZ = 33
  (NGX  =140   NGY  =140   NGZ  =140)
  gives a total of  38115 points

 charge density for first step will be calculated from the start-wavefunctions


--------------------------------------------------------------------------------------------------------


 Maximum index for non-local projection operator         1353
 Maximum index for augmentation-charges         7106 (set IRDMAX)


--------------------------------------------------------------------------------------------------------


 initial charge from wavefunction
 First call to EWALD:  gamma=   0.228
 Maximum number of real-space cells 3x 3x 3
 Maximum number of reciprocal cells 3x 3x 3

    FEWALD:  cpu time    0.0030: real time    0.0033


--------------------------------------- Iteration      1(   1)  ---------------------------------------


    POTLOK:  cpu time    0.4009: real time    0.4524
    SETDIJ:  cpu time    0.8319: real time    0.8382
     EDDAV:  cpu time   27.9707: real time   28.2044
       DOS:  cpu time    0.0050: real time    0.0051
    CHARGE:  cpu time    1.1388: real time    1.1463
    MIXING:  cpu time    0.0090: real time    0.0097
    --------------------------------------------
      LOOP:  cpu time   30.3564: real time   30.6560

 eigenvalue-minimisations  : 20528
 total energy-change (2. order) :-0.2084821E+03  (-0.1058519E-02)
 number of electron     240.0000002 magnetization      -0.0000000
 augmentation part       62.0024660 magnetization      -0.3977801

 Broyden mixing:
  rms(total) = 0.63816E-03    rms(broyden)= 0.63712E-03
  rms(prec ) = 0.10017E-02
  weight for this iteration     100.00

 Free energy of the ion-electron system (eV)
  ---------------------------------------------------
  alpha Z        PSCENC =       747.75030056
  Ewald energy   TEWEN  =    -12677.97232796
  -Hartree energ DENC   =     -8328.95976925
  -exchange      EXHF   =         0.00000000
  -V(xc)+E(xc)   XCENC  =      1119.07853817
  PAW double counting   =     17961.60318638   -18082.91927796
  entropy T*S    EENTRO =        -0.00021381
  eigenvalues    EBANDS =     -3249.41577516
  atomic energy  EATOM  =     22302.35321627
  Solvation  Ediel_sol  =         0.00000000
  ---------------------------------------------------
  free energy    TOTEN  =      -208.48212278 eV

  energy without entropy =     -208.48190897  energy(sigma->0) =     -208.48201587


--------------------------------------------------------------------------------------------------------




--------------------------------------- Iteration      1(   2)  ---------------------------------------


    POTLOK:  cpu time    0.1990: real time    0.5125
    SETDIJ:  cpu time    0.8419: real time    0.8392
     EDDAV:  cpu time   28.8616: real time   28.8662
       DOS:  cpu time    0.0050: real time    0.0051
    --------------------------------------------
      LOOP:  cpu time   29.9075: real time   30.2230

 eigenvalue-minimisations  : 21184
 total energy-change (2. order) : 0.7919516E-07  (-0.3229687E-06)
 number of electron     240.0000002 magnetization      -0.0000000
 augmentation part       62.0024660 magnetization      -0.3977801

 Free energy of the ion-electron system (eV)
  ---------------------------------------------------
  alpha Z        PSCENC =       747.75030056
  Ewald energy   TEWEN  =    -12677.97232796
  -Hartree energ DENC   =     -8328.95721132
  -exchange      EXHF   =         0.00000000
  -V(xc)+E(xc)   XCENC  =      1119.07797356
  PAW double counting   =     17961.61923215   -18082.93459450
  entropy T*S    EENTRO =        -0.00021200
  eigenvalues    EBANDS =     -3249.41849946
  atomic energy  EATOM  =     22302.35321627
  Solvation  Ediel_sol  =         0.00000000
  ---------------------------------------------------
  free energy    TOTEN  =      -208.48212270 eV

  energy without entropy =     -208.48191071  energy(sigma->0) =     -208.48201670


--------------------------------------------------------------------------------------------------------




 average (electrostatic) potential at core
  the test charge radii are     1.0397  0.7215  0.7167
  (the norm of the test charge is              1.0000)
       1 -58.0969       2 -60.6688       3 -59.0448       4 -59.0090       5 -58.7380
       6 -58.0694       7 -58.5182       8 -57.9828       9 -73.2470      10 -73.2513
      11 -73.5515      12 -73.5514      13 -73.4732      14 -73.4732      15 -73.2450
      16 -73.2450      17 -79.5980      18 -79.9240      19 -79.0634      20 -78.8853
      21 -79.5980      22 -79.9240      23 -79.0634      24 -78.8853      25 -79.5126
      26 -80.1857      27 -79.5126      28 -80.1857      29 -79.1977      30 -79.1975
      31 -80.7972      32 -80.7971
 
 
 
 E-fermi :   0.3154     XC(G=0):  -8.9162     alpha+bet : -7.5456


 spin component 1

 k-point     1 :       0.1250    0.1250    0.1250
  band No.  band energies     occupation 
      1     -36.6867      1.00000
      2     -36.5750      1.00000
      3     -36.5341      1.00000
      4     -35.0901      1.00000
      5     -35.0624      1.00000
      6     -35.0149      1.00000
      7     -34.9913      1.00000
      8     -34.8116      1.00000
      9     -34.7750      1.00000
     10     -34.6421      1.00000
     11     -34.6264      1.00000
     12     -34.5642      1.00000
     13     -34.5516      1.00000
     14     -34.5466      1.00000
     15     -34.3214      1.00000
     16     -34.1349      1.00000
     17     -34.0960      1.00000
     18     -33.9902      1.00000
     19     -33.8244      1.00000
     20     -33.7378      1.00000
     21     -33.6876      1.00000
     22     -33.6616      1.00000
     23     -33.4708      1.00000
     24     -33.3105      1.00000
     25     -24.7781      1.00000
     26     -24.0623      1.00000
     27     -24.0184      1.00000
     28     -23.7122      1.00000
     29     -23.5667      1.00000
     30     -23.5016      1.00000
     31     -23.3362      1.00000
     32     -23.2758      1.00000
     33     -23.0821      1.00000
     34     -23.0271      1.00000
     35     -22.9118      1.00000
     36     -22.8430      1.00000
     37     -22.7016      1.00000
     38     -22.6135      1.00000
     39     -22.5039      1.00000
     40     -22.3038      1.00000
     41     -16.5220      1.00000
     42     -16.4914      1.00000
     43     -16.2772      1.00000
     44     -15.9474      1.00000
     45     -15.6803      1.00000
     46     -15.6185      1.00000
     47     -15.5060      1.00000
     48     -15.3850      1.00000
     49      -8.3982      1.00000
     50      -7.6992      1.00000
     51      -7.3134      1.00000
     52      -7.0041      1.00000
     53      -6.8477      1.00000
     54      -6.6770      1.00000
     55      -6.6695      1.00000
     56      -6.6578      1.00000
     57      -6.5576      1.00000
     58      -6.4262      1.00000
     59      -6.3228      1.00000
     60      -6.2715      1.00000
     61      -6.1594      1.00000
     62      -6.0979      1.00000
     63      -5.7093      1.00000
     64      -5.6845      1.00000
     65      -5.6718      1.00000
     66      -5.3336      1.00000
     67      -5.3240      1.00000
     68      -5.1967      1.00000
     69      -5.1767      1.00000
     70      -5.0947      1.00000
     71      -5.0712      1.00000
     72      -4.8370      1.00000
     73      -4.7819      1.00000
     74      -4.7644      1.00000
     75      -4.7594      1.00000
     76      -4.7379      1.00000
     77      -4.7180      1.00000
     78      -4.7161      1.00000
     79      -4.7041      1.00000
     80      -4.6456      1.00000
     81      -4.6340      1.00000
     82      -4.5783      1.00000
     83      -4.4934      1.00000
     84      -4.4635      1.00000
     85      -4.4157      1.00000
     86      -4.3815      1.00000
     87      -4.2785      1.00000
     88      -4.2685      1.00000
     89      -4.2622      1.00000
     90      -4.2064      1.00000
     91      -4.0429      1.00000
     92      -4.0028      1.00000
     93      -3.9254      1.00000
     94      -3.8931      1.00000
     95      -3.8483      1.00000
     96      -3.7953      1.00000
     97      -3.7855      1.00000
     98      -3.7067      1.00000
     99      -3.6901      1.00000
    100      -3.2948      1.00000
    101      -2.6331      1.00000
    102      -2.0655      1.00000
    103      -1.8625      1.00000
    104      -1.7667      1.00000
    105      -1.7094      1.00000
    106      -1.6917      1.00000
    107      -1.6205      1.00000
    108      -1.5698      1.00000
    109      -1.3295      1.00000
    110      -1.2856      1.00000
    111      -1.2299      1.00000
    112      -1.1702      1.00000
    113      -1.1520      1.00000
    114      -1.1129      1.00000
    115      -0.9214      1.00000
    116      -0.7751      1.00000
    117      -0.5979      1.00000
    118      -0.4961      1.00000
    119      -0.4485      1.00000
    120      -0.1218      1.00000
    121       1.3179      0.00000
    122       1.3211      0.00000
    123       1.3235      0.00000
    124       2.1499      0.00000
    125       2.1862      0.00000
    126       2.2873      0.00000
    127       2.4627      0.00000
    128       2.5785      0.00000
    129       2.5960      0.00000
    130       2.6347      0.00000
    131       2.7464      0.00000
    132       2.7853      0.00000
    133       3.0836      0.00000
    134       3.1625      0.00000
    135       3.1782      0.00000
    136       3.1965      0.00000
    137       3.4342      0.00000
    138       3.5146      0.00000
    139       3.5578      0.00000
    140       3.6615      0.00000
    141       3.7327      0.00000
    142       3.8178      0.00000
    143       3.9099      0.00000
    144       3.9294      0.00000
    145       4.0459      0.00000
    146       4.3261      0.00000
    147       4.3832      0.00000
    148       4.3912      0.00000
    149       4.4129      0.00000
    150       4.5641      0.00000
    151       4.6340      0.00000
    152       4.8868      0.00000
    153       4.9210      0.00000
    154       5.1339      0.00000
    155       5.4536      0.00000
    156       5.8184      0.00000
    157       5.9616      0.00000
    158       6.0366      0.00000
    159       6.3940      0.00000
    160       7.0138      0.00000

 k-point     2 :       0.3750    0.1250    0.1250
  band No.  band energies     occupation 
      1     -36.6867      1.00000
      2     -36.5746      1.00000
      3     -36.5341      1.00000
      4     -35.0901      1.00000
      5     -35.0624      1.00000
      6     -35.0122      1.00000
      7     -34.9901      1.00000
      8     -34.8019      1.00000
      9     -34.7750      1.00000
     10     -34.6421      1.00000
     11     -34.6368      1.00000
     12     -34.5642      1.00000
     13     -34.5516      1.00000
     14     -34.5498      1.00000
     15     -34.3214      1.00000
     16     -34.1358      1.00000
     17     -34.0960      1.00000
     18     -33.9920      1.00000
     19     -33.8244      1.00000
     20     -33.7378      1.00000
     21     -33.6876      1.00000
     22     -33.6616      1.00000
     23     -33.4708      1.00000
     24     -33.3105      1.00000
     25     -24.7769      1.00000
     26     -24.0588      1.00000
     27     -24.0175      1.00000
     28     -23.6441      1.00000
     29     -23.5658      1.00000
     30     -23.4398      1.00000
     31     -23.3540      1.00000
     32     -23.2929      1.00000
     33     -23.1693      1.00000
     34     -23.0355      1.00000
     35     -22.9103      1.00000
     36     -22.7588      1.00000
     37     -22.6226      1.00000
     38     -22.6039      1.00000
     39     -22.5990      1.00000
     40     -22.4064      1.00000
     41     -16.5213      1.00000
     42     -16.4910      1.00000
     43     -16.2767      1.00000
     44     -15.9473      1.00000
     45     -15.6799      1.00000
     46     -15.6185      1.00000
     47     -15.5060      1.00000
     48     -15.3856      1.00000
     49      -8.3968      1.00000
     50      -7.6980      1.00000
     51      -7.0350      1.00000
     52      -6.9200      1.00000
     53      -6.7157      1.00000
     54      -6.6579      1.00000
     55      -6.6423      1.00000
     56      -6.5623      1.00000
     57      -6.5256      1.00000
     58      -6.3367      1.00000
     59      -6.3206      1.00000
     60      -6.1068      1.00000
     61      -6.0650      1.00000
     62      -6.0212      1.00000
     63      -5.9255      1.00000
     64      -5.6930      1.00000
     65      -5.5778      1.00000
     66      -5.5273      1.00000
     67      -5.4532      1.00000
     68      -5.3463      1.00000
     69      -5.3072      1.00000
     70      -5.2437      1.00000
     71      -5.1506      1.00000
     72      -5.1000      1.00000
     73      -4.8871      1.00000
     74      -4.8684      1.00000
     75      -4.8315      1.00000
     76      -4.7706      1.00000
     77      -4.7576      1.00000
     78      -4.7307      1.00000
     79      -4.7105      1.00000
     80      -4.5960      1.00000
     81      -4.5819      1.00000
     82      -4.5251      1.00000
     83      -4.4947      1.00000
     84      -4.4880      1.00000
     85      -4.4172      1.00000
     86      -4.3504      1.00000
     87      -4.2619      1.00000
     88      -4.2432      1.00000
     89      -4.1878      1.00000
     90      -4.1323      1.00000
     91      -4.1231      1.00000
     92      -4.0408      1.00000
     93      -3.9612      1.00000
     94      -3.9150      1.00000
     95      -3.8776      1.00000
     96      -3.8421      1.00000
     97      -3.7629      1.00000
     98      -3.6757      1.00000
     99      -3.6390      1.00000
    100      -3.4293      1.00000
    101      -2.6333      1.00000
    102      -2.0695      1.00000
    103      -1.7806      1.00000
    104      -1.7118      1.00000
    105      -1.6796      1.00000
    106      -1.6266      1.00000
    107      -1.5642      1.00000
    108      -1.5119      1.00000
    109      -1.3722      1.00000
    110      -1.2908      1.00000
    111      -1.2290      1.00000
    112      -1.1565      1.00000
    113      -1.1454      1.00000
    114      -1.1192      1.00000
    115      -1.0798      1.00000
    116      -0.8784      1.00000
    117      -0.5989      1.00000
    118      -0.5059      1.00000
    119      -0.4498      1.00000
    120      -0.1219      1.00000
    121       1.3180      0.00000
    122       1.3640      0.00000
    123       1.3792      0.00000
    124       2.2872      0.00000
    125       2.3257      0.00000
    126       2.3560      0.00000
    127       2.5221      0.00000
    128       2.5948      0.00000
    129       2.6177      0.00000
    130       2.6204      0.00000
    131       2.6353      0.00000
    132       2.9472      0.00000
    133       3.0620      0.00000
    134       3.1164      0.00000
    135       3.2236      0.00000
    136       3.3942      0.00000
    137       3.5029      0.00000
    138       3.5383      0.00000
    139       3.5579      0.00000
    140       3.7306      0.00000
    141       3.8183      0.00000
    142       3.9257      0.00000
    143       3.9710      0.00000
    144       4.1503      0.00000
    145       4.2888      0.00000
    146       4.3270      0.00000
    147       4.3584      0.00000
    148       4.3923      0.00000
    149       4.4194      0.00000
    150       4.5367      0.00000
    151       4.6337      0.00000
    152       4.6858      0.00000
    153       4.8870      0.00000
    154       4.9510      0.00000
    155       5.3826      0.00000
    156       5.6447      0.00000
    157       5.8930      0.00000
    158       6.1484      0.00000
    159       6.3764      0.00000
    160       6.6549      0.00000

 k-point     3 :      -0.3750    0.1250    0.1250
  band No.  band energies     occupation 
      1     -36.6867      1.00000
      2     -36.5746      1.00000
      3     -36.5341      1.00000
      4     -35.0901      1.00000
      5     -35.0624      1.00000
      6     -35.0122      1.00000
      7     -34.9901      1.00000
      8     -34.8019      1.00000
      9     -34.7750      1.00000
     10     -34.6421      1.00000
     11     -34.6368      1.00000
     12     -34.5642      1.00000
     13     -34.5516      1.00000
     14     -34.5498      1.00000
     15     -34.3214      1.00000
     16     -34.1358      1.00000
     17     -34.0960      1.00000
     18     -33.9920      1.00000
     19     -33.8244      1.00000
     20     -33.7378      1.00000
     21     -33.6876      1.00000
     22     -33.6616      1.00000
     23     -33.4708      1.00000
     24     -33.3105      1.00000
     25     -24.7769      1.00000
     26     -24.0588      1.00000
     27     -24.0175      1.00000
     28     -23.6441      1.00000
     29     -23.5658      1.00000
     30     -23.4399      1.00000
     31     -23.3540      1.00000
     32     -23.2928      1.00000
     33     -23.1694      1.00000
     34     -23.0355      1.00000
     35     -22.9103      1.00000
     36     -22.7587      1.00000
     37     -22.6227      1.00000
     38     -22.6039      1.00000
     39     -22.5990      1.00000
     40     -22.4064      1.00000
     41     -16.5213      1.00000
     42     -16.4910      1.00000
     43     -16.2767      1.00000
     44     -15.9473      1.00000
     45     -15.6799      1.00000
     46     -15.6185      1.00000
     47     -15.5060      1.00000
     48     -15.3856      1.00000
     49      -8.3968      1.00000
     50      -7.6980      1.00000
     51      -7.0350      1.00000
     52      -6.9200      1.00000
     53      -6.7156      1.00000
     54      -6.6579      1.00000
     55      -6.6423      1.00000
     56      -6.5623      1.00000
     57      -6.5255      1.00000
     58      -6.3368      1.00000
     59      -6.3205      1.00000
     60      -6.1068      1.00000
     61      -6.0651      1.00000
     62      -6.0212      1.00000
     63      -5.9254      1.00000
     64      -5.6930      1.00000
     65      -5.5777      1.00000
     66      -5.5275      1.00000
     67      -5.4532      1.00000
     68      -5.3464      1.00000
     69      -5.3072      1.00000
     70      -5.2436      1.00000
     71      -5.1506      1.00000
     72      -5.0998      1.00000
     73      -4.8871      1.00000
     74      -4.8682      1.00000
     75      -4.8315      1.00000
     76      -4.7706      1.00000
     77      -4.7577      1.00000
     78      -4.7306      1.00000
     79      -4.7106      1.00000
     80      -4.5960      1.00000
     81      -4.5819      1.00000
     82      -4.5248      1.00000
     83      -4.4947      1.00000
     84      -4.4880      1.00000
     85      -4.4172      1.00000
     86      -4.3504      1.00000
     87      -4.2619      1.00000
     88      -4.2442      1.00000
     89      -4.1878      1.00000
     90      -4.1321      1.00000
     91      -4.1231      1.00000
     92      -4.0407      1.00000
     93      -3.9608      1.00000
     94      -3.9150      1.00000
     95      -3.8777      1.00000
     96      -3.8421      1.00000
     97      -3.7629      1.00000
     98      -3.6758      1.00000
     99      -3.6390      1.00000
    100      -3.4291      1.00000
    101      -2.6333      1.00000
    102      -2.0695      1.00000
    103      -1.7806      1.00000
    104      -1.7118      1.00000
    105      -1.6796      1.00000
    106      -1.6266      1.00000
    107      -1.5642      1.00000
    108      -1.5119      1.00000
    109      -1.3722      1.00000
    110      -1.2908      1.00000
    111      -1.2290      1.00000
    112      -1.1565      1.00000
    113      -1.1454      1.00000
    114      -1.1192      1.00000
    115      -1.0798      1.00000
    116      -0.8784      1.00000
    117      -0.5989      1.00000
    118      -0.5059      1.00000
    119      -0.4498      1.00000
    120      -0.1219      1.00000
    121       1.3180      0.00000
    122       1.3640      0.00000
    123       1.3793      0.00000
    124       2.2872      0.00000
    125       2.3257      0.00000
    126       2.3559      0.00000
    127       2.5221      0.00000
    128       2.5948      0.00000
    129       2.6178      0.00000
    130       2.6204      0.00000
    131       2.6353      0.00000
    132       2.9472      0.00000
    133       3.0620      0.00000
    134       3.1164      0.00000
    135       3.2235      0.00000
    136       3.3941      0.00000
    137       3.5029      0.00000
    138       3.5383      0.00000
    139       3.5579      0.00000
    140       3.7306      0.00000
    141       3.8183      0.00000
    142       3.9257      0.00000
    143       3.9710      0.00000
    144       4.1502      0.00000
    145       4.2888      0.00000
    146       4.3269      0.00000
    147       4.3586      0.00000
    148       4.3923      0.00000
    149       4.4194      0.00000
    150       4.5367      0.00000
    151       4.6337      0.00000
    152       4.6859      0.00000
    153       4.8870      0.00000
    154       4.9510      0.00000
    155       5.3826      0.00000
    156       5.6447      0.00000
    157       5.8931      0.00000
    158       6.1483      0.00000
    159       6.3764      0.00000
    160       6.6549      0.00000

 k-point     4 :      -0.1250    0.1250    0.1250
  band No.  band energies     occupation 
      1     -36.6867      1.00000
      2     -36.5750      1.00000
      3     -36.5341      1.00000
      4     -35.0901      1.00000
      5     -35.0624      1.00000
      6     -35.0149      1.00000
      7     -34.9913      1.00000
      8     -34.8116      1.00000
      9     -34.7750      1.00000
     10     -34.6421      1.00000
     11     -34.6264      1.00000
     12     -34.5642      1.00000
     13     -34.5516      1.00000
     14     -34.5466      1.00000
     15     -34.3214      1.00000
     16     -34.1349      1.00000
     17     -34.0960      1.00000
     18     -33.9902      1.00000
     19     -33.8244      1.00000
     20     -33.7378      1.00000
     21     -33.6876      1.00000
     22     -33.6616      1.00000
     23     -33.4708      1.00000
     24     -33.3105      1.00000
     25     -24.7781      1.00000
     26     -24.0623      1.00000
     27     -24.0184      1.00000
     28     -23.7122      1.00000
     29     -23.5668      1.00000
     30     -23.5016      1.00000
     31     -23.3362      1.00000
     32     -23.2758      1.00000
     33     -23.0821      1.00000
     34     -23.0271      1.00000
     35     -22.9118      1.00000
     36     -22.8430      1.00000
     37     -22.7016      1.00000
     38     -22.6135      1.00000
     39     -22.5039      1.00000
     40     -22.3038      1.00000
     41     -16.5220      1.00000
     42     -16.4914      1.00000
     43     -16.2772      1.00000
     44     -15.9474      1.00000
     45     -15.6803      1.00000
     46     -15.6185      1.00000
     47     -15.5060      1.00000
     48     -15.3850      1.00000
     49      -8.3982      1.00000
     50      -7.6992      1.00000
     51      -7.3134      1.00000
     52      -7.0042      1.00000
     53      -6.8476      1.00000
     54      -6.6770      1.00000
     55      -6.6696      1.00000
     56      -6.6578      1.00000
     57      -6.5576      1.00000
     58      -6.4262      1.00000
     59      -6.3228      1.00000
     60      -6.2715      1.00000
     61      -6.1594      1.00000
     62      -6.0978      1.00000
     63      -5.7094      1.00000
     64      -5.6846      1.00000
     65      -5.6717      1.00000
     66      -5.3342      1.00000
     67      -5.3235      1.00000
     68      -5.1969      1.00000
     69      -5.1765      1.00000
     70      -5.0947      1.00000
     71      -5.0712      1.00000
     72      -4.8371      1.00000
     73      -4.7819      1.00000
     74      -4.7643      1.00000
     75      -4.7593      1.00000
     76      -4.7379      1.00000
     77      -4.7177      1.00000
     78      -4.7161      1.00000
     79      -4.7035      1.00000
     80      -4.6457      1.00000
     81      -4.6346      1.00000
     82      -4.5783      1.00000
     83      -4.4934      1.00000
     84      -4.4635      1.00000
     85      -4.4157      1.00000
     86      -4.3816      1.00000
     87      -4.2785      1.00000
     88      -4.2684      1.00000
     89      -4.2623      1.00000
     90      -4.2069      1.00000
     91      -4.0429      1.00000
     92      -4.0029      1.00000
     93      -3.9255      1.00000
     94      -3.8931      1.00000
     95      -3.8484      1.00000
     96      -3.7950      1.00000
     97      -3.7855      1.00000
     98      -3.7067      1.00000
     99      -3.6900      1.00000
    100      -3.2947      1.00000
    101      -2.6331      1.00000
    102      -2.0655      1.00000
    103      -1.8625      1.00000
    104      -1.7667      1.00000
    105      -1.7095      1.00000
    106      -1.6916      1.00000
    107      -1.6205      1.00000
    108      -1.5698      1.00000
    109      -1.3295      1.00000
    110      -1.2856      1.00000
    111      -1.2299      1.00000
    112      -1.1702      1.00000
    113      -1.1520      1.00000
    114      -1.1129      1.00000
    115      -0.9214      1.00000
    116      -0.7751      1.00000
    117      -0.5979      1.00000
    118      -0.4961      1.00000
    119      -0.4485      1.00000
    120      -0.1218      1.00000
    121       1.3178      0.00000
    122       1.3213      0.00000
    123       1.3235      0.00000
    124       2.1499      0.00000
    125       2.1862      0.00000
    126       2.2873      0.00000
    127       2.4627      0.00000
    128       2.5785      0.00000
    129       2.5960      0.00000
    130       2.6347      0.00000
    131       2.7464      0.00000
    132       2.7853      0.00000
    133       3.0836      0.00000
    134       3.1625      0.00000
    135       3.1782      0.00000
    136       3.1966      0.00000
    137       3.4342      0.00000
    138       3.5146      0.00000
    139       3.5578      0.00000
    140       3.6616      0.00000
    141       3.7325      0.00000
    142       3.8178      0.00000
    143       3.9099      0.00000
    144       3.9294      0.00000
    145       4.0459      0.00000
    146       4.3261      0.00000
    147       4.3832      0.00000
    148       4.3911      0.00000
    149       4.4129      0.00000
    150       4.5641      0.00000
    151       4.6340      0.00000
    152       4.8868      0.00000
    153       4.9210      0.00000
    154       5.1339      0.00000
    155       5.4536      0.00000
    156       5.8184      0.00000
    157       5.9616      0.00000
    158       6.0366      0.00000
    159       6.3940      0.00000
    160       7.0138      0.00000

 k-point     5 :       0.1250    0.3750    0.1250
  band No.  band energies     occupation 
      1     -36.6867      1.00000
      2     -36.5750      1.00000
      3     -36.5330      1.00000
      4     -35.0889      1.00000
      5     -35.0642      1.00000
      6     -35.0149      1.00000
      7     -34.9913      1.00000
      8     -34.8116      1.00000
      9     -34.7656      1.00000
     10     -34.6421      1.00000
     11     -34.6264      1.00000
     12     -34.5642      1.00000
     13     -34.5619      1.00000
     14     -34.5466      1.00000
     15     -34.3214      1.00000
     16     -34.1349      1.00000
     17     -34.0960      1.00000
     18     -33.9902      1.00000
     19     -33.8244      1.00000
     20     -33.7305      1.00000
     21     -33.6876      1.00000
     22     -33.6690      1.00000
     23     -33.4708      1.00000
     24     -33.3128      1.00000
     25     -24.7756      1.00000
     26     -24.0366      1.00000
     27     -23.9465      1.00000
     28     -23.7170      1.00000
     29     -23.6682      1.00000
     30     -23.4700      1.00000
     31     -23.2758      1.00000
     32     -23.2401      1.00000
     33     -23.0604      1.00000
     34     -23.0322      1.00000
     35     -22.9587      1.00000
     36     -22.8386      1.00000
     37     -22.7275      1.00000
     38     -22.7002      1.00000
     39     -22.5035      1.00000
     40     -22.3038      1.00000
     41     -16.4941      1.00000
     42     -16.4909      1.00000
     43     -16.2667      1.00000
     44     -15.8563      1.00000
     45     -15.6804      1.00000
     46     -15.6637      1.00000
     47     -15.6090      1.00000
     48     -15.3840      1.00000
     49      -8.3956      1.00000
     50      -7.3443      1.00000
     51      -7.3045      1.00000
     52      -6.9310      1.00000
     53      -6.6798      1.00000
     54      -6.6712      1.00000
     55      -6.6289      1.00000
     56      -6.5644      1.00000
     57      -6.5432      1.00000
     58      -6.4572      1.00000
     59      -6.2707      1.00000
     60      -6.2283      1.00000
     61      -6.1663      1.00000
     62      -6.0097      1.00000
     63      -5.9676      1.00000
     64      -5.6822      1.00000
     65      -5.6586      1.00000
     66      -5.5254      1.00000
     67      -5.4768      1.00000
     68      -5.3261      1.00000
     69      -5.2898      1.00000
     70      -5.2352      1.00000
     71      -5.1956      1.00000
     72      -5.0944      1.00000
     73      -4.8646      1.00000
     74      -4.8033      1.00000
     75      -4.7819      1.00000
     76      -4.7687      1.00000
     77      -4.7380      1.00000
     78      -4.7347      1.00000
     79      -4.6561      1.00000
     80      -4.6000      1.00000
     81      -4.5743      1.00000
     82      -4.5355      1.00000
     83      -4.4928      1.00000
     84      -4.4508      1.00000
     85      -4.3611      1.00000
     86      -4.2943      1.00000
     87      -4.2692      1.00000
     88      -4.2230      1.00000
     89      -4.2061      1.00000
     90      -4.1826      1.00000
     91      -4.0990      1.00000
     92      -4.0196      1.00000
     93      -3.8955      1.00000
     94      -3.8539      1.00000
     95      -3.8159      1.00000
     96      -3.7954      1.00000
     97      -3.7734      1.00000
     98      -3.7158      1.00000
     99      -3.4042      1.00000
    100      -3.2018      1.00000
    101      -2.5202      1.00000
    102      -2.3697      1.00000
    103      -2.2978      1.00000
    104      -1.8609      1.00000
    105      -1.7054      1.00000
    106      -1.6864      1.00000
    107      -1.5760      1.00000
    108      -1.4276      1.00000
    109      -1.3019      1.00000
    110      -1.2557      1.00000
    111      -1.2251      1.00000
    112      -1.1936      1.00000
    113      -1.0838      1.00000
    114      -1.0297      1.00000
    115      -0.9170      1.00000
    116      -0.8497      1.00000
    117      -0.7832      1.00000
    118      -0.6198      1.00000
    119      -0.4666      1.00000
    120      -0.2809      1.00000
    121       1.3228      0.00000
    122       1.3984      0.00000
    123       1.4232      0.00000
    124       2.1860      0.00000
    125       2.2205      0.00000
    126       2.3581      0.00000
    127       2.5282      0.00000
    128       2.6338      0.00000
    129       2.6843      0.00000
    130       2.7743      0.00000
    131       2.9040      0.00000
    132       2.9707      0.00000
    133       3.0832      0.00000
    134       3.1584      0.00000
    135       3.3149      0.00000
    136       3.3630      0.00000
    137       3.4339      0.00000
    138       3.4888      0.00000
    139       3.5352      0.00000
    140       3.6093      0.00000
    141       3.7146      0.00000
    142       3.8369      0.00000
    143       3.9275      0.00000
    144       3.9695      0.00000
    145       4.0246      0.00000
    146       4.3272      0.00000
    147       4.3631      0.00000
    148       4.4860      0.00000
    149       4.5635      0.00000
    150       4.5692      0.00000
    151       4.7141      0.00000
    152       4.8051      0.00000
    153       4.9350      0.00000
    154       5.0717      0.00000
    155       5.4793      0.00000
    156       5.6501      0.00000
    157       5.8132      0.00000
    158       6.2010      0.00000
    159       6.4562      0.00000
    160       7.0032      0.00000

 k-point     6 :       0.3750    0.3750    0.1250
  band No.  band energies     occupation 
      1     -36.6867      1.00000
      2     -36.5746      1.00000
      3     -36.5330      1.00000
      4     -35.0889      1.00000
      5     -35.0642      1.00000
      6     -35.0122      1.00000
      7     -34.9901      1.00000
      8     -34.8019      1.00000
      9     -34.7656      1.00000
     10     -34.6421      1.00000
     11     -34.6368      1.00000
     12     -34.5642      1.00000
     13     -34.5619      1.00000
     14     -34.5498      1.00000
     15     -34.3214      1.00000
     16     -34.1358      1.00000
     17     -34.0960      1.00000
     18     -33.9920      1.00000
     19     -33.8244      1.00000
     20     -33.7305      1.00000
     21     -33.6876      1.00000
     22     -33.6690      1.00000
     23     -33.4708      1.00000
     24     -33.3128      1.00000
     25     -24.7745      1.00000
     26     -24.0357      1.00000
     27     -23.9396      1.00000
     28     -23.6932      1.00000
     29     -23.6262      1.00000
     30     -23.3756      1.00000
     31     -23.3536      1.00000
     32     -23.2301      1.00000
     33     -23.1550      1.00000
     34     -23.0425      1.00000
     35     -22.9365      1.00000
     36     -22.7818      1.00000
     37     -22.7187      1.00000
     38     -22.6029      1.00000
     39     -22.5999      1.00000
     40     -22.4064      1.00000
     41     -16.4934      1.00000
     42     -16.4905      1.00000
     43     -16.2662      1.00000
     44     -15.8561      1.00000
     45     -15.6799      1.00000
     46     -15.6637      1.00000
     47     -15.6090      1.00000
     48     -15.3846      1.00000
     49      -8.3942      1.00000
     50      -7.3368      1.00000
     51      -7.0339      1.00000
     52      -6.6801      1.00000
     53      -6.6572      1.00000
     54      -6.6331      1.00000
     55      -6.5976      1.00000
     56      -6.5554      1.00000
     57      -6.4882      1.00000
     58      -6.3422      1.00000
     59      -6.2941      1.00000
     60      -6.1027      1.00000
     61      -6.0327      1.00000
     62      -6.0169      1.00000
     63      -5.9558      1.00000
     64      -5.8908      1.00000
     65      -5.6940      1.00000
     66      -5.5664      1.00000
     67      -5.4811      1.00000
     68      -5.4564      1.00000
     69      -5.3399      1.00000
     70      -5.3106      1.00000
     71      -5.3042      1.00000
     72      -5.1511      1.00000
     73      -4.9661      1.00000
     74      -4.9315      1.00000
     75      -4.9181      1.00000
     76      -4.8013      1.00000
     77      -4.7600      1.00000
     78      -4.7355      1.00000
     79      -4.7191      1.00000
     80      -4.6328      1.00000
     81      -4.5900      1.00000
     82      -4.5639      1.00000
     83      -4.5577      1.00000
     84      -4.4891      1.00000
     85      -4.4647      1.00000
     86      -4.3218      1.00000
     87      -4.2429      1.00000
     88      -4.2353      1.00000
     89      -4.2116      1.00000
     90      -4.1363      1.00000
     91      -4.0787      1.00000
     92      -3.9715      1.00000
     93      -3.9515      1.00000
     94      -3.9395      1.00000
     95      -3.7950      1.00000
     96      -3.7833      1.00000
     97      -3.7607      1.00000
     98      -3.6523      1.00000
     99      -3.4831      1.00000
    100      -3.1927      1.00000
    101      -2.5224      1.00000
    102      -2.3776      1.00000
    103      -2.3026      1.00000
    104      -1.7142      1.00000
    105      -1.6663      1.00000
    106      -1.5729      1.00000
    107      -1.5163      1.00000
    108      -1.4357      1.00000
    109      -1.2821      1.00000
    110      -1.2663      1.00000
    111      -1.2273      1.00000
    112      -1.1917      1.00000
    113      -1.1149      1.00000
    114      -1.0871      1.00000
    115      -1.0465      1.00000
    116      -0.8503      1.00000
    117      -0.8074      1.00000
    118      -0.6403      1.00000
    119      -0.4669      1.00000
    120      -0.2811      1.00000
    121       1.3792      0.00000
    122       1.3983      0.00000
    123       1.4252      0.00000
    124       2.2202      0.00000
    125       2.3258      0.00000
    126       2.5188      0.00000
    127       2.5681      0.00000
    128       2.6173      0.00000
    129       2.7078      0.00000
    130       2.9038      0.00000
    131       2.9460      0.00000
    132       2.9733      0.00000
    133       3.0625      0.00000
    134       3.1989      0.00000
    135       3.3151      0.00000
    136       3.3940      0.00000
    137       3.4181      0.00000
    138       3.4339      0.00000
    139       3.8360      0.00000
    140       3.8824      0.00000
    141       3.9277      0.00000
    142       3.9431      0.00000
    143       3.9775      0.00000
    144       4.0629      0.00000
    145       4.1475      0.00000
    146       4.2800      0.00000
    147       4.3013      0.00000
    148       4.4858      0.00000
    149       4.5355      0.00000
    150       4.5692      0.00000
    151       4.6620      0.00000
    152       4.7160      0.00000
    153       4.7395      0.00000
    154       4.9807      0.00000
    155       5.1919      0.00000
    156       5.5523      0.00000
    157       5.7392      0.00000
    158       6.3017      0.00000
    159       6.5071      0.00000
    160       6.7596      0.00000

 k-point     7 :      -0.3750    0.3750    0.1250
  band No.  band energies     occupation 
      1     -36.6867      1.00000
      2     -36.5746      1.00000
      3     -36.5330      1.00000
      4     -35.0889      1.00000
      5     -35.0642      1.00000
      6     -35.0122      1.00000
      7     -34.9901      1.00000
      8     -34.8019      1.00000
      9     -34.7656      1.00000
     10     -34.6421      1.00000
     11     -34.6368      1.00000
     12     -34.5642      1.00000
     13     -34.5619      1.00000
     14     -34.5498      1.00000
     15     -34.3214      1.00000
     16     -34.1358      1.00000
     17     -34.0960      1.00000
     18     -33.9920      1.00000
     19     -33.8244      1.00000
     20     -33.7305      1.00000
     21     -33.6876      1.00000
     22     -33.6690      1.00000
     23     -33.4708      1.00000
     24     -33.3128      1.00000
     25     -24.7745      1.00000
     26     -24.0357      1.00000
     27     -23.9396      1.00000
     28     -23.6932      1.00000
     29     -23.6262      1.00000
     30     -23.3757      1.00000
     31     -23.3536      1.00000
     32     -23.2297      1.00000
     33     -23.1555      1.00000
     34     -23.0423      1.00000
     35     -22.9365      1.00000
     36     -22.7817      1.00000
     37     -22.7188      1.00000
     38     -22.6029      1.00000
     39     -22.5999      1.00000
     40     -22.4064      1.00000
     41     -16.4934      1.00000
     42     -16.4905      1.00000
     43     -16.2662      1.00000
     44     -15.8561      1.00000
     45     -15.6799      1.00000
     46     -15.6637      1.00000
     47     -15.6090      1.00000
     48     -15.3846      1.00000
     49      -8.3942      1.00000
     50      -7.3368      1.00000
     51      -7.0339      1.00000
     52      -6.6803      1.00000
     53      -6.6576      1.00000
     54      -6.6324      1.00000
     55      -6.5981      1.00000
     56      -6.5554      1.00000
     57      -6.4876      1.00000
     58      -6.3423      1.00000
     59      -6.2941      1.00000
     60      -6.1027      1.00000
     61      -6.0335      1.00000
     62      -6.0171      1.00000
     63      -5.9551      1.00000
     64      -5.8906      1.00000
     65      -5.6940      1.00000
     66      -5.5664      1.00000
     67      -5.4813      1.00000
     68      -5.4563      1.00000
     69      -5.3401      1.00000
     70      -5.3106      1.00000
     71      -5.3043      1.00000
     72      -5.1509      1.00000
     73      -4.9647      1.00000
     74      -4.9315      1.00000
     75      -4.9188      1.00000
     76      -4.8013      1.00000
     77      -4.7599      1.00000
     78      -4.7354      1.00000
     79      -4.7192      1.00000
     80      -4.6329      1.00000
     81      -4.5900      1.00000
     82      -4.5643      1.00000
     83      -4.5577      1.00000
     84      -4.4891      1.00000
     85      -4.4646      1.00000
     86      -4.3218      1.00000
     87      -4.2428      1.00000
     88      -4.2353      1.00000
     89      -4.2116      1.00000
     90      -4.1364      1.00000
     91      -4.0787      1.00000
     92      -3.9715      1.00000
     93      -3.9513      1.00000
     94      -3.9393      1.00000
     95      -3.7954      1.00000
     96      -3.7835      1.00000
     97      -3.7608      1.00000
     98      -3.6524      1.00000
     99      -3.4828      1.00000
    100      -3.1927      1.00000
    101      -2.5224      1.00000
    102      -2.3776      1.00000
    103      -2.3026      1.00000
    104      -1.7142      1.00000
    105      -1.6663      1.00000
    106      -1.5729      1.00000
    107      -1.5163      1.00000
    108      -1.4357      1.00000
    109      -1.2821      1.00000
    110      -1.2663      1.00000
    111      -1.2272      1.00000
    112      -1.1917      1.00000
    113      -1.1149      1.00000
    114      -1.0871      1.00000
    115      -1.0466      1.00000
    116      -0.8503      1.00000
    117      -0.8074      1.00000
    118      -0.6403      1.00000
    119      -0.4669      1.00000
    120      -0.2811      1.00000
    121       1.3791      0.00000
    122       1.3984      0.00000
    123       1.4252      0.00000
    124       2.2202      0.00000
    125       2.3258      0.00000
    126       2.5187      0.00000
    127       2.5681      0.00000
[...]
 -0.000   0.000  -0.000  -0.000   0.000  -0.000   0.000  -0.007  -0.000  -0.010  -0.000   0.000  -0.004   0.000   0.003   0.000
 -0.000   0.000  -0.000  -0.000   0.000  -0.000  -0.000  -0.000   0.003  -0.000  -0.016   0.000  -0.000   0.000  -0.000   0.002
 -0.000  -0.000  -0.000   0.000  -0.000  -0.000   0.003   0.000  -0.000   0.000   0.000   0.006   0.000   0.000   0.000  -0.000
  0.000  -0.000   0.000  -0.000   0.000  -0.000   0.000  -0.577  -0.000  -0.004  -0.000   0.000  -0.459  -0.000  -0.003  -0.000
 -0.000   0.000   0.000   0.000   0.000   0.000   0.000  -0.000   0.003   0.000   0.000   0.000  -0.000   0.016   0.000  -0.005
 -0.000  -0.000   0.000  -0.000   0.000   0.000   0.000  -0.004   0.000   0.003  -0.000   0.000  -0.003   0.000   0.006   0.000
  0.000  -0.000   0.000  -0.000  -0.000  -0.000   0.000  -0.000  -0.000   0.000   0.002  -0.000  -0.000  -0.005   0.000   0.024
 -0.000  -0.000  -0.000   0.000   0.000  -0.000  -0.000   0.000  -0.004   0.000   0.008   0.000   0.000   0.015  -0.000  -0.023
 -0.000  -0.000  -0.000   0.000   0.000   0.000  -0.000  -0.000  -0.013   0.000   0.022   0.000  -0.000   0.020  -0.000  -0.033


------------------------ aborting loop because EDIFF is reached ----------------------------------------


 


 total charge     
 
# of ion       s       p       d       tot
------------------------------------------
    1        0.249   6.356   1.848   8.453
    2        0.329   6.525   1.755   8.609
    3        0.305   6.465   1.701   8.471
    4        0.298   6.459   1.716   8.473
    5        0.300   6.469   1.742   8.511
    6        0.298   6.450   1.715   8.463
    7        0.299   6.467   1.737   8.503
    8        0.302   6.448   1.683   8.433
    9        1.569   3.364   0.000   4.934
   10        1.569   3.365   0.000   4.934
   11        1.567   3.441   0.000   5.008
   12        1.567   3.441   0.000   5.008
   13        1.570   3.427   0.000   4.997
   14        1.570   3.427   0.000   4.997
   15        1.571   3.424   0.000   4.995
   16        1.571   3.424   0.000   4.995
   17        1.729   4.388   0.000   6.116
   18        1.732   4.371   0.000   6.103
   19        1.729   4.380   0.000   6.109
   20        1.730   4.377   0.000   6.107
   21        1.729   4.388   0.000   6.116
   22        1.732   4.371   0.000   6.103
   23        1.729   4.380   0.000   6.109
   24        1.730   4.377   0.000   6.107
   25        1.729   4.395   0.000   6.124
   26        1.731   4.384   0.000   6.115
   27        1.729   4.395   0.000   6.124
   28        1.731   4.384   0.000   6.115
   29        1.730   4.387   0.000   6.117
   30        1.730   4.387   0.000   6.117
   31        1.734   4.411   0.000   6.145
   32        1.734   4.411   0.000   6.145
--------------------------------------------------
tot         42.624 149.137  13.897 205.658
 


 magnetization (x)
 
# of ion       s       p       d       tot
------------------------------------------
    1       -0.004  -0.007  -0.891  -0.902
    2       -0.000  -0.000  -0.052  -0.053
    3        0.000   0.000  -0.006  -0.005
    4       -0.000  -0.000  -0.006  -0.006
    5       -0.000   0.001  -0.020  -0.020
    6       -0.002  -0.004  -0.056  -0.062
    7       -0.000   0.000  -0.022  -0.021
    8       -0.002  -0.004  -0.054  -0.060
    9        0.004   0.258   0.000   0.262
   10        0.004   0.259   0.000   0.263
   11        0.000   0.001   0.000   0.001
   12        0.000   0.001   0.000   0.001
   13        0.002   0.102   0.000   0.104
   14        0.002   0.102   0.000   0.104
   15        0.002   0.108   0.000   0.110
   16        0.002   0.108   0.000   0.110
   17        0.000   0.009   0.000   0.009
   18       -0.000   0.002   0.000   0.002
   19       -0.000   0.000   0.000   0.000
   20       -0.000   0.000   0.000   0.000
   21        0.000   0.009   0.000   0.009
   22       -0.000   0.002   0.000   0.002
   23       -0.000   0.000   0.000   0.000
   24       -0.000   0.000   0.000   0.000
   25        0.000  -0.006   0.000  -0.005
   26        0.000  -0.000   0.000  -0.000
   27        0.000  -0.006   0.000  -0.005
   28        0.000  -0.000   0.000  -0.000
   29        0.000   0.008   0.000   0.009
   30        0.000   0.008   0.000   0.009
   31        0.000   0.002   0.000   0.003
   32        0.000   0.002   0.000   0.003
--------------------------------------------------
tot          0.008   0.958  -1.107  -0.140
 
    CHARGE:  cpu time    1.1448: real time    1.1546
    FORLOC:  cpu time    0.0090: real time    0.0098
    FORNL :  cpu time    6.7170: real time    6.8038
    STRESS:  cpu time   20.1589: real time   20.4307
    FORCOR:  cpu time    0.1300: real time    0.1297
    FORHAR:  cpu time    0.0210: real time    0.0214
    MIXING:  cpu time    0.0020: real time    0.0016
    OFIELD:  cpu time    0.0000: real time    0.0000

  FORCE on cell =-STRESS in cart. coord.  units (eV):
  Direction    XX          YY          ZZ          XY          YZ          ZX
  --------------------------------------------------------------------------------------
  Alpha Z   747.75030   747.75030   747.75030
  Ewald   -4335.22643 -4285.09343 -4057.70600    -1.13385     0.05935     0.07187
  Hartree  2702.91323  2746.86696  2879.16356    -0.58346     0.03119     0.03623
  E(xc)   -1231.22818 -1231.52678 -1232.02465    -0.00185     0.00002     0.00006
  Local   -1992.57552 -2117.55090 -2535.69572     1.59251    -0.08942    -0.10346
  n-local  -974.45075  -969.74648  -958.48330    -0.03639     0.00059     0.00151
  augment   739.29234   754.28799   775.18634     0.06667    -0.00009    -0.00202
  Kinetic  4343.49768  4355.00416  4381.82072     0.10560    -0.00243    -0.00543
  Fock        0.00000     0.00000     0.00000     0.00000     0.00000     0.00000
  -------------------------------------------------------------------------------------
  Total      -0.02732    -0.00818     0.01126     0.00923    -0.00079    -0.00123
  in kB      -0.09346    -0.02798     0.03853     0.03156    -0.00270    -0.00420
  external pressure =       -0.03 kB  Pullay stress =        0.00 kB


 VOLUME and BASIS-vectors are now :
 -----------------------------------------------------------------------------
  energy-cutoff  :      700.00
  volume of cell :      468.29
      direct lattice vectors                 reciprocal lattice vectors
     7.929011524 -0.000902519  0.000064170     0.126119127  0.000014300 -0.000001005
    -0.000887256  7.825325788  0.000051053     0.000014546  0.127790208 -0.000000851
     0.000060158  0.000050244  7.547376873    -0.000001072 -0.000000865  0.132496365

  length of vectors
     7.929011575  7.825325839  7.547376874     0.126119128  0.127790209  0.132496365


 FORCES acting on ions
    electron-ion (+dipol)            ewald-force                    non-local-force                 convergence-correction
 -----------------------------------------------------------------------------------------------
   0.817E-03 -.128E-02 -.741E-03   -.810E-03 -.113E-03 0.687E-03   -.114E-04 -.197E-04 0.832E-04   -.617E-05 0.143E-02 -.475E-04
   0.305E-02 0.124E-02 -.201E-02   -.307E-02 -.421E-02 0.218E-02   -.179E-04 -.661E-04 0.155E-04   -.292E-05 0.302E-02 0.209E-04
   -.202E-02 0.239E-02 -.430E-03   0.200E-02 -.966E-03 0.411E-03   0.311E-04 0.168E-04 0.830E-06   0.259E-06 -.144E-02 -.364E-05
   0.536E-03 -.276E-02 -.604E-04   -.530E-03 0.569E-02 0.754E-04   -.388E-05 0.859E-04 -.402E-05   -.939E-06 -.303E-02 0.258E-05
   -.161E-03 -.530E-01 0.814E-03   0.157E-03 0.486E-01 -.840E-03   0.127E-05 0.112E-02 0.105E-04   0.833E-05 0.335E-02 0.599E-05
   -.420E-02 0.246E-01 0.243E-03   0.414E-02 -.538E-01 -.224E-03   0.587E-04 -.155E-02 -.681E-05   0.668E-05 0.304E-01 -.556E-05
   0.217E-02 0.619E-01 -.227E-02   -.212E-02 -.573E-01 0.231E-02   -.371E-04 -.127E-02 -.341E-04   -.572E-05 -.337E-02 -.163E-05
   -.123E-02 0.456E-01 -.204E-02   0.120E-02 -.157E-01 0.201E-02   0.199E-04 0.476E-03 0.265E-04   0.261E-05 -.295E-01 0.584E-05
   0.245E-02 -.116E+02 -.786E-03   -.369E-02 0.125E+02 0.833E-03   0.128E-02 -.905E+00 -.540E-04   0.994E-05 -.487E-03 0.312E-05
   -.135E-02 0.114E+02 0.112E-03   0.221E-02 -.123E+02 -.949E-04   -.837E-03 0.889E+00 -.185E-04   -.271E-05 0.819E-03 0.299E-05
   0.193E-03 -.769E-02 0.632E+00   -.127E-03 0.932E-02 -.946E+00   -.678E-04 -.331E-03 0.314E+00   -.312E-05 -.128E-02 0.116E-02
   -.739E-03 0.899E-02 -.631E+00   0.663E-03 -.792E-02 0.945E+00   0.840E-04 0.185E-03 -.314E+00   0.501E-05 -.130E-02 -.116E-02
   -.163E-02 0.326E-01 -.394E+02   0.147E-02 -.430E-01 0.413E+02   0.150E-03 0.326E-02 -.194E+01   0.168E-04 0.701E-02 -.871E-03
   0.705E-03 0.312E-01 0.394E+02   -.643E-03 -.415E-01 -.413E+02   -.882E-04 0.317E-02 0.193E+01   0.505E-05 0.701E-02 0.873E-03
   -.911E-03 -.129E-01 -.387E+02   0.888E-03 0.215E-01 0.405E+02   0.986E-04 -.168E-02 -.186E+01   -.126E-05 -.690E-02 -.797E-02
   -.148E-02 -.145E-01 0.387E+02   0.182E-02 0.234E-01 -.405E+02   -.329E-03 -.186E-02 0.186E+01   -.132E-04 -.690E-02 0.796E-02
   -.457E+02 0.119E-02 0.459E-02   0.499E+02 -.156E-01 -.427E-02   -.415E+01 0.132E-01 -.325E-03   0.380E-04 0.173E-02 -.400E-04
   -.127E+03 0.170E-01 -.890E-02   0.138E+03 -.260E-01 0.936E-02   -.113E+02 0.300E-02 -.477E-03   -.504E-03 0.609E-02 0.345E-04
   -.244E+02 0.930E-01 0.185E-02   0.264E+02 -.938E-01 -.190E-02   -.196E+01 0.218E-02 0.648E-04   0.421E-02 -.170E-02 -.898E-05
   -.597E+02 0.589E-03 -.146E-02   0.648E+02 0.433E-02 0.134E-02   -.515E+01 0.140E-02 0.115E-03   -.990E-03 -.641E-02 0.129E-04
   0.457E+02 -.295E-01 -.407E-02   -.498E+02 0.417E-01 0.362E-02   0.415E+01 -.140E-01 0.507E-03   -.422E-04 0.147E-02 0.249E-05
   0.127E+03 0.963E-02 0.810E-02   -.138E+03 -.186E-01 -.845E-02   0.113E+02 0.303E-02 0.286E-03   0.502E-03 0.612E-02 -.268E-05
   0.244E+02 -.627E-01 -.315E-02   -.264E+02 0.663E-01 0.338E-02   0.196E+01 -.190E-02 -.219E-03   -.421E-02 -.153E-02 -.145E-05
   0.597E+02 0.983E-02 0.187E-03   -.648E+02 -.145E-02 0.143E-03   0.515E+01 -.224E-02 -.349E-03   0.987E-03 -.638E-02 0.371E-06
   0.355E-01 -.592E+01 -.750E-02   -.496E-01 0.478E+01 0.938E-02   0.140E-01 0.114E+01 -.188E-02   0.534E-04 0.162E-03 -.255E-04
   -.719E-02 -.723E+02 0.865E-03   0.907E-02 0.790E+02 -.935E-03   -.191E-02 -.671E+01 0.941E-05   -.436E-05 0.578E-03 0.161E-04
   -.357E-01 0.592E+01 0.765E-02   0.497E-01 -.478E+01 -.963E-02   -.139E-01 -.114E+01 0.203E-02   -.565E-04 -.176E-03 -.131E-04
   0.897E-02 0.723E+02 -.165E-02   -.108E-01 -.790E+02 0.184E-02   0.185E-02 0.670E+01 -.179E-03   -.144E-05 -.375E-03 0.200E-04
   0.782E-01 -.795E+01 0.450E-03   -.815E-01 0.891E+01 -.408E-03   0.313E-02 -.964E+00 -.386E-04   -.822E-04 0.502E-02 -.385E-05
   -.787E-01 0.795E+01 -.138E-02   0.821E-01 -.891E+01 0.150E-02   -.334E-02 0.964E+00 -.107E-03   0.840E-04 -.501E-02 -.114E-05
   -.665E-02 0.753E-02 0.489E+02   0.825E-02 -.946E-02 -.556E+02   -.161E-02 0.426E-03 0.668E+01   -.249E-04 0.151E-02 -.375E-03
   0.783E-02 -.980E-02 -.489E+02   -.932E-02 0.866E-02 0.556E+02   0.150E-02 -.314E-03 -.668E+01   0.149E-04 0.151E-02 0.419E-03
 -----------------------------------------------------------------------------------------------
   -.499E-04 0.748E-02 -.714E-03   -.181E-12 0.321E-13 0.355E-13   0.162E-04 -.867E-02 0.699E-03   -.458E-05 0.146E-02 0.120E-04
 
 
 POSITION                                       TOTAL-FORCE (eV/Angst)
 -----------------------------------------------------------------------------------
      7.92818      7.82447      7.54749        -0.000010      0.000009     -0.000018
      7.92815      7.82445      3.77380        -0.000034     -0.000027      0.000206
     -0.00038      3.91271      7.54740         0.000012     -0.000009     -0.000021
     -0.00041      3.91269      3.77371         0.000002     -0.000022      0.000014
      3.96362      7.82483      0.00009         0.000007      0.000014     -0.000009
      3.96453     -0.00012      3.77372        -0.000001     -0.000346      0.000007
      3.96413      3.91228      7.54743         0.000002     -0.000006      0.000003
      3.96409      3.91217      3.77374        -0.000007      0.000882      0.000003
      3.96424      1.93895      3.77373         0.000050     -0.000275     -0.000004
      3.96392      5.88547      3.77376         0.000020      0.000071      0.000002
     -0.00042      3.91270      1.89494        -0.000004      0.000013      0.000472
      7.92861      3.91177      5.65255         0.000014     -0.000055     -0.000465
      3.96362      7.82471      1.85593         0.000003     -0.000121     -0.000341
      3.96367      7.82474      5.69161        -0.000019     -0.000124      0.000346
      3.96408      3.91239      1.85692         0.000076      0.000068      0.003068
      3.96413      3.91243      5.69058         0.000004      0.000105     -0.003048
      1.94209      7.82448      0.00008         0.000190      0.000445     -0.000041
      1.87449      7.82512      3.77377        -0.001028      0.000105      0.000017
      1.96259      3.91232      7.54741        -0.001713     -0.000372      0.000003
      1.93212      3.91237      3.77373         0.001182     -0.000099      0.000014
      5.98610      0.00000      7.54741        -0.000180     -0.000356      0.000062
      6.05369     -0.00064      3.77372         0.000986      0.000182     -0.000070
      5.96561      3.91211      0.00008         0.001713      0.000199      0.000004
      5.99606      3.91205      3.77377        -0.001250     -0.000256     -0.000018
      7.92811      1.97000      0.00015        -0.000005      0.000054     -0.000020
     -0.00013      1.89728      3.77369        -0.000029     -0.000780     -0.000045
      0.00007      5.85446      7.54734         0.000014     -0.000071      0.000042
      7.92831      5.92719      3.77380         0.000022      0.000734      0.000036
      3.96411      1.94776      0.00004        -0.000162     -0.001152     -0.000001
      3.96402      5.87663      0.00007         0.000152      0.001149      0.000004
     -0.00082      7.82532      1.93390        -0.000032     -0.000001      0.002506
      7.92900     -0.00085      5.61359         0.000026      0.000045     -0.002708
 -----------------------------------------------------------------------------------
    total drift:                               -0.000038      0.000284     -0.000003


--------------------------------------------------------------------------------------------------------



  FREE ENERGIE OF THE ION-ELECTRON SYSTEM (eV)
  ---------------------------------------------------
  free  energy   TOTEN  =      -208.48212270 eV

  energy  without entropy=     -208.48191071  energy(sigma->0) =     -208.48201670
 


--------------------------------------------------------------------------------------------------------


    POTLOK:  cpu time    0.9679: real time    0.9760


--------------------------------------------------------------------------------------------------------


 stress matrix after NEB project (eV)
     -0.02732      0.00923     -0.00123
      0.00923     -0.00818     -0.00079
     -0.00123     -0.00079      0.01126
  FORCES: max atom, RMS     0.003070    0.001244
  FORCE total and by dimension    0.007035    0.003068
  Stress total and by dimension    0.033384    0.027318
 Quasi-Newton relaxation of ions (Broydens 2nd method)
  g(Force)  = 0.239E-05   g(Stress)= 0.168E-05

 Reset! Starting new Quasi-Newton update for ions 


--------------------------------------------------------------------------------------------------------


  
 reached required accuracy - stopping structural energy minimisation
 writing wavefunctions
     LOOP+:  cpu time  121.3076: real time  125.4254
    4ORBIT:  cpu time    0.0000: real time    0.0000
 


 total charge     
 
# of ion       s       p       d       tot
------------------------------------------
    1        0.249   6.356   1.848   8.453
    2        0.329   6.525   1.755   8.609
    3        0.305   6.465   1.701   8.471
    4        0.298   6.459   1.716   8.473
    5        0.300   6.469   1.742   8.511
    6        0.298   6.450   1.715   8.463
    7        0.299   6.467   1.737   8.503
    8        0.302   6.448   1.683   8.433
    9        1.569   3.364   0.000   4.934
   10        1.569   3.365   0.000   4.934
   11        1.567   3.441   0.000   5.008
   12        1.567   3.441   0.000   5.008
   13        1.570   3.427   0.000   4.997
   14        1.570   3.427   0.000   4.997
   15        1.571   3.424   0.000   4.995
   16        1.571   3.424   0.000   4.995
   17        1.729   4.388   0.000   6.116
   18        1.732   4.371   0.000   6.103
   19        1.729   4.380   0.000   6.109
   20        1.730   4.377   0.000   6.107
   21        1.729   4.388   0.000   6.116
   22        1.732   4.371   0.000   6.103
   23        1.729   4.380   0.000   6.109
   24        1.730   4.377   0.000   6.107
   25        1.729   4.395   0.000   6.124
   26        1.731   4.384   0.000   6.115
   27        1.729   4.395   0.000   6.124
   28        1.731   4.384   0.000   6.115
   29        1.730   4.387   0.000   6.117
   30        1.730   4.387   0.000   6.117
   31        1.734   4.411   0.000   6.145
   32        1.734   4.411   0.000   6.145
--------------------------------------------------
tot         42.624 149.137  13.897 205.658
 


 magnetization (x)
 
# of ion       s       p       d       tot
------------------------------------------
    1       -0.004  -0.007  -0.891  -0.902
    2       -0.000  -0.000  -0.052  -0.053
    3        0.000   0.000  -0.006  -0.005
    4       -0.000  -0.000  -0.006  -0.006
    5       -0.000   0.001  -0.020  -0.020
    6       -0.002  -0.004  -0.056  -0.062
    7       -0.000   0.000  -0.022  -0.021
    8       -0.002  -0.004  -0.054  -0.060
    9        0.004   0.258   0.000   0.262
   10        0.004   0.259   0.000   0.263
   11        0.000   0.001   0.000   0.001
   12        0.000   0.001   0.000   0.001
   13        0.002   0.102   0.000   0.104
   14        0.002   0.102   0.000   0.104
   15        0.002   0.108   0.000   0.110
   16        0.002   0.108   0.000   0.110
   17        0.000   0.009   0.000   0.009
   18       -0.000   0.002   0.000   0.002
   19       -0.000   0.000   0.000   0.000
   20       -0.000   0.000   0.000   0.000
   21        0.000   0.009   0.000   0.009
   22       -0.000   0.002   0.000   0.002
   23       -0.000   0.000   0.000   0.000
   24       -0.000   0.000   0.000   0.000
   25        0.000  -0.006   0.000  -0.005
   26        0.000  -0.000   0.000  -0.000
   27        0.000  -0.006   0.000  -0.005
   28        0.000  -0.000   0.000  -0.000
   29        0.000   0.008   0.000   0.009
   30        0.000   0.008   0.000   0.009
   31        0.000   0.002   0.000   0.003
   32        0.000   0.002   0.000   0.003
--------------------------------------------------
tot          0.008   0.958  -1.107  -0.140
 

 total amount of memory used by VASP MPI-rank0   107197. kBytes
=======================================================================

   base      :      30000. kBytes
   nonlr-proj:       8421. kBytes
   fftplans  :       8424. kBytes
   grid      :       8783. kBytes
   one-center:        124. kBytes
   wavefun   :      51445. kBytes
 
  
  
 General timing and accounting informations for this job:
 ========================================================
  
                  Total CPU time used (sec):      171.118
                            User time (sec):      161.102
                          System time (sec):       10.016
                         Elapsed time (sec):      185.022
  
                   Maximum memory used (kb):      218864.
                   Average memory used (kb):           0.
  
                          Minor page faults:        87636
                          Major page faults:            2
                 Voluntary context switches:        60541
