 vasp.5.4.4.18Apr17-6-g9f103f2a35 (build Apr 30 2017 20:10:35) complex          
  
 executed on             LinuxIFC date 2017.10.04  12:00:51
 running on  128 total cores
 distrk:  each k-point on  128 cores,    1 groups
 distr:  one band on NCORES_PER_BAND=   8 cores,   16 groups


--------------------------------------------------------------------------------------------------------


 INCAR:
 POTCAR:   PAW_PBE Ti_pv 07Sep2000                
 POTCAR:   PAW_PBE O 08Apr2002                    
 POTCAR:    PAW_PBE F 08Apr2002                   
 POTCAR:   PAW_PBE Ti_pv 07Sep2000                
   VRHFIN =Ti: d3 s1                                                            
   LEXCH  = PE                                                                  
   EATOM  =  1042.3781 eV,   76.6126 Ry                                         
                                                                                
   TITEL  = PAW_PBE Ti_pv 07Sep2000                                             
   LULTRA =        F    use ultrasoft PP ?                                      
   IUNSCR =        1    unscreen: 0-lin 1-nonlin 2-no                           
   RPACOR =    2.200    partial core radius                                     
   POMASS =   47.880; ZVAL   =   10.000    mass and valenz                      
   RCORE  =    2.500    outmost cutoff radius                                   
   RWIGS  =    2.500; RWIGS  =    1.323    wigner-seitz radius (au A)           
   ENMAX  =  222.338; ENMIN  =  166.753 eV                                      
   RCLOC  =    1.701    cutoff for local pot                                    
   LCOR   =        T    correct aug charges                                     
   LPAW   =        T    paw PP                                                  
   EAUG   =  482.848                                                            
   DEXC   =    -.008                                                            
   RMAX   =    3.092    core radius for proj-oper                               
   RAUG   =    1.300    factor for augmentation sphere                          
   RDEP   =    2.538    radius for radial grids                                 
   QCUT   =   -4.042; QGAM   =    8.085    optimization parameters              
                                                                                
   Description                                                                  
     l     E      TYP  RCUT    TYP  RCUT                                        
     1   .000     23  2.300                                                     
     1  -.100     23  2.300                                                     
     2   .000     23  2.500                                                     
     2   .000     23  2.500                                                     
     0   .000     23  2.500                                                     
     0  1.500     23  2.500                                                     
     3   .000      7   .000                                                     
  local pseudopotential read in
  partial core-charges read in
  atomic valenz-charges read in
  non local Contribution for L=           1  read in
    real space projection operators read in
  non local Contribution for L=           1  read in
    real space projection operators read in
  non local Contribution for L=           2  read in
    real space projection operators read in
  non local Contribution for L=           2  read in
    real space projection operators read in
  non local Contribution for L=           0  read in
    real space projection operators read in
  non local Contribution for L=           0  read in
    real space projection operators read in
    PAW grid and wavefunctions read in
 
   number of l-projection  operators is LMAX  =           6
   number of lm-projection operators is LMMAX =          18
 
 POTCAR:   PAW_PBE O 08Apr2002                    
   VRHFIN =O: s2p4                                                              
   LEXCH  = PE                                                                  
   EATOM  =   432.3788 eV,   31.7789 Ry                                         
                                                                                
   TITEL  = PAW_PBE O 08Apr2002                                                 
   LULTRA =        F    use ultrasoft PP ?                                      
   IUNSCR =        0    unscreen: 0-lin 1-nonlin 2-no                           
   RPACOR =     .000    partial core radius                                     
   POMASS =   16.000; ZVAL   =    6.000    mass and valenz                      
   RCORE  =    1.520    outmost cutoff radius                                   
   RWIGS  =    1.550; RWIGS  =     .820    wigner-seitz radius (au A)           
   ENMAX  =  400.000; ENMIN  =  300.000 eV                                      
   ICORE  =        2    local potential                                         
   LCOR   =        T    correct aug charges                                     
   LPAW   =        T    paw PP                                                  
   EAUG   =  605.392                                                            
   DEXC   =     .000                                                            
   RMAX   =    2.264    core radius for proj-oper                               
   RAUG   =    1.300    factor for augmentation sphere                          
   RDEP   =    1.550    radius for radial grids                                 
   QCUT   =   -5.520; QGAM   =   11.041    optimization parameters              
                                                                                
   Description                                                                  
     l     E      TYP  RCUT    TYP  RCUT                                        
     0   .000     23  1.200                                                     
     0  -.700     23  1.200                                                     
     1   .000     23  1.520                                                     
     1   .600     23  1.520                                                     
     2   .000      7  1.500                                                     
  local pseudopotential read in
  atomic valenz-charges read in
  non local Contribution for L=           0  read in
    real space projection operators read in
  non local Contribution for L=           0  read in
    real space projection operators read in
  non local Contribution for L=           1  read in
    real space projection operators read in
  non local Contribution for L=           1  read in
    real space projection operators read in
    PAW grid and wavefunctions read in
 
   number of l-projection  operators is LMAX  =           4
   number of lm-projection operators is LMMAX =           8
 
 POTCAR:    PAW_PBE F 08Apr2002                   
   VRHFIN =F: s2p5                                                              
   LEXCH  = PE                                                                  
   EATOM  =   659.6475 eV,   48.4827 Ry                                         
                                                                                
   TITEL  = PAW_PBE F 08Apr2002                                                 
   LULTRA =        F    use ultrasoft PP ?                                      
   IUNSCR =        1    unscreen: 0-lin 1-nonlin 2-no                           
   RPACOR =    1.200    partial core radius                                     
   POMASS =   18.998; ZVAL   =    7.000    mass and valenz                      
   RCORE  =    1.520    outmost cutoff radius                                   
   RWIGS  =    1.500; RWIGS  =    0.794    wigner-seitz radius (au A)           
   ENMAX  =  400.000; ENMIN  =  300.000 eV                                      
   ICORE  =        2    local potential                                         
   LCOR   =        T    correct aug charges                                     
   LPAW   =        T    paw PP                                                  
   EAUG   =  613.614                                                            
   RMAX   =    1.555    core radius for proj-oper                               
   RAUG   =    1.300    factor for augmentation sphere                          
   RDEP   =    1.539    radius for radial grids                                 
   RDEPT  =    1.299    core radius for aug-charge                              
                                                                                
   Atomic configuration                                                         
    4 entries                                                                   
     n  l   j            E        occ.                                          
     1  0  0.50      -663.3661   2.0000                                         
     2  0  0.50       -29.8995   2.0000                                         
     2  1  0.50       -11.1114   5.0000                                         
     3  2  1.50       -10.8847   0.0000                                         
   Description                                                                  
     l       E           TYP  RCUT    TYP  RCUT                                 
     0    -29.8995018     23  1.200                                             
     0     -9.5240782     23  1.200                                             
     1    -11.1113914     23  1.520                                             
     1      1.3605826     23  1.520                                             
     2    -10.8846608      7  1.500                                             
  local pseudopotential read in
  partial core-charges read in
  partial kinetic energy density read in
  atomic valenz-charges read in
  non local Contribution for L=           0  read in
    real space projection operators read in
  non local Contribution for L=           0  read in
    real space projection operators read in
  non local Contribution for L=           1  read in
    real space projection operators read in
  non local Contribution for L=           1  read in
    real space projection operators read in
    PAW grid and wavefunctions read in
 
   number of l-projection  operators is LMAX  =           4
   number of lm-projection operators is LMMAX =           8
 
 Optimization of the real space projectors (new method)

 maximal supplied QI-value         = 15.12
 optimisation between [QCUT,QGAM] = [ 13.45, 27.06] = [ 50.69,205.06] Ry 
 Optimized for a Real-space Cutoff    1.49 Angstroem

   l    n(q)    QCUT    max X(q) W(low)/X(q) W(high)/X(q)  e(spline) 
   1     12    13.455     4.841    0.13E-05    0.83E-06    0.56E-07
   1     12    13.455     5.701    0.32E-04    0.25E-04    0.17E-06
   2     11    13.455     4.569    0.64E-05    0.34E-05    0.50E-07
   2     11    13.455    32.276    0.49E-04    0.38E-04    0.46E-06
   0     12    13.455    30.046    0.17E-04    0.41E-05    0.51E-07
   0     12    13.455    45.433    0.12E-04    0.27E-04    0.38E-06
 Optimization of the real space projectors (new method)

 maximal supplied QI-value         = 24.76
 optimisation between [QCUT,QGAM] = [ 13.37, 26.98] = [ 50.04,203.89] Ry 
 Optimized for a Real-space Cutoff    1.17 Angstroem

   l    n(q)    QCUT    max X(q) W(low)/X(q) W(high)/X(q)  e(spline) 
   0      9    13.368     4.192    0.20E-04    0.58E-05    0.56E-07
   0      9    13.368     8.473    0.60E-04    0.52E-04    0.21E-06
   1      9    13.368     2.474    0.22E-04    0.17E-04    0.28E-07
   1      9    13.368     3.912    0.94E-04    0.97E-04    0.20E-06
 Optimization of the real space projectors (new method)

 maximal supplied QI-value         = 24.76
 optimisation between [QCUT,QGAM] = [ 13.37, 26.98] = [ 50.04,203.89] Ry 
 Optimized for a Real-space Cutoff    1.17 Angstroem

   l    n(q)    QCUT    max X(q) W(low)/X(q) W(high)/X(q)  e(spline) 
   0      9    13.368    14.049    0.39E-04    0.34E-04    0.16E-06
   0      9    13.368     8.945    0.54E-04    0.47E-04    0.20E-06
   1      9    13.368     7.086    0.99E-04    0.10E-03    0.23E-06
   1      9    13.368     6.747    0.86E-04    0.89E-04    0.21E-06

 ----------------------------------------------------------------------------- 
|                                                                             |
|  ADVICE TO THIS USER RUNNING 'VASP/VAMP'   (HEAR YOUR MASTER'S VOICE ...):  |
|                                                                             |
|      You enforced a specific xc-type in the INCAR file,                     |
|      a different type was found on the POTCAR file                          |
|          I HOPE YOU KNOW, WHAT YOU ARE  DOING                               |
|                                                                             |
 ----------------------------------------------------------------------------- 

 PAW_PBE Ti_pv 07Sep2000                :
 energy of atom  1       EATOM=-1042.3781
 kinetic energy error for atom=    0.0006 (will be added to EATOM!!)
 PAW_PBE O 08Apr2002                    :
 energy of atom  2       EATOM= -432.3788
 kinetic energy error for atom=    0.0091 (will be added to EATOM!!)
  PAW_PBE F 08Apr2002                   :
 energy of atom  3       EATOM= -659.6475
 kinetic energy error for atom=    0.0140 (will be added to EATOM!!)
 
 
 POSCAR: Ti64 O64 F128                           
  positions in direct lattice
  velocities in cartesian coordinates
 exchange correlation table for  LEXCH =       14
   RHO(1)=    0.500       N(1)  =     2000
   RHO(2)=  100.500       N(2)  =     4000

 VTST: version 3.1, (03/28/14)

 CHAIN: initializing optimizer
 
 OPT: Using VASP QUASI-newton optimizer
 CHAIN: Read ICHAIN            0
 
 POSCAR: Ti64 O64 F128                           
  positions in direct lattice
  velocities in cartesian coordinates
 


--------------------------------------------------------------------------------------------------------


 ion  position               nearest neighbor table
   1  0.997  0.999  0.008-  65 1.77 228 1.91 199 1.91 171 1.94 214 1.94 136 2.03
   2  0.993  0.991  0.499- 112 1.82  95 1.83 135 1.96 129 1.96 215 2.04 172 2.04
   3  0.997  0.506  0.994- 108 1.83  68 1.84 200 1.94 173 1.97 130 2.00 226 2.02
   4  0.007  0.502  0.493-  87 1.82  67 1.83 216 1.95 227 1.98 131 2.04 201 2.07
   5  0.507  0.008  0.002-  88 1.82 109 1.83 132 1.95 138 1.96 230 2.03 196 2.05
   6  0.491  0.001  0.497-  94 1.79 217 1.92 133 1.93 137 1.94 231 1.95 174 2.01
   7  0.508  0.509  0.000- 110 1.82  89 1.84 140 1.94 134 1.97 197 2.03 229 2.06
   8  0.501  0.492  0.508-  66 1.81 113 1.84 198 1.93 175 1.97 218 2.02 139 2.03
   9  0.999  0.009  0.245- 111 1.79  65 1.87 176 1.93 204 1.96 135 2.01 234 2.02
  10  0.991  0.994  0.751-  98 1.82 114 1.83 136 1.96 129 1.97 219 2.03 177 2.03
  11  0.007  0.498  0.257-  90 1.80  67 1.86 232 1.95 220 1.97 130 2.03 205 2.05
  12  0.992  0.503  0.755-  99 1.83  68 1.84 221 1.94 233 1.98 131 2.00 178 2.03
  13  0.494  0.992  0.251- 117 1.79  96 1.84 132 1.96 137 1.99 222 2.04 179 2.04
  14  0.491  0.995  0.752-  97 1.82 118 1.83 138 1.95 133 1.98 223 2.03 180 2.03
  15  0.508  0.494  0.256-  91 1.84 115 1.85 139 1.94 134 1.98 202 2.00 224 2.01
  16  0.503  0.493  0.745- 116 1.83  66 1.83 181 1.94 203 1.97 140 2.02 225 2.04
  17  0.995  0.255  0.992- 103 1.83  72 1.84 226 1.93 214 2.01 182 2.03 141 2.03
  18  0.994  0.250  0.493- 104 1.84  71 1.85 215 1.94 227 1.97 142 2.01 183 2.04
  19  0.998  0.742  0.993- 108 1.81  74 1.84 184 1.94 207 1.95 143 2.00 228 2.07
  20  0.003  0.758  0.496-  73 1.82 112 1.83 185 1.94 208 1.98 144 2.03 216 2.04
  21  0.493  0.246  1.000- 100 1.83 109 1.85 148 1.95 145 1.95 229 2.01 186 2.02
  22  0.494  0.259  0.496- 113 1.81 101 1.85 146 1.95 147 1.95 187 2.01 217 2.07
  23  0.502  0.746  0.009-  69 1.80 110 1.86 206 1.96 188 1.97 230 2.04 150 2.05
  24  0.493  0.750  0.509- 102 1.81  70 1.84 218 1.94 149 2.00 231 2.01 189 2.04
  25  0.001  0.244  0.257-  71 1.82 111 1.85 190 1.93 211 1.96 232 2.00 141 2.03
  26  0.006  0.251  0.754-  72 1.84  92 1.84 219 1.95 233 1.97 142 2.03 212 2.03
  27  0.995  0.754  0.256- 107 1.84  73 1.84 234 1.94 220 1.96 191 2.00 143 2.03
  28  0.998  0.759  0.755- 114 1.82  74 1.83 192 1.94 213 1.95 144 2.01 221 2.05
  29  0.492  0.256  0.253- 105 1.81 115 1.82 145 1.95 147 1.97 193 2.03 222 2.03
  30  0.504  0.257  0.749-  93 1.82 116 1.83 148 1.96 146 1.96 209 2.02 223 2.03
  31  0.498  0.756  0.246- 106 1.87  69 1.88 117 1.89 224 2.02 194 2.03 149 2.03
  32  0.501  0.757  0.746- 118 1.83  70 1.84 210 1.95 195 1.96 150 2.01 225 2.03
  33  0.255  0.008  0.004-  75 1.83 119 1.83 196 1.94 171 2.00 244 2.02 159 2.04
  34  0.253  0.007  0.494- 120 1.80  94 1.91 158 1.93 151 1.96 172 1.98 245 2.02
  35  0.255  0.505  0.993-  77 1.84 121 1.85 197 1.94 173 1.98 152 2.00 242 2.05
  36  0.244  0.499  0.492-  76 1.81  87 1.83 243 1.96 235 1.98 153 2.03 198 2.06
  37  0.740  0.998  0.996-  88 1.82  79 1.83 248 1.93 236 1.97 154 2.02 199 2.08
  38  0.753  0.996  0.493-  78 1.84  95 1.85 249 1.94 237 1.97 155 2.02 174 2.04
  39  0.745  0.509  0.001-  89 1.81 122 1.83 156 1.93 160 1.98 246 2.03 200 2.04
  40  0.755  0.505  0.493-  80 1.81 123 1.82 201 1.93 175 1.99 247 2.03 157 2.06
  41  0.259  0.003  0.242-  96 1.81  75 1.83 238 1.93 251 1.96 158 2.06 176 2.06
  42  0.253  0.007  0.752- 124 1.84  97 1.84 159 1.94 151 1.99 177 2.02 252 2.03
  43  0.246  0.493  0.255-  90 1.86 128 1.87  76 1.87 239 2.02 152 2.02 202 2.04
  44  0.248  0.505  0.756-  77 1.84 125 1.84 178 1.94 203 1.98 153 2.01 250 2.04
  45  0.748  0.006  0.256- 126 1.82  78 1.83 179 1.94 204 1.99 255 2.02 154 2.04
  46  0.753  0.998  0.757-  79 1.84  98 1.84 256 1.94 240 1.96 155 2.02 180 2.02
  47  0.746  0.497  0.260-  91 1.83  80 1.83 253 1.94 241 1.97 205 2.00 156 2.05
  48  0.757  0.509  0.751-  99 1.81 127 1.82 157 1.94 160 1.98 254 2.03 181 2.04
  49  0.257  0.245  0.996- 100 1.83 119 1.85 168 1.95 161 1.97 242 2.02 182 2.02
  50  0.257  0.244  0.495- 101 1.83 120 1.84 167 1.95 162 1.95 243 2.01 183 2.02
  51  0.254  0.744  0.992- 121 1.83  84 1.84 206 1.95 184 1.97 163 2.01 244 2.06
  52  0.258  0.754  0.494-  83 1.81 102 1.84 245 1.95 235 1.97 164 2.02 185 2.04
  53  0.756  0.254  0.994- 103 1.83  86 1.84 246 1.94 236 1.98 165 2.01 186 2.03
  54  0.754  0.254  0.494- 104 1.84  85 1.84 247 1.95 237 1.97 166 2.01 187 2.05
  55  0.752  0.740  0.007-  81 1.82 122 1.82 188 1.95 207 1.96 248 2.03 170 2.04
  56  0.749  0.740  0.507- 123 1.82  82 1.85 189 1.93 208 1.97 169 2.02 249 2.03
  57  0.256  0.258  0.248- 128 1.77 105 1.83 161 1.96 167 1.97 190 2.03 238 2.06
  58  0.242  0.245  0.748-  92 1.82 124 1.84 168 1.96 162 1.97 250 2.02 209 2.04
  59  0.259  0.751  0.254- 106 1.81  83 1.86 239 1.93 251 1.98 163 2.02 191 2.05
  60  0.250  0.744  0.756- 125 1.83  84 1.83 210 1.95 192 1.95 164 2.01 252 2.04
  61  0.747  0.243  0.257- 126 1.83  85 1.84 193 1.93 211 1.97 165 2.01 253 2.03
  62  0.742  0.254  0.755-  86 1.83  93 1.84 254 1.94 240 1.96 166 2.01 212 2.03
  63  0.756  0.751  0.244- 107 1.83  81 1.86 255 1.94 241 1.97 194 2.00 169 2.04
  64  0.748  0.740  0.747- 127 1.82  82 1.83 195 1.94 213 1.96 170 2.03 256 2.04
  65  0.984  0.011  0.123-   1 1.77   9 1.87
  66  0.517  0.490  0.626-   8 1.81  16 1.83
  67  0.985  0.487  0.376-   4 1.83  11 1.86
  68  0.992  0.487  0.875-   3 1.84  12 1.84
  69  0.519  0.763  0.125-  23 1.80  31 1.88
  70  0.516  0.759  0.627-  32 1.84  24 1.84
  71  0.013  0.264  0.374-  25 1.82  18 1.85
  72  0.010  0.264  0.873-  26 1.84  17 1.84
  73  0.996  0.762  0.377-  20 1.82  27 1.84
  74  0.990  0.763  0.875-  28 1.83  19 1.84
  75  0.267  0.015  0.123-  41 1.83  33 1.83
  76  0.265  0.487  0.376-  36 1.81  43 1.87
  77  0.259  0.486  0.875-  35 1.84  44 1.84
  78  0.733  0.990  0.375-  45 1.83  38 1.84
  79  0.735  0.992  0.876-  37 1.83  46 1.84
  80  0.766  0.480  0.378-  40 1.81  47 1.83
  81  0.739  0.734  0.125-  55 1.82  63 1.86
  82  0.737  0.737  0.628-  64 1.83  56 1.85
  83  0.254  0.762  0.375-  52 1.81  59 1.86
  84  0.261  0.764  0.874-  60 1.83  51 1.84
  85  0.735  0.262  0.375-  61 1.84  54 1.84
  86  0.740  0.260  0.875-  62 1.83  53 1.84
  87  0.125  0.516  0.488-   4 1.82  36 1.83
  88  0.624  0.013  0.020-  37 1.82   5 1.82
  89  0.627  0.516  0.988-  39 1.81   7 1.84
  90  0.125  0.508  0.260-  11 1.80  43 1.86
  91  0.627  0.508  0.265-  47 1.83  15 1.84
  92  0.124  0.265  0.733-  58 1.82  26 1.84
  93  0.623  0.264  0.737-  30 1.82  62 1.84
  94  0.376  0.986  0.484-   6 1.79  34 1.91
  95  0.873  0.986  0.490-   2 1.83  38 1.85
  96  0.374  0.993  0.269-  41 1.81  13 1.84
  97  0.373  0.012  0.762-  14 1.82  42 1.84
  98  0.873  0.013  0.762-  10 1.82  46 1.84
  99  0.875  0.520  0.740-  48 1.81  12 1.83
 100  0.375  0.265  0.987-  49 1.83  21 1.83
 101  0.374  0.262  0.479-  50 1.83  22 1.85
 102  0.376  0.770  0.512-  24 1.81  52 1.84
 103  0.876  0.265  0.994-  17 1.83  53 1.83
 104  0.874  0.262  0.490-  54 1.84  18 1.84
 105  0.374  0.251  0.267-  29 1.81  57 1.83
 106  0.376  0.762  0.240-  59 1.81  31 1.87
 107  0.876  0.764  0.241-  63 1.83  27 1.84
 108  0.981  0.625  0.992-  19 1.81   3 1.83
 109  0.485  0.125  0.015-   5 1.83  21 1.85
 110  0.486  0.625  0.013-   7 1.82  23 1.86
 111  0.984  0.124  0.264-   9 1.79  25 1.85
 112  0.015  0.875  0.517-   2 1.82  20 1.83
 113  0.515  0.375  0.484-  22 1.81   8 1.84
 114  0.982  0.875  0.734-  28 1.82  10 1.83
 115  0.507  0.373  0.269-  29 1.82  15 1.85
 116  0.485  0.375  0.762-  16 1.83  30 1.83
 117  0.514  0.878  0.267-  13 1.79  31 1.89
 118  0.487  0.875  0.762-  14 1.83  32 1.83
 119  0.261  0.125  0.980-  33 1.83  49 1.85
 120  0.260  0.124  0.480-  34 1.80  50 1.84
 121  0.269  0.626  0.991-  51 1.83  35 1.85
 122  0.773  0.624  0.986-  55 1.82  39 1.83
 123  0.769  0.624  0.489-  40 1.82  56 1.82
 124  0.235  0.126  0.761-  42 1.84  58 1.84
 125  0.234  0.625  0.760-  60 1.83  44 1.84
 126  0.764  0.124  0.259-  45 1.82  61 1.83
 127  0.731  0.624  0.770-  48 1.82  64 1.82
 128  0.244  0.373  0.232-  57 1.77  43 1.87
 129  0.991  0.021  0.624-   2 1.96  10 1.97
 130  0.007  0.510  0.125-   3 2.00  11 2.03
 131  0.011  0.513  0.626-  12 2.00   4 2.04
 132  0.478  0.981  0.124-   5 1.95  13 1.96
 133  0.487  0.985  0.623-   6 1.93  14 1.98
 134  0.514  0.485  0.127-   7 1.97  15 1.98
 135  0.014  0.984  0.373-   2 1.96   9 2.01
 136  0.013  0.987  0.877-  10 1.96   1 2.03
 137  0.519  0.023  0.375-   6 1.94  13 1.99
 138  0.517  0.018  0.875-  14 1.95   5 1.96
 139  0.484  0.516  0.379-  15 1.94   8 2.03
 140  0.485  0.511  0.875-   7 1.94  16 2.02
 141  0.993  0.236  0.124-  17 2.03  25 2.03
 142  0.990  0.234  0.623-  18 2.01  26 2.03
 143  0.010  0.743  0.124-  19 2.00  27 2.03
 144  0.007  0.733  0.627-  28 2.01  20 2.03
 145  0.489  0.269  0.126-  29 1.95  21 1.95
 146  0.480  0.261  0.623-  22 1.95  30 1.96
 147  0.519  0.225  0.375-  22 1.95  29 1.97
 148  0.514  0.233  0.874-  21 1.95  30 1.96
 149  0.493  0.737  0.378-  24 2.00  31 2.03
 150  0.485  0.740  0.876-  32 2.01  23 2.05
 151  0.259  0.012  0.622-  34 1.96  42 1.99
 152  0.245  0.512  0.124-  35 2.00  43 2.02
 153  0.243  0.507  0.625-  44 2.01  36 2.03
 154  0.770  0.003  0.125-  37 2.02  45 2.04
 155  0.755  0.006  0.625-  38 2.02  46 2.02
 156  0.743  0.517  0.127-  39 1.93  47 2.05
 157  0.732  0.512  0.626-  48 1.94  40 2.06
 158  0.230  0.983  0.372-  34 1.93  41 2.06
 159  0.233  0.982  0.875-  42 1.94  33 2.04
 160  0.765  0.479  0.877-  39 1.98  48 1.98
 161  0.263  0.229  0.124-  57 1.96  49 1.97
 162  0.268  0.236  0.622-  50 1.95  58 1.97
 163  0.240  0.743  0.124-  51 2.01  59 2.02
 164  0.240  0.743  0.625-  60 2.01  52 2.02
 165  0.757  0.241  0.125-  53 2.01  61 2.01
 166  0.759  0.240  0.624-  54 2.01  62 2.01
 167  0.226  0.267  0.374-  50 1.95  57 1.97
 168  0.234  0.271  0.873-  49 1.95  58 1.96
 169  0.759  0.765  0.378-  56 2.02  63 2.04
 170  0.768  0.765  0.876-  64 2.03  55 2.04
 171  0.124  0.014  0.011-   1 1.94  33 2.00
 172  0.124  0.014  0.508-  34 1.98   2 2.04
 173  0.126  0.514  0.994-   3 1.97  35 1.98
 174  0.622  0.012  0.513-   6 2.01  38 2.04
 175  0.626  0.517  0.485-   8 1.97  40 1.99
 176  0.125  0.014  0.236-   9 1.93  41 2.06
 177  0.123  0.987  0.737-  42 2.02  10 2.03
 178  0.124  0.480  0.754-  44 1.94  12 2.03
 179  0.624  0.014  0.229-  45 1.94  13 2.04
 180  0.623  0.989  0.737-  46 2.02  14 2.03
 181  0.627  0.482  0.769-  16 1.94  48 2.04
 182  0.125  0.237  0.010-  49 2.02  17 2.03
 183  0.126  0.238  0.513-  50 2.02  18 2.04
 184  0.126  0.736  0.990-  19 1.94  51 1.97
 185  0.127  0.730  0.498-  20 1.94  52 2.04
 186  0.625  0.239  0.011-  21 2.02  53 2.03
 187  0.622  0.236  0.515-  22 2.01  54 2.05
 188  0.627  0.736  0.979-  55 1.95  23 1.97
 189  0.624  0.733  0.487-  56 1.93  24 2.04
 190  0.126  0.236  0.234-  25 1.93  57 2.03
 191  0.125  0.739  0.253-  27 2.00  59 2.05
 192  0.125  0.769  0.755-  28 1.94  60 1.95
 193  0.623  0.238  0.235-  61 1.93  29 2.03
 194  0.628  0.736  0.266-  63 2.00  31 2.03
 195  0.626  0.768  0.773-  64 1.94  32 1.96
 196  0.377  0.983  0.979-  33 1.94   5 2.05
 197  0.378  0.480  0.012-  35 1.94   7 2.03
 198  0.376  0.484  0.516-   8 1.93  36 2.06
 199  0.875  0.983  0.985-   1 1.91  37 2.08
 200  0.874  0.478  0.013-   3 1.94  39 2.04
 201  0.876  0.482  0.523-  40 1.93   4 2.07
 202  0.378  0.496  0.237-  15 2.00  43 2.04
 203  0.377  0.518  0.738-  16 1.97  44 1.98
 204  0.875  0.979  0.264-   9 1.96  45 1.99
 205  0.875  0.489  0.235-  47 2.00  11 2.05
 206  0.377  0.772  0.015-  51 1.95  23 1.96
 207  0.876  0.773  0.016-  19 1.95  55 1.96
 208  0.874  0.768  0.513-  56 1.97  20 1.98
 209  0.374  0.237  0.763-  30 2.02  58 2.04
 210  0.376  0.732  0.735-  32 1.95  60 1.95
 211  0.875  0.267  0.256-  25 1.96  61 1.97
 212  0.874  0.237  0.755-  26 2.03  62 2.03
 213  0.875  0.727  0.741-  28 1.95  64 1.96
 214  0.988  0.124  0.983-   1 1.94  17 2.01
 215  0.991  0.123  0.482-  18 1.94   2 2.04
 216  0.979  0.626  0.493-   4 1.95  20 2.04
 217  0.486  0.125  0.515-   6 1.92  22 2.07
 218  0.485  0.623  0.512-  24 1.94   8 2.02
 219  0.015  0.124  0.763-  26 1.95  10 2.03
 220  0.987  0.625  0.257-  27 1.96  11 1.97
 221  0.021  0.627  0.762-  12 1.94  28 2.05
 222  0.494  0.124  0.232-  29 2.03  13 2.04
 223  0.508  0.125  0.733-  14 2.03  30 2.03
 224  0.495  0.624  0.240-  15 2.01  31 2.02
 225  0.518  0.625  0.748-  32 2.03  16 2.04
 226  0.018  0.377  0.016-  17 1.93   3 2.02
 227  0.015  0.375  0.518-  18 1.97   4 1.98
 228  0.017  0.875  0.012-   1 1.91  19 2.07
 229  0.515  0.375  0.987-  21 2.01   7 2.06
 230  0.514  0.877  0.985-   5 2.03  23 2.04
 231  0.519  0.877  0.484-   6 1.95  24 2.01
 232  0.010  0.372  0.232-  11 1.95  25 2.00
 233  0.981  0.376  0.732-  26 1.97  12 1.98
 234  0.016  0.878  0.237-  27 1.94   9 2.02
 235  0.270  0.625  0.495-  52 1.97  36 1.98
 236  0.765  0.124  0.994-  37 1.97  53 1.98
 237  0.757  0.125  0.493-  38 1.97  54 1.97
 238  0.250  0.126  0.270-  41 1.93  57 2.06
 239  0.261  0.625  0.257-  59 1.93  43 2.02
 240  0.734  0.125  0.755-  46 1.96  62 1.96
 241  0.766  0.624  0.268-  47 1.97  63 1.97
 242  0.236  0.374  0.016-  49 2.02  35 2.05
 243  0.235  0.373  0.514-  36 1.96  50 2.01
 244  0.236  0.877  0.011-  33 2.02  51 2.06
 245  0.231  0.878  0.512-  52 1.95  34 2.02
 246  0.735  0.377  0.016-  53 1.94  39 2.03
 247  0.732  0.377  0.518-  54 1.95  40 2.03
 248  0.736  0.872  0.011-  37 1.93  55 2.03
 249  0.731  0.872  0.512-  38 1.94  56 2.03
 250  0.267  0.374  0.734-  58 2.02  44 2.04
 251  0.234  0.877  0.235-  41 1.96  59 1.98
 252  0.261  0.875  0.735-  42 2.03  60 2.04
 253  0.740  0.373  0.232-  47 1.94  61 2.03
 254  0.765  0.377  0.735-  62 1.94  48 2.03
 255  0.733  0.876  0.237-  63 1.94  45 2.02
 256  0.764  0.872  0.741-  46 1.94  64 2.04
 

IMPORTANT INFORMATION: All symmetrisations will be switched off!
NOSYMM: (Re-)initialisation of all symmetry stuff for point group C_1.

 
 
 KPOINTS: Title                                   

Automatic generation of k-mesh.
Space group operators:
 irot       det(A)        alpha          n_x          n_y          n_z        tau_x        tau_y        tau_z
    1     1.000000     0.000000     1.000000     0.000000     0.000000     0.000000     0.000000     0.000000
 
 Subroutine IBZKPT returns following result:
 ===========================================
 
 Found      4 irreducible k-points:
 
 Following reciprocal coordinates:
            Coordinates               Weight
  0.250000  0.250000  0.250000      2.000000
 -0.250000  0.250000  0.250000      2.000000
  0.250000 -0.250000  0.250000      2.000000
 -0.250000 -0.250000  0.250000      2.000000
 
 Following cartesian coordinates:
            Coordinates               Weight
  0.016385  0.016385  0.016385      2.000000
 -0.016385  0.016385  0.016385      2.000000
  0.016385 -0.016385  0.016385      2.000000
 -0.016385 -0.016385  0.016385      2.000000
 


--------------------------------------------------------------------------------------------------------




 Dimension of arrays:
   k-points           NKPTS =      4   k-points in BZ     NKDIM =      4   number of bands    NBANDS=   1280
   number of dos      NEDOS =   3001   number of ions     NIONS =    256
   non local maximal  LDIM  =      6   non local SUM 2l+1 LMDIM =     18
   total plane-waves  NPLWV = ******
   max r-space proj   IRMAX =  10708   max aug-charges    IRDMAX= 240106
   dimension x,y,z NGX =   140 NGY =  140 NGZ =  140
   dimension x,y,z NGXF=   280 NGYF=  280 NGZF=  280
   support grid    NGXF=   560 NGYF=  560 NGZF=  560
   ions per type =              64  64 128
   NGX,Y,Z   is equivalent  to a cutoff of  15.25, 15.25, 15.25 a.u.
   NGXF,Y,Z  is equivalent  to a cutoff of  30.51, 30.51, 30.51 a.u.

 SYSTEM =  LTO                                     
 POSCAR =  Ti64 O64 F128                           

 Startparameter for this run:
   NWRITE =      2    write-flag & timer
   PREC   = accura    normal or accurate (medium, high low for compatibility)
   ISTART =      1    job   : 0-new  1-cont  2-samecut
   ICHARG =      0    charge: 1-file 2-atom 10-const
   ISPIN  =      2    spin polarized calculation?
   LNONCOLLINEAR =      F non collinear calculations
   LSORBIT =      F    spin-orbit coupling
   INIWAV =      1    electr: 0-lowe 1-rand  2-diag
   LASPH  =      T    aspherical Exc in radial PAW
   METAGGA=      F    non-selfconsistent MetaGGA calc.

 Electronic Relaxation 1
   ENCUT  =  700.0 eV  51.45 Ry    7.17 a.u.  32.92 32.92 32.92*2*pi/ulx,y,z
   ENINI  =  700.0     initial cutoff
   ENAUG  =  613.6 eV  augmentation charge cutoff
   NELM   =     60;   NELMIN=  2; NELMDL=  0     # of ELM steps 
   EDIFF  = 0.1E-05   stopping-criterion for ELM
   LREAL  =      T    real-space projection
   NLSPLINE    = F    spline interpolate recip. space projectors
   LCOMPAT=      F    compatible to vasp.4.4
   GGA_COMPAT  = T    GGA compatible to vasp.4.4-vasp.4.6
   LMAXPAW     = -100 max onsite density
   LMAXMIX     =    4 max onsite mixed and CHGCAR
   VOSKOWN=      0    Vosko Wilk Nusair interpolation
   ROPT   =   -0.00010  -0.00010  -0.00010
 Ionic relaxation
   EDIFFG = -.1E-01   stopping-criterion for IOM
   NSW    =    100    number of steps for IOM
   NBLOCK =      1;   KBLOCK =    100    inner block; outer block 
   IBRION =      1    ionic relax: 0-MD 1-quasi-New 2-CG
   NFREE  =      0    steps in history (QN), initial steepest desc. (CG)
   ISIF   =      2    stress and relaxation
   IWAVPR =     11    prediction:  0-non 1-charg 2-wave 3-comb
   ISYM   =      0    0-nonsym 1-usesym 2-fastsym
   LCORR  =      T    Harris-Foulkes like correction to forces

   POTIM  = 0.5000    time-step for ionic-motion
   TEIN   =    0.0    initial temperature
   TEBEG  =    0.0;   TEEND  =   0.0 temperature during run
   SMASS  =  -3.00    Nose mass-parameter (am)
   estimated Nose-frequenzy (Omega)   =  0.10E-29 period in steps =****** mass=  -0.532E-26a.u.
   SCALEE = 1.0000    scale energy and forces
   NPACO  =    256;   APACO  = 16.0  distance and # of slots for P.C.
   PSTRESS=    0.0 pullay stress

  Mass of Ions in am
   POMASS =  47.88 16.00 19.00
  Ionic Valenz
   ZVAL   =  10.00  6.00  7.00
  Atomic Wigner-Seitz radii
   RWIGS  =  -1.00 -1.00 -1.00
  virtual crystal weights 
   VCA    =   1.00  1.00  1.00
   NELECT =    1920.0000    total number of electrons
   NUPDOWN=      -1.0000    fix difference up-down

 DOS related values:
   EMIN   =  10.00;   EMAX   =-10.00  energy-range for DOS
   EFERMI =   0.00
   ISMEAR =     0;   SIGMA  =   0.01  broadening in eV -4-tet -1-fermi 0-gaus

 Electronic relaxation 2 (details)
   IALGO  =     68    algorithm
   LDIAG  =      T    sub-space diagonalisation (order eigenvalues)
   LSUBROT=      F    optimize rotation matrix (better conditioning)
   TURBO    =      0    0=normal 1=particle mesh
   IRESTART =      0    0=no restart 2=restart with 2 vectors
   NREBOOT  =      0    no. of reboots
   NMIN     =      0    reboot dimension
   EREF     =   0.00    reference energy to select bands
   IMIX   =      4    mixing-type and parameters
     AMIX     =   0.40;   BMIX     =  1.00
     AMIX_MAG =   1.60;   BMIX_MAG =  1.00
     AMIN     =   0.10
     WC   =   100.;   INIMIX=   1;  MIXPRE=   1;  MAXMIX= -45

 Intra band minimization:
   WEIMIN = 0.0010     energy-eigenvalue tresh-hold
   EBREAK =  0.20E-09  absolut break condition
   DEPER  =   0.30     relativ break condition  

   TIME   =   0.40     timestep for ELM

  volume/ion in A,a.u.               =      13.88        93.64
  Fermi-wavevector in a.u.,A,eV,Ry     =   1.333564  2.520071 24.196511  1.778393
  Thomas-Fermi vector in A             =   2.462413
 
 Write flags
   LWAVE        =      T    write WAVECAR
   LDOWNSAMPLE  =      F    k-point downsampling of WAVECAR
   LCHARG       =      T    write CHGCAR
   LVTOT        =      F    write LOCPOT, total local potential
   LVHAR        =      F    write LOCPOT, Hartree potential only
   LELF         =      F    write electronic localiz. function (ELF)
   LORBIT       =     11    0 simple, 1 ext, 2 COOP (PROOUT), +10 PAW based schemes


 Dipole corrections
   LMONO  =      F    monopole corrections only (constant potential shift)
   LDIPOL =      F    correct potential (dipole corrections)
   IDIPOL =      0    1-x, 2-y, 3-z, 4-all directions 
   EPSILON=  1.0000000 bulk dielectric constant

 LDA+U is selected, type is set to LDAUTYPE =  2
   angular momentum for each species LDAUL =     2   -1   -1
   U (eV)           for each species LDAUU =   4.2  0.0  0.0
   J (eV)           for each species LDAUJ =   0.0  0.0  0.0
 Exchange correlation treatment:
   GGA     =    PS    GGA type
   LEXCH   =    14    internal setting for exchange type
   VOSKOWN=      0    Vosko Wilk Nusair interpolation
   LHFCALC =     F    Hartree Fock is set to
   LHFONE  =     F    Hartree Fock one center treatment
   AEXX    =    0.0000 exact exchange contribution

 Linear response parameters
   LEPSILON=     F    determine dielectric tensor
   LRPA    =     F    only Hartree local field effects (RPA)
   LNABLA  =     F    use nabla operator in PAW spheres
   LVEL    =     F    velocity operator in full k-point grid
   LINTERFAST=   F  fast interpolation
   KINTER  =     0    interpolate to denser k-point grid
   CSHIFT  =0.1000    complex shift for real part using Kramers Kronig
   OMEGAMAX=  -1.0    maximum frequency
   DEG_THRESHOLD= 0.2000000E-02 threshold for treating states as degnerate
   RTIME   =   -0.100 relaxation time in fs
  (WPLASMAI=    0.000 imaginary part of plasma frequency in eV, 0.658/RTIME)
   DFIELD  = 0.0000000 0.0000000 0.0000000 field for delta impulse in time
 
 Orbital magnetization related:
   ORBITALMAG=     F  switch on orbital magnetization
   LCHIMAG   =     F  perturbation theory with respect to B field
   DQ        =  0.001000  dq finite difference perturbation B field
   LLRAUG    =     F  two centre corrections for induced B field



--------------------------------------------------------------------------------------------------------


 quasi-Newton-method for relaxation of ions
 charge density and potential will be updated during run
 spin polarized calculation
 RMM-DIIS sequential band-by-band and
  variant of blocked Davidson during initial phase
 perform sub-space diagonalisation
    before iterative eigenvector-optimisation
 modified Broyden-mixing scheme, WC =      100.0
 initial mixing is a Kerker type mixing with AMIX =  0.4000 and BMIX =      1.0000
 Hartree-type preconditioning will be used
 using additional bands          320
 real space projection scheme for non local part
 use partial core corrections
 calculate Harris-corrections to forces 
   (improved forces if not selfconsistent)
 use gradient corrections 
 use of overlap-Matrix (Vanderbilt PP)
 Gauss-broadening in eV      SIGMA  =   0.01


--------------------------------------------------------------------------------------------------------


  energy-cutoff  :      700.00
  volume of cell :     3552.09
      direct lattice vectors                 reciprocal lattice vectors
    15.257896117  0.000000000  0.000000000     0.065539835  0.000000000  0.000000000
     0.000000000 15.257896117  0.000000000     0.000000000  0.065539835  0.000000000
     0.000000000  0.000000000 15.257896117     0.000000000  0.000000000  0.065539835

  length of vectors
    15.257896117 15.257896117 15.257896117     0.065539835  0.065539835  0.065539835


 
 old parameters found on file WAVECAR:
  energy-cutoff  :      700.00
  volume of cell :     3552.09
      direct lattice vectors                 reciprocal lattice vectors
    15.257896117  0.000000000  0.000000000     0.065539835  0.000000000  0.000000000
     0.000000000 15.257896117  0.000000000     0.000000000  0.065539835  0.000000000
     0.000000000  0.000000000 15.257896117     0.000000000  0.000000000  0.065539835

  length of vectors

 
 k-points in units of 2pi/SCALE and weight: Title                                   
   0.01638496  0.01638496  0.01638496       0.250
  -0.01638496  0.01638496  0.01638496       0.250
   0.01638496 -0.01638496  0.01638496       0.250
  -0.01638496 -0.01638496  0.01638496       0.250
 
 k-points in reciprocal lattice and weights: Title                                   
   0.25000000  0.25000000  0.25000000       0.250
  -0.25000000  0.25000000  0.25000000       0.250
   0.25000000 -0.25000000  0.25000000       0.250
  -0.25000000 -0.25000000  0.25000000       0.250
 
 position of ions in fractional coordinates (direct lattice) 
   0.99745041  0.99905763  0.00830640
   0.99274730  0.99050280  0.49942420
   0.99689785  0.50591369  0.99376181
   0.00696408  0.50182236  0.49281942
   0.50653191  0.00837670  0.00247640
   0.49130415  0.00063630  0.49732727
   0.50760815  0.50901658  0.00017195
   0.50144403  0.49201207  0.50836082
   0.99875206  0.00890871  0.24494848
   0.99062242  0.99369431  0.75059707
   0.00690747  0.49781584  0.25691931
   0.99239922  0.50263792  0.75515379
   0.49368853  0.99199667  0.25126364
   0.49082237  0.99467979  0.75195611
   0.50777623  0.49416055  0.25580006
   0.50261462  0.49252773  0.74536469
   0.99474962  0.25486946  0.99246257
   0.99389384  0.24998737  0.49269452
   0.99844178  0.74208501  0.99345745
   0.00276033  0.75753090  0.49595246
   0.49258720  0.24554849  0.99986739
   0.49422753  0.25911735  0.49587854
   0.50229192  0.74589552  0.00939198
   0.49330827  0.75014078  0.50852885
   0.00118658  0.24399200  0.25655138
   0.00637257  0.25085585  0.75389470
   0.99485282  0.75370471  0.25603200
   0.99787842  0.75904643  0.75530659
   0.49203967  0.25596166  0.25294059
   0.50413627  0.25731526  0.74894907
   0.49817857  0.75642531  0.24609486
   0.50096787  0.75720197  0.74649727
   0.25476412  0.00751990  0.00418074
   0.25296307  0.00706684  0.49354204
   0.25509429  0.50513644  0.99336303
   0.24367221  0.49876637  0.49179983
   0.73998510  0.99793679  0.99588271
   0.75271089  0.99561388  0.49325343
   0.74480924  0.50896551  0.00089245
   0.75535872  0.50524556  0.49317234
   0.25906626  0.00275516  0.24192043
   0.25290248  0.00695902  0.75204886
   0.24578634  0.49341736  0.25486720
   0.24845917  0.50500066  0.75610355
   0.74769609  0.00615677  0.25643141
   0.75347270  0.99823346  0.75733541
   0.74640895  0.49682017  0.26025262
   0.75677083  0.50905291  0.75068865
   0.25678302  0.24472156  0.99621244
   0.25670152  0.24392894  0.49496108
   0.25428668  0.74440741  0.99245027
   0.25822350  0.75412166  0.49390019
   0.75583907  0.25412581  0.99394414
   0.75421024  0.25353686  0.49367254
   0.75244757  0.74003636  0.00667776
   0.74863449  0.73995756  0.50721872
   0.25587499  0.25846497  0.24843626
   0.24153333  0.24520515  0.74767030
   0.25891355  0.75091560  0.25409031
   0.25005943  0.74382859  0.75607339
   0.74747649  0.24273085  0.25657251
   0.74194687  0.25366831  0.75457554
   0.75641412  0.75087516  0.24445085
   0.74754813  0.74003771  0.74728604
   0.98443176  0.01136525  0.12308263
   0.51731478  0.49026692  0.62614385
   0.98483780  0.48689293  0.37618002
   0.99209561  0.48732803  0.87491487
   0.51887111  0.76282825  0.12488460
   0.51605265  0.75939569  0.62684831
   0.01338686  0.26362863  0.37362234
   0.00953773  0.26439848  0.87335638
   0.99621885  0.76156817  0.37666548
   0.99037076  0.76263798  0.87509654
   0.26733453  0.01541899  0.12323129
   0.26470520  0.48720511  0.37587313
   0.25891390  0.48561953  0.87467989
   0.73341969  0.98974880  0.37459754
   0.73459077  0.99173043  0.87621901
   0.76639756  0.47998097  0.37750063
   0.73927604  0.73445760  0.12519145
   0.73672371  0.73734297  0.62789181
   0.25446020  0.76163037  0.37544220
   0.26147742  0.76392974  0.87397686
   0.73518447  0.26181087  0.37469540
   0.74030672  0.26035687  0.87462282
   0.12508263  0.51620824  0.48848391
   0.62444126  0.01297719  0.02009159
   0.62705493  0.51638786  0.98794556
   0.12455817  0.50788499  0.26034367
   0.62717855  0.50839524  0.26466731
   0.12446926  0.26477973  0.73310396
   0.62284643  0.26371134  0.73684185
   0.37577154  0.98630539  0.48358846
   0.87324471  0.98605421  0.49049452
   0.37417791  0.99342100  0.26868335
   0.37310754  0.01191241  0.76211207
   0.87327863  0.01334867  0.76155032
   0.87468998  0.52027729  0.73982756
   0.37475590  0.26478892  0.98711703
   0.37438437  0.26212037  0.47900546
   0.37634308  0.76972027  0.51158933
   0.87555167  0.26549848  0.99439280
   0.87417954  0.26241302  0.49008805
   0.37408718  0.25097806  0.26728941
   0.37615859  0.76157920  0.24041863
   0.87572215  0.76438548  0.24130816
   0.98086673  0.62507719  0.99166225
   0.48479718  0.12540286  0.01452741
   0.48609253  0.62545412  0.01343491
   0.98424035  0.12395274  0.26431820
   0.01549755  0.87494372  0.51711290
   0.51546774  0.37493500  0.48367703
   0.98228679  0.87522801  0.73386463
   0.50718991  0.37346021  0.26916365
   0.48478573  0.37522905  0.76195635
   0.51392346  0.87774395  0.26673474
   0.48722761  0.87539177  0.76219558
   0.26089934  0.12480526  0.97964487
   0.25960444  0.12431793  0.48042719
   0.26866272  0.62551383  0.99072518
   0.77349805  0.62434488  0.98558399
   0.76920790  0.62375898  0.48894926
   0.23458664  0.12555760  0.76053451
   0.23403786  0.62483036  0.75950549
   0.76440387  0.12415913  0.25886770
   0.73120231  0.62401615  0.77036634
   0.24388995  0.37303982  0.23242673
   0.99124066  0.02093132  0.62432261
   0.00678640  0.51030040  0.12461561
   0.01098858  0.51298729  0.62588135
   0.47838526  0.98083619  0.12406588
   0.48680261  0.98535873  0.62259541
   0.51367522  0.48451862  0.12651784
   0.01411816  0.98407699  0.37309075
   0.01303269  0.98681691  0.87659939
   0.51874532  0.02261409  0.37526660
   0.51746080  0.01775623  0.87496809
   0.48421274  0.51633667  0.37901732
   0.48526322  0.51124996  0.87511778
   0.99275021  0.23584080  0.12405347
   0.98957514  0.23371110  0.62316747
   0.01033554  0.74305547  0.12405453
   0.00651143  0.73327561  0.62656423
   0.48868505  0.26884979  0.12569752
   0.47998580  0.26142397  0.62259511
   0.51915239  0.22486360  0.37501252
   0.51357592  0.23281873  0.87447147
   0.49261285  0.73745675  0.37781910
   0.48483908  0.74014245  0.87627200
   0.25921947  0.01159297  0.62171668
   0.24458138  0.51165005  0.12376559
   0.24341411  0.50713586  0.62456603
   0.76970291  0.00316363  0.12475895
   0.75527051  0.00592333  0.62505863
   0.74258786  0.51650792  0.12743857
   0.73178703  0.51176508  0.62592680
   0.22963093  0.98285676  0.37188731
   0.23293326  0.98245284  0.87499470
   0.76533363  0.47899031  0.87653975
   0.26285054  0.22870657  0.12399164
   0.26843093  0.23643930  0.62179060
   0.24045447  0.74316218  0.12353734
   0.24044636  0.74321241  0.62466926
   0.75667496  0.24080595  0.12500569
   0.75850256  0.24002838  0.62438702
   0.22555702  0.26697707  0.37351073
   0.23441349  0.27078063  0.87321149
   0.75904480  0.76461493  0.37757387
   0.76776555  0.76513259  0.87624104
   0.12393003  0.01366120  0.01057736
   0.12394905  0.01423979  0.50839343
   0.12558120  0.51446117  0.99373014
   0.62151347  0.01192857  0.51341877
   0.62593340  0.51723689  0.48485603
   0.12458927  0.01358152  0.23601321
   0.12279883  0.98691256  0.73717380
   0.12360320  0.48001238  0.75358199
   0.62378948  0.01379287  0.22876585
   0.62286316  0.98948054  0.73650376
   0.62724997  0.48184824  0.76936092
   0.12528964  0.23707835  0.01002074
   0.12556659  0.23840861  0.51312718
   0.12573506  0.73632842  0.99034181
   0.12656814  0.72982130  0.49771740
   0.62450066  0.23857056  0.01114872
   0.62231070  0.23641945  0.51455494
   0.62746650  0.73575903  0.97901257
   0.62400647  0.73256277  0.48674571
   0.12567553  0.23570534  0.23381796
   0.12499355  0.73908349  0.25338356
   0.12458185  0.76932802  0.75525841
   0.62276422  0.23799324  0.23496791
   0.62822466  0.73619615  0.26636876
   0.62602933  0.76782117  0.77335561
   0.37701614  0.98292317  0.97904567
   0.37849357  0.48010938  0.01216990
   0.37556115  0.48419448  0.51623163
   0.87513913  0.98342288  0.98512888
   0.87433179  0.47827215  0.01331302
   0.87611167  0.48206205  0.52280338
   0.37810710  0.49588894  0.23730617
   0.37650227  0.51783854  0.73773765
   0.87509403  0.97884314  0.26412568
   0.87483683  0.48892347  0.23497910
   0.37669781  0.77229504  0.01518374
   0.87647564  0.77342986  0.01574346
   0.87430933  0.76758814  0.51347312
   0.37381577  0.23698057  0.76346490
   0.37587447  0.73232213  0.73527259
   0.87450248  0.26698627  0.25587891
   0.87412997  0.23727798  0.75473035
   0.87489250  0.72709035  0.74062340
   0.98822466  0.12363322  0.98333893
   0.99119555  0.12296528  0.48240913
   0.97884528  0.62620188  0.49295598
   0.48624945  0.12488112  0.51530069
   0.48454696  0.62343954  0.51184228
   0.01465412  0.12374797  0.76285039
   0.98690933  0.62541816  0.25708231
   0.02108821  0.62658720  0.76219011
   0.49403693  0.12438367  0.23210772
   0.50825587  0.12503153  0.73329929
   0.49455520  0.62419953  0.23989167
   0.51808882  0.62498696  0.74805507
   0.01830078  0.37691006  0.01641844
   0.01481972  0.37478286  0.51756801
   0.01698405  0.87530017  0.01177799
   0.51547641  0.37481559  0.98710873
   0.51412668  0.87673541  0.98464541
   0.51916524  0.87672854  0.48394846
   0.01021912  0.37228086  0.23185883
   0.98146101  0.37579984  0.73159874
   0.01644706  0.87789236  0.23709066
   0.27032975  0.62542654  0.49478355
   0.76519917  0.12439938  0.99416021
   0.75680327  0.12452220  0.49255164
   0.25003440  0.12556867  0.27042895
   0.26093836  0.62469907  0.25666934
   0.73405575  0.12515313  0.75476891
   0.76627941  0.62420745  0.26834161
   0.23583249  0.37388090  0.01573173
   0.23535188  0.37253947  0.51383651
   0.23644813  0.87685213  0.01121160
   0.23060356  0.87762176  0.51186107
   0.73484513  0.37735241  0.01636321
   0.73183675  0.37669302  0.51849427
   0.73591923  0.87219168  0.01096565
   0.73111328  0.87205980  0.51209121
   0.26693224  0.37447497  0.73444679
   0.23413290  0.87719787  0.23519613
   0.26104834  0.87547143  0.73500894
   0.73954414  0.37309190  0.23188025
   0.76503685  0.37746123  0.73530142
   0.73313409  0.87574111  0.23741918
   0.76360969  0.87237198  0.74098552
 
 position of ions in cartesian coordinates  (Angst):
  15.21899473 15.24351747  0.12673817
  15.14723525 15.11298882  7.62016252
  15.21056387  7.71917859 15.16271445
   0.10625726  7.65675349  7.51938749
   7.72861119  0.12781087  0.03778459
   7.49626766  0.00970856  7.58816785
   7.74503243  7.76652216  0.00262364
   7.65098094  7.50706909  7.75651659
  15.23885515  0.13592820  3.73739848
  15.11481404 15.16168449 11.45253209
   0.10539353  7.59562243  3.92004807
  15.14192421  7.66919722 11.52205814
   7.53264830 15.13578217  3.83375448
   7.48891671 15.17672092 11.47326821
   7.74759703  7.53985035  3.90297074
   7.66884170  7.51493688 11.37269700
  15.17778633  3.88877172 15.14289079
  15.16472893  3.81428139  7.51748185
  15.23412099 11.32265598 15.15807063
   0.04211677 11.55832774  7.56719113
   7.51584428  3.74655337 15.25587269
   7.54087225  3.95358554  7.56606323
   7.66391790 11.38079635  0.14330187
   7.52684634 11.44557012  7.75908038
   0.01810465  3.72280465  3.91443434
   0.09723209  3.82753252 11.50284706
  15.17936103 11.49994817  3.90650970
  15.22552523 11.58145160 11.52438943
   7.50749013  3.90543645  3.85934124
   7.69205888  3.92608946 11.42738703
   7.60115693 11.54145877  3.75488977
   7.64371571 11.55330898 11.38997784
   3.88716451  0.11473788  0.06378929
   3.85968420  0.10782510  7.53041312
   3.89220223  7.70731936 15.15662987
   3.71792522  7.61012552  7.50383066
  11.29061575 15.22641584 15.19507488
  11.48478456 15.19097312  7.52600964
  11.36422198  7.76574281  0.01361696
  11.52518492  7.70898426  7.52477237
   3.95280616  0.04203789  3.69119680
   3.85875975  0.10618001 11.47468344
   3.75018244  7.52851077  3.88873719
   3.79096416  7.70524762 11.53654940
  11.40826921  0.09393929  3.91260378
  11.49640814 15.23094242 11.55534498
  11.38863027  7.58043050  3.97090748
  11.54673074  7.76707640 11.45392946
   3.91796870  3.73393614 15.20010599
   3.91672507  3.72184244  7.55206467
   3.87987977 11.35809088 15.14270306
   3.93994741 11.50630988  7.53587776
  11.53251404  3.87742519 15.16549643
  11.50766156  3.86843905  7.53240433
  11.48076679 11.29139785  0.10188853
  11.42258730 11.29019563  7.73909049
   3.90411397  3.94363165  3.79061470
   3.68529041  3.74131475 11.40787583
   3.95047598 11.45739222  3.87688350
   3.81538077 11.34925935 11.53608924
  11.40491866  3.70356214  3.91475669
  11.32054820  3.87044479 11.51323527
  11.54128802 11.45677511  3.72980565
  11.40601174 11.29141853 11.40201283
  15.02035752  0.17340986  1.87798205
   7.89313512  7.48044170  9.55363775
  15.02655290  7.42896176  5.73971564
  15.13729175  7.43560049 13.34936017
   7.91688152 11.63915419  1.90547630
   7.87387775 11.58678062  9.56438638
   0.20425532  4.02241826  5.70069082
   0.14552567  4.03416452 13.32558093
  15.20020375 11.61992796  5.74712274
  15.11097412 11.63625111 13.35213211
   4.07896243  0.23526136  1.88025024
   4.03884450  7.43372502  5.73503311
   3.95048143  7.40953231 13.34577485
  11.19044149 15.10148440  5.71557039
  11.20830959 15.13171993 13.36925859
  11.69361441  7.32349984  5.75986542
  11.27979702 11.20627781  1.91015817
  11.24085391 11.25030239  9.58030805
   3.88252725 11.62087705  5.72845807
   3.98959533 11.65596058 13.33504815
  11.21736832  3.99468298  5.71706350
  11.29552297  3.97249809 13.34490409
   1.90849771  7.87625172  7.45323681
   9.52765994  0.19800465  0.30655537
   9.56753895  7.87899239 15.07397079
   1.90049556  7.74925647  3.97229673
   9.56942520  7.75704176  4.03826637
   1.89913897  4.03998164 11.18562403
   9.50332619  4.02368027 11.24265646
   5.73348310 15.04894520  7.37854254
  13.32387700 15.04511263  7.48391450
   5.70916768 15.15751435  4.09954268
   5.69283612  0.18175828 11.62822677
  13.32439463  0.20367263 11.61965563
  13.34592886  7.93833686 11.28821206
   5.71798653  4.04012190 15.06132907
   5.71231790  3.99940535  7.30861553
   5.74220360 11.74431190  7.80577678
  13.35907643  4.05094823 15.17234208
  13.33814059  4.00387067  7.47771261
   5.70778334  3.82939713  4.07827405
   5.73938867 11.62009634  3.66828244
  13.36167764 11.66291428  3.68185477
  14.96596270  9.53736280 15.13067965
   7.39698494  1.91338380  0.22165769
   7.41674926  9.54311400  0.20498847
  15.01743706  1.89125801  4.03293956
   0.23645993 13.34980040  7.89005487
   7.86495322  5.72071928  7.37989386
  14.98762980 13.35413806 11.19723027
   7.73865098  5.69821712  4.10687103
   7.39681034  5.72520588 11.62585089
   7.84139070 13.39252596  4.06981090
   7.43406825 13.35663673 11.62950103
   3.98077507  1.90426566 14.94731963
   3.96101764  1.89683013  7.33030810
   4.09922788  9.54402497 15.11638191
  11.80195286  9.52618939 15.03793819
  11.73649416  9.51724975  7.46033709
   3.57929865  1.91574479 11.60415659
   3.57092532  9.53359667 11.58845586
  11.66319479  1.89440717  3.94977643
  11.15660893  9.52117363 11.75416965
   3.72124759  5.69180288  3.54634292
  15.12424697  0.31936795  9.52584957
   0.10354623  7.78611050  1.90137199
   0.16766259  7.82710684  9.54963261
   7.29915264 14.96549668  1.89298433
   7.42758360 15.03450112  9.49949603
   7.83760319  7.39273482  1.93039598
   0.21541337 15.01494442  5.69257985
   0.19885144 15.05674986 13.37506243
   7.91496217  0.34504340  5.72577874
   7.89536313  0.27092269 13.35017225
   7.38806773  7.87821134  5.78300695
   7.40409582  7.80059871 13.35245611
  15.14727964  3.59843441  1.89279499
  15.09883467  3.56593964  9.50822452
   0.15769856 11.33746311  1.89281108
   0.09935071 11.18824315  9.56005192
   7.45630567  4.10208214  1.91787967
   7.32357340  3.98877981  9.49949156
   7.92117331  3.43094552  5.72190213
   7.83608808  3.55232406 13.34259487
   7.51623572 11.25203851  5.76472455
   7.39762428 11.29301654 13.37006716
   3.95514381  0.17688437  9.48608851
   3.73179724  7.80670334  1.88840247
   3.71398726  7.73782619  9.52956361
  11.74404701  0.04827030  1.90355908
  11.52383893  0.09037750  9.53707959
  11.33032844  7.88082420  1.94444440
  11.16553049  7.80845843  9.55032614
   3.50368486 14.99632632  5.67421796
   3.55407156 14.99016336 13.35057828
  11.67738101  7.30838432 13.37415237
   4.01054629  3.48958103  1.89185158
   4.09569118  3.60756634  9.48721642
   3.66882933 11.33909133  1.88491996
   3.66870551 11.33985767  9.53113871
  11.54526788  3.67419215  1.90732390
  11.57315331  3.66232803  9.52683233
   3.44152556  4.07350844  5.69898786
   3.57665670  4.13154267 13.32337025
  11.58142667 11.66641524  5.76098282
  11.71448693 11.67431363 13.36959484
   1.89091149  0.20844116  0.16138821
   1.89120175  0.21726917  7.75701419
   1.91610488  7.84959514 15.16223125
   9.48298793  0.18200482  7.83369021
   9.55042673  7.89194680  7.39788292
   1.90097016  0.20722546  3.60106500
   1.87365177 15.05820927 11.24772127
   1.88592481  7.32397899 11.49807573
   9.51771508  0.21045018  3.49048562
   9.50358143 15.09739135 11.23749789
   9.57051482  7.35199038 11.73882897
   1.91165630  3.61731679  0.15289547
   1.91588201  3.63761375  7.82924124
   1.91845244 11.23482248 15.11053250
   1.93116355 11.13553764  7.59412032
   9.52856623  3.64008486  0.17010602
   9.49515200  3.60726337  7.85102579
   9.57381867 11.22613491 14.93767204
   9.52102591 11.17736664  7.42671549
   1.91754420  3.59636755  3.56757017
   1.90713863 11.27685904  3.86609999
   1.90085693 11.73832700 11.52365429
   9.50207179  3.63127613  3.58511595
   9.58538664 11.23280433  4.06422683
   9.55189043 11.71533572 11.79977962
   5.75247305 14.99733962 14.93817718
   5.77501554  7.32545907  0.18568709
   5.73027299  7.38778902  7.87660852
  13.35278198 15.00496417 15.03099413
  13.34046358  7.29742678  0.20312873
  13.36762082  7.35525269  7.97687963
   5.76911879  7.56622186  3.62079285
   5.74463249  7.90112672 11.25632442
  13.35209376 14.93508694  4.03000216
  13.34816949  7.45994359  3.58528671
   5.74761612 11.78359748  0.23167189
  13.37317422 11.80091245  0.24021208
  13.34012086 11.71178011  7.83451949
   5.70364216  3.61582496 11.64886813
   5.73505364 11.17369504 11.21871283
  13.34306804  4.07364873  3.90417388
  13.33738428  3.62036282 11.51559733
  13.34901892 11.09386908 11.30035483
  15.07822915  1.88638290 15.00368327
  15.12355872  1.87619147  7.36054839
  14.93511964  9.55452329  7.52147116
   7.41914353  1.90542319  7.86240436
   7.39316716  9.51237566  7.80963634
   0.22359101  1.88813371 11.63949197
  15.05816002  9.54256539  3.92253524
   0.32176169  9.56040241 11.62941755
   7.53796422  1.89783316  3.54147549
   7.75491525  1.90771808 11.18860442
   7.54587189  9.52397157  3.66024219
   7.90494536  9.53598604 11.41374662
   0.27923144  5.75085451  0.25051081
   0.22611769  5.71839800  7.89699899
   0.25914088 13.35523908  0.17970735
   7.86508556  5.71889741 15.06120251
   7.84449142 13.37713773 15.02361745
   7.92136931 13.37703296  7.38403540
   0.15592234  5.68022272  3.53767789
  14.97503015  5.73391487 11.16265764
   0.25094755 13.39479046  3.61750459
   4.12466331  9.54269315  7.54935593
  11.67532942  1.89807284 15.16879315
  11.54722562  1.89994680  7.51530168
   3.81499894  1.91591367  4.12617687
   3.98137043  9.53159350  3.91623418
  11.20014635  1.90957349 11.51618555
  11.69181157  9.52409239  4.09432848
   3.59830759  5.70463598  0.24003313
   3.59097455  5.68416854  7.84006403
   3.60770099 13.37891875  0.17106549
   3.51852522 13.39066164  7.80992304
  11.21219067  5.75760381  0.24966819
  11.16628915  5.74754292  7.91113164
  11.22857914 13.30780999  0.16731267
  11.15525052 13.30579783  7.81343447
   4.07282432  5.71370019 11.20611286
   3.57237545 13.38419400  3.58859812
   3.98304851 13.35785210 11.21469009
  11.28388773  5.69259748  3.53800475
  11.67285282  5.75926427 11.21915265
  11.18608380 13.36196692  3.62251715
  11.65107727 13.31056104 11.30588016
 


--------------------------------------------------------------------------------------------------------


 k-point  1 :   0.2500 0.2500 0.2500  plane waves:  149369
 k-point  2 :  -0.2500 0.2500 0.2500  plane waves:  149369
 k-point  3 :   0.2500-0.2500 0.2500  plane waves:  149369
 k-point  4 :  -0.2500-0.2500 0.2500  plane waves:  149369

 maximum and minimum number of plane-waves per node :     18746    18599

 maximum number of plane-waves:    149369
 maximum index in each direction: 
   IXMAX=   33   IYMAX=   33   IZMAX=   32
   IXMIN=  -33   IYMIN=  -33   IZMIN=  -33


 real space projection operators:
  total allocation   :     154150.03 KBytes
  max/ min on nodes  :      20420.53      18089.48


 parallel 3D FFT for wavefunctions:
    minimum data exchange during FFTs selected (reduces bandwidth)
 parallel 3D FFT for charge:
    minimum data exchange during FFTs selected (reduces bandwidth)


 total amount of memory used by VASP MPI-rank0   385121. kBytes
=======================================================================

   base      :      30000. kBytes
   nonlr-proj:      71637. kBytes
   fftplans  :      38725. kBytes
   grid      :      49123. kBytes
   one-center:        995. kBytes
   wavefun   :     194641. kBytes
 
     INWAV:  cpu time  123.8472: real time  170.9977
 Broyden mixing: mesh for mixing (old mesh)
   NGX = 65   NGY = 65   NGZ = 65
  (NGX  =280   NGY  =280   NGZ  =280)
  gives a total of 274625 points

 charge density for first step will be calculated from the start-wavefunctions


--------------------------------------------------------------------------------------------------------


 Maximum index for non-local projection operator         1640
 Maximum index for augmentation-charges         4574 (set IRDMAX)


--------------------------------------------------------------------------------------------------------


 initial charge from wavefunction
 First call to EWALD:  gamma=   0.116
 Maximum number of real-space cells 3x 3x 3
 Maximum number of reciprocal cells 3x 3x 3

    FEWALD:  cpu time    0.0240: real time    0.0246


--------------------------------------- Iteration      1(   1)  ---------------------------------------


    POTLOK:  cpu time    0.7419: real time    0.8260
    SETDIJ:  cpu time    2.4346: real time    2.4453
     EDDAV:  cpu time  127.9585: real time  131.0339
       DOS:  cpu time    0.0030: real time    0.0035
    CHARGE:  cpu time    8.3767: real time    8.3998
    MIXING:  cpu time    0.0860: real time    0.0868
    --------------------------------------------
      LOOP:  cpu time  139.6008: real time  142.7955

 eigenvalue-minimisations  : 12768
 total energy-change (2. order) :-0.1709325E+04  (-0.6684116E-07)
 number of electron    1920.0000026 magnetization       0.0000000
 augmentation part      495.5156410 magnetization      -0.0000000

 Broyden mixing:
  rms(total) = 0.28896E-03    rms(broyden)= 0.27703E-03
  rms(prec ) = 0.36020E-03
  weight for this iteration     100.00

 Free energy of the ion-electron system (eV)
  ---------------------------------------------------
  alpha Z        PSCENC =      6309.13930546
  Ewald energy   TEWEN  =   -106068.15091910
  -Hartree energ DENC   =    -62978.90693442
  -exchange      EXHF   =         0.00000000
  -V(xc)+E(xc)   XCENC  =      8959.12990707
  PAW double counting   =    144141.74055890  -145129.28576478
  entropy T*S    EENTRO =        -0.00000000
  eigenvalues    EBANDS =    -25361.81691299
  atomic energy  EATOM  =    178418.82573015
  Solvation  Ediel_sol  =         0.00000000
  ---------------------------------------------------
  free energy    TOTEN  =     -1709.32502971 eV

  energy without entropy =    -1709.32502971  energy(sigma->0) =    -1709.32502971


--------------------------------------------------------------------------------------------------------




--------------------------------------- Iteration      1(   2)  ---------------------------------------


    POTLOK:  cpu time    0.7779: real time    0.8169
    SETDIJ:  cpu time    2.4226: real time    2.4214
    EDDIAG:  cpu time   36.4495: real time   36.4199
  RMM-DIIS:  cpu time   43.1664: real time   43.2130
    ORTHCH:  cpu time   14.5608: real time   14.5644
       DOS:  cpu time    0.0060: real time    0.0057
    --------------------------------------------
      LOOP:  cpu time   97.3832: real time   97.4412

 eigenvalue-minimisations  : 12612
 total energy-change (2. order) : 0.2077140E-06  (-0.1069457E-06)
 number of electron    1920.0000026 magnetization       0.0000000
 augmentation part      495.5156410 magnetization      -0.0000000

 Free energy of the ion-electron system (eV)
  ---------------------------------------------------
  alpha Z        PSCENC =      6309.13930546
  Ewald energy   TEWEN  =   -106068.15091910
  -Hartree energ DENC   =    -62978.91436117
  -exchange      EXHF   =         0.00000000
  -V(xc)+E(xc)   XCENC  =      8959.12965649
  PAW double counting   =    144141.75757952  -145129.30122329
  entropy T*S    EENTRO =        -0.00000000
  eigenvalues    EBANDS =    -25361.81079757
  atomic energy  EATOM  =    178418.82573015
  Solvation  Ediel_sol  =         0.00000000
  ---------------------------------------------------
  free energy    TOTEN  =     -1709.32502950 eV

  energy without entropy =    -1709.32502950  energy(sigma->0) =    -1709.32502950


--------------------------------------------------------------------------------------------------------




 average (electrostatic) potential at core
  the test charge radii are     1.0397  0.7215  0.7167
  (the norm of the test charge is              1.0000)
       1 -59.2727       2 -58.6576       3 -58.6902       4 -58.4887       5 -58.6884
       6 -59.3067       7 -58.5802       8 -58.7272       9 -58.8736      10 -58.6569
      11 -58.4166      12 -58.6703      13 -58.5223      14 -58.6225      15 -58.6259
      16 -58.6646      17 -58.6038      18 -58.7022      19 -58.6755      20 -58.6154
      21 -58.7315      22 -58.7568      23 -58.4750      24 -58.6077      25 -58.7249
      26 -58.5958      27 -58.6137      28 -58.6603      29 -58.5986      30 -58.5981
      31 -58.2677      32 -58.6236      33 -58.6952      34 -58.9465      35 -58.5985
      36 -58.4345      37 -58.6486      38 -58.7032      39 -58.6177      40 -58.6245
      41 -58.6068      42 -58.6435      43 -58.2076      44 -58.5799      45 -58.6640
      46 -58.6806      47 -58.5813      48 -58.6342      49 -58.7003      50 -58.8261
      51 -58.5816      52 -58.5519      53 -58.6157      54 -58.6633      55 -58.6010
      56 -58.6976      57 -58.4553      58 -58.5771      59 -58.4444      60 -58.5735
      61 -58.6373      62 -58.6033      63 -58.6167      64 -58.6591      65 -74.3694
      66 -74.0216      67 -73.6879      68 -73.8390      69 -73.6787      70 -73.8054
      71 -73.8836      72 -73.7987      73 -73.8466      74 -73.8950      75 -74.0311
      76 -73.6158      77 -73.7241      78 -73.8879      79 -73.8772      80 -73.9731
      81 -73.8378      82 -73.8721      83 -73.7342      84 -73.7685      85 -73.8364
      86 -73.8000      87 -73.8455      88 -74.0676      89 -73.9562      90 -73.6227
      91 -73.7770      92 -73.7942      93 -73.8104      94 -74.2431      95 -73.9234
      96 -73.9924      97 -73.8512      98 -73.8786      99 -73.9995     100 -73.8975
     101 -73.9694     102 -73.9308     103 -73.8195     104 -73.8606     105 -73.9479
     106 -73.6279     107 -73.7723     108 -74.0555     109 -73.8921     110 -73.7815
     111 -74.1312     112 -73.9827     113 -74.1171     114 -74.0075     115 -73.8070
     116 -73.8569     117 -73.7358     118 -73.8648     119 -73.8653     120 -74.1611
     121 -73.7717     122 -73.9846     123 -74.0035     124 -73.7883     125 -73.7570
     126 -73.9831     127 -74.0105     128 -73.8332     129 -79.0725     130 -78.2475
     131 -78.2648     132 -79.2570     133 -79.4032     134 -78.9384     135 -78.9931
     136 -78.9330     137 -79.4190     138 -79.2593     139 -78.7965     140 -78.8240
     141 -78.2809     142 -78.3313     143 -78.3624     144 -78.3908     145 -79.2411
     146 -79.2569     147 -79.2901     148 -79.2074     149 -78.2245     150 -78.2060
     151 -79.0775     152 -78.1865     153 -78.1863     154 -78.4002     155 -78.3475
     156 -78.7884     157 -78.8179     158 -78.9447     159 -78.8337     160 -78.9972
     161 -79.1953     162 -79.2316     163 -78.2739     164 -78.2694     165 -78.3111
     166 -78.3214     167 -79.2399     168 -79.1653     169 -78.2634     170 -78.3118
     171 -79.2194     172 -78.5298     173 -78.9329     174 -78.4532     175 -79.0153
     176 -78.9145     177 -78.3421     178 -78.7505     179 -78.8720     180 -78.3293
     181 -78.8167     182 -78.3598     183 -78.3249     184 -79.2025     185 -78.7834
     186 -78.3115     187 -78.3774     188 -79.1453     189 -78.8257     190 -78.8874
     191 -78.1659     192 -79.1980     193 -78.8365     194 -78.2220     195 -79.2134
     196 -78.8930     197 -78.7726     198 -78.7756     199 -79.0978     200 -78.8070
     201 -78.7810     202 -78.1729     203 -78.9368     204 -79.1122     205 -78.2053
     206 -79.1140     207 -79.2172     208 -78.9845     209 -78.2621     210 -79.1665
     211 -79.0297     212 -78.2398     213 -79.2535     214 -79.2062     215 -78.7988
     216 -78.7765     217 -79.0685     218 -78.8947     219 -78.7718     220 -78.9296
     221 -78.7494     222 -78.2489     223 -78.3375     224 -78.2308     225 -78.3130
     226 -78.8704     227 -78.9526     228 -79.0544     229 -78.2571     230 -78.2857
     231 -79.2224     232 -78.8090     233 -78.9308     234 -78.8342     235 -78.9312
     236 -78.9901     237 -78.9789     238 -78.7919     239 -78.6923     240 -78.9705
     241 -78.9356     242 -78.2451     243 -78.8135     244 -78.2391     245 -78.8493
     246 -78.8165     247 -78.8527     248 -78.8533     249 -78.8251     250 -78.2376
     251 -78.9585     252 -78.1921     253 -78.7846     254 -78.8341     255 -78.7969
     256 -78.8311
 
 
 
 E-fermi :  -0.4474     XC(G=0):  -9.2534     alpha+bet : -7.9583


 spin component 1

 k-point     1 :       0.2500    0.2500    0.2500
  band No.  band energies     occupation 
      1     -35.2973      1.00000
      2     -35.2582      1.00000
      3     -35.2418      1.00000
      4     -35.2245      1.00000
      5     -35.0928      1.00000
      6     -35.0665      1.00000
      7     -34.9307      1.00000
      8     -34.8718      1.00000
      9     -34.8509      1.00000
     10     -34.8087      1.00000
     11     -34.7970      1.00000
     12     -34.7728      1.00000
     13     -34.7679      1.00000
     14     -34.7652      1.00000
     15     -34.7389      1.00000
     16     -34.7353      1.00000
     17     -34.7325      1.00000
     18     -34.7293      1.00000
     19     -34.7244      1.00000
     20     -34.7243      1.00000
     21     -34.7236      1.00000
     22     -34.7012      1.00000
     23     -34.6965      1.00000
     24     -34.6921      1.00000
     25     -34.6880      1.00000
     26     -34.6855      1.00000
     27     -34.6837      1.00000
     28     -34.6835      1.00000
     29     -34.6776      1.00000
     30     -34.6728      1.00000
     31     -34.6710      1.00000
     32     -34.6614      1.00000
     33     -34.6593      1.00000
     34     -34.6582      1.00000
     35     -34.6569      1.00000
     36     -34.6527      1.00000
     37     -34.6510      1.00000
     38     -34.6483      1.00000
     39     -34.6453      1.00000
     40     -34.6421      1.00000
     41     -34.6402      1.00000
     42     -34.6358      1.00000
     43     -34.6356      1.00000
     44     -34.6318      1.00000
     45     -34.6301      1.00000
     46     -34.6276      1.00000
     47     -34.6242      1.00000
     48     -34.6213      1.00000
     49     -34.6191      1.00000
     50     -34.6169      1.00000
     51     -34.6151      1.00000
     52     -34.6077      1.00000
     53     -34.6074      1.00000
     54     -34.6065      1.00000
     55     -34.6052      1.00000
     56     -34.6044      1.00000
     57     -34.6012      1.00000
     58     -34.6002      1.00000
     59     -34.5968      1.00000
     60     -34.5953      1.00000
     61     -34.5925      1.00000
     62     -34.5924      1.00000
     63     -34.5921      1.00000
     64     -34.5890      1.00000
     65     -34.5883      1.00000
     66     -34.5852      1.00000
     67     -34.5842      1.00000
     68     -34.5833      1.00000
     69     -34.5821      1.00000
     70     -34.5806      1.00000
     71     -34.5789      1.00000
     72     -34.5775      1.00000
     73     -34.5720      1.00000
     74     -34.5693      1.00000
     75     -34.5685      1.00000
     76     -34.5672      1.00000
     77     -34.5649      1.00000
     78     -34.5646      1.00000
     79     -34.5645      1.00000
     80     -34.5620      1.00000
     81     -34.5603      1.00000
     82     -34.5586      1.00000
     83     -34.5513      1.00000
     84     -34.5492      1.00000
     85     -34.5485      1.00000
     86     -34.5476      1.00000
     87     -34.5469      1.00000
     88     -34.5413      1.00000
     89     -34.5406      1.00000
     90     -34.5394      1.00000
     91     -34.5373      1.00000
     92     -34.5363      1.00000
     93     -34.5331      1.00000
     94     -34.5283      1.00000
     95     -34.5252      1.00000
     96     -34.5247      1.00000
     97     -34.5222      1.00000
     98     -34.5209      1.00000
     99     -34.5176      1.00000
    100     -34.5161      1.00000
    101     -34.5143      1.00000
    102     -34.5124      1.00000
    103     -34.5110      1.00000
    104     -34.5082      1.00000
    105     -34.5077      1.00000
    106     -34.5072      1.00000
    107     -34.5044      1.00000
    108     -34.5036      1.00000
    109     -34.5012      1.00000
    110     -34.4987      1.00000
    111     -34.4963      1.00000
    112     -34.4933      1.00000
    113     -34.4928      1.00000
    114     -34.4918      1.00000
    115     -34.4907      1.00000
    116     -34.4900      1.00000
    117     -34.4882      1.00000
    118     -34.4876      1.00000
    119     -34.4865      1.00000
    120     -34.4822      1.00000
    121     -34.4807      1.00000
    122     -34.4795      1.00000
    123     -34.4792      1.00000
    124     -34.4785      1.00000
    125     -34.4778      1.00000
    126     -34.4746      1.00000
    127     -34.4736      1.00000
    128     -34.4731      1.00000
    129     -34.4728      1.00000
    130     -34.4706      1.00000
    131     -34.4692      1.00000
    132     -34.4676      1.00000
    133     -34.4663      1.00000
    134     -34.4642      1.00000
    135     -34.4602      1.00000
    136     -34.4596      1.00000
    137     -34.4593      1.00000
    138     -34.4582      1.00000
    139     -34.4566      1.00000
    140     -34.4520      1.00000
    141     -34.4495      1.00000
    142     -34.4464      1.00000
    143     -34.4443      1.00000
    144     -34.4437      1.00000
    145     -34.4427      1.00000
    146     -34.4409      1.00000
    147     -34.4399      1.00000
    148     -34.4392      1.00000
    149     -34.4379      1.00000
    150     -34.4329      1.00000
    151     -34.4289      1.00000
    152     -34.4257      1.00000
    153     -34.4253      1.00000
    154     -34.4217      1.00000
    155     -34.4212      1.00000
    156     -34.4207      1.00000
    157     -34.4171      1.00000
    158     -34.4114      1.00000
    159     -34.4108      1.00000
    160     -34.4104      1.00000
    161     -34.4101      1.00000
    162     -34.4053      1.00000
    163     -34.4022      1.00000
    164     -34.4000      1.00000
    165     -34.3967      1.00000
    166     -34.3943      1.00000
    167     -34.3929      1.00000
    168     -34.3906      1.00000
    169     -34.3878      1.00000
    170     -34.3837      1.00000
    171     -34.3762      1.00000
    172     -34.3742      1.00000
    173     -34.3708      1.00000
    174     -34.3669      1.00000
    175     -34.3587      1.00000
    176     -34.3569      1.00000
    177     -34.3433      1.00000
    178     -34.3338      1.00000
    179     -34.3280      1.00000
    180     -34.3124      1.00000
    181     -34.3040      1.00000
    182     -34.2947      1.00000
    183     -34.2677      1.00000
    184     -34.2671      1.00000
    185     -34.2632      1.00000
    186     -34.2383      1.00000
    187     -34.1500      1.00000
    188     -34.1303      1.00000
    189     -34.1211      1.00000
    190     -34.1057      1.00000
    191     -34.0740      1.00000
    192     -34.0606      1.00000
    193     -23.2740      1.00000
    194     -23.1392      1.00000
    195     -23.1198      1.00000
    196     -23.1027      1.00000
    197     -23.0995      1.00000
    198     -23.0741      1.00000
    199     -23.0433      1.00000
    200     -23.0001      1.00000
    201     -22.9623      1.00000
    202     -22.9613      1.00000
    203     -22.9579      1.00000
    204     -22.9402      1.00000
    205     -22.9181      1.00000
    206     -22.8963      1.00000
    207     -22.8848      1.00000
    208     -22.8686      1.00000
    209     -22.8617      1.00000
    210     -22.8536      1.00000
    211     -22.8355      1.00000
    212     -22.8206      1.00000
    213     -22.8094      1.00000
    214     -22.7926      1.00000
    215     -22.7833      1.00000
    216     -22.7752      1.00000
    217     -22.7725      1.00000
    218     -22.7650      1.00000
    219     -22.7537      1.00000
    220     -22.7460      1.00000
    221     -22.7400      1.00000
    222     -22.7318      1.00000
    223     -22.7282      1.00000
    224     -22.7228      1.00000
    225     -22.7158      1.00000
    226     -22.7117      1.00000
    227     -22.7052      1.00000
    228     -22.6985      1.00000
    229     -22.6951      1.00000
    230     -22.6749      1.00000
    231     -22.6664      1.00000
    232     -22.6543      1.00000
    233     -22.6382      1.00000
    234     -22.6316      1.00000
    235     -22.6239      1.00000
    236     -22.6205      1.00000
    237     -22.6142      1.00000
    238     -22.5818      1.00000
    239     -22.5673      1.00000
    240     -22.5580      1.00000
    241     -22.5539      1.00000
    242     -22.5344      1.00000
    243     -22.5295      1.00000
    244     -22.5113      1.00000
    245     -22.5001      1.00000
    246     -22.4914      1.00000
    247     -22.4873      1.00000
    248     -22.4829      1.00000
    249     -22.4752      1.00000
    250     -22.4690      1.00000
    251     -22.4624      1.00000
    252     -22.4578      1.00000
    253     -22.4497      1.00000
    254     -22.4405      1.00000
    255     -22.4367      1.00000
    256     -22.4303      1.00000
    257     -22.4188      1.00000
    258     -22.4074      1.00000
    259     -22.4027      1.00000
    260     -22.4008      1.00000
    261     -22.3919      1.00000
    262     -22.3709      1.00000
    263     -22.3647      1.00000
    264     -22.3613      1.00000
    265     -22.3588      1.00000
    266     -22.3514      1.00000
    267     -22.3480      1.00000
    268     -22.3399      1.00000
    269     -22.3377      1.00000
    270     -22.3274      1.00000
    271     -22.3259      1.00000
    272     -22.3217      1.00000
    273     -22.3202      1.00000
    274     -22.3146      1.00000
    275     -22.3051      1.00000
    276     -22.3041      1.00000
    277     -22.2987      1.00000
    278     -22.2855      1.00000
    279     -22.1601      1.00000
    280     -22.1355      1.00000
    281     -22.0710      1.00000
    282     -22.0631      1.00000
    283     -22.0604      1.00000
    284     -22.0429      1.00000
    285     -22.0407      1.00000
    286     -22.0372      1.00000
    287     -22.0311      1.00000
    288     -22.0302      1.00000
    289     -22.0114      1.00000
    290     -22.0095      1.00000
    291     -22.0074      1.00000
    292     -21.9980      1.00000
    293     -21.9790      1.00000
    294     -21.9720      1.00000
    295     -21.9613      1.00000
    296     -21.9571      1.00000
    297     -21.9512      1.00000
    298     -21.9474      1.00000
    299     -21.9446      1.00000
    300     -21.9393      1.00000
    301     -21.9327      1.00000
    302     -21.9274      1.00000
    303     -21.9223      1.00000
    304     -21.9156      1.00000
    305     -21.9086      1.00000
    306     -21.9036      1.00000
    307     -21.8997      1.00000
    308     -21.8717      1.00000
    309     -21.8667      1.00000
    310     -21.8621      1.00000
    311     -21.8606      1.00000
    312     -21.8412      1.00000
    313     -21.8213      1.00000
    314     -21.8196      1.00000
    315     -21.8164      1.00000
    316     -21.8060      1.00000
    317     -21.7993      1.00000
    318     -21.7938      1.00000
    319     -21.7816      1.00000
    320     -21.7522      1.00000
    321     -16.8563      1.00000
    322     -16.7686      1.00000
    323     -16.6784      1.00000
    324     -16.6258      1.00000
    325     -16.6232      1.00000
    326     -16.6191      1.00000
    327     -16.6118      1.00000
    328     -16.6019      1.00000
    329     -16.5978      1.00000
    330     -16.5769      1.00000
    331     -16.5686      1.00000
    332     -16.5606      1.00000
    333     -16.5469      1.00000
    334     -16.5311      1.00000
    335     -16.5279      1.00000
[...]
   79        1.569   3.467   0.000   5.037
   80        1.571   3.470   0.000   5.041
   81        1.569   3.463   0.000   5.032
   82        1.568   3.465   0.000   5.033
   83        1.569   3.468   0.000   5.037
   84        1.570   3.468   0.000   5.037
   85        1.569   3.464   0.000   5.033
   86        1.569   3.467   0.000   5.035
   87        1.570   3.474   0.000   5.044
   88        1.572   3.474   0.000   5.046
   89        1.570   3.475   0.000   5.046
   90        1.569   3.467   0.000   5.037
   91        1.570   3.467   0.000   5.037
   92        1.570   3.464   0.000   5.035
   93        1.570   3.466   0.000   5.036
   94        1.570   3.456   0.000   5.026
   95        1.568   3.466   0.000   5.034
   96        1.570   3.473   0.000   5.043
   97        1.570   3.468   0.000   5.038
   98        1.570   3.466   0.000   5.036
   99        1.571   3.473   0.000   5.044
  100        1.571   3.466   0.000   5.037
  101        1.569   3.464   0.000   5.033
  102        1.571   3.474   0.000   5.044
  103        1.570   3.469   0.000   5.039
  104        1.569   3.465   0.000   5.034
  105        1.570   3.478   0.000   5.048
  106        1.569   3.465   0.000   5.034
  107        1.570   3.466   0.000   5.036
  108        1.571   3.475   0.000   5.046
  109        1.569   3.464   0.000   5.034
  110        1.569   3.464   0.000   5.034
  111        1.572   3.472   0.000   5.044
  112        1.572   3.470   0.000   5.042
  113        1.571   3.472   0.000   5.043
  114        1.571   3.471   0.000   5.042
  115        1.569   3.465   0.000   5.034
  116        1.571   3.467   0.000   5.038
  117        1.571   3.462   0.000   5.033
  118        1.570   3.468   0.000   5.039
  119        1.570   3.462   0.000   5.032
  120        1.571   3.474   0.000   5.045
  121        1.569   3.464   0.000   5.032
  122        1.571   3.470   0.000   5.042
  123        1.571   3.474   0.000   5.045
  124        1.569   3.464   0.000   5.034
  125        1.569   3.465   0.000   5.034
  126        1.570   3.474   0.000   5.045
  127        1.572   3.472   0.000   5.044
  128        1.572   3.474   0.000   5.046
  129        1.730   4.383   0.000   6.113
  130        1.729   4.377   0.000   6.106
  131        1.729   4.376   0.000   6.105
  132        1.731   4.385   0.000   6.116
  133        1.730   4.388   0.000   6.119
  134        1.730   4.383   0.000   6.112
  135        1.730   4.382   0.000   6.112
  136        1.730   4.380   0.000   6.110
  137        1.731   4.382   0.000   6.113
  138        1.731   4.386   0.000   6.117
  139        1.731   4.379   0.000   6.110
  140        1.731   4.383   0.000   6.113
  141        1.729   4.373   0.000   6.102
  142        1.729   4.374   0.000   6.103
  143        1.729   4.376   0.000   6.105
  144        1.730   4.376   0.000   6.105
  145        1.730   4.388   0.000   6.119
  146        1.730   4.388   0.000   6.118
  147        1.732   4.382   0.000   6.114
  148        1.731   4.387   0.000   6.117
  149        1.729   4.375   0.000   6.104
  150        1.729   4.372   0.000   6.101
  151        1.729   4.383   0.000   6.112
  152        1.730   4.377   0.000   6.106
  153        1.729   4.376   0.000   6.106
  154        1.729   4.373   0.000   6.102
  155        1.729   4.375   0.000   6.104
  156        1.730   4.380   0.000   6.110
  157        1.730   4.377   0.000   6.107
  158        1.731   4.377   0.000   6.108
  159        1.731   4.378   0.000   6.109
  160        1.730   4.380   0.000   6.111
  161        1.730   4.386   0.000   6.116
  162        1.730   4.387   0.000   6.117
  163        1.729   4.377   0.000   6.106
  164        1.730   4.377   0.000   6.107
  165        1.730   4.378   0.000   6.108
  166        1.730   4.377   0.000   6.107
  167        1.731   4.385   0.000   6.116
  168        1.731   4.384   0.000   6.116
  169        1.729   4.371   0.000   6.100
  170        1.729   4.372   0.000   6.101
  171        1.730   4.384   0.000   6.114
  172        1.730   4.376   0.000   6.106
  173        1.729   4.383   0.000   6.112
  174        1.730   4.373   0.000   6.103
  175        1.730   4.381   0.000   6.111
  176        1.730   4.380   0.000   6.111
  177        1.729   4.373   0.000   6.102
  178        1.730   4.379   0.000   6.109
  179        1.730   4.378   0.000   6.108
  180        1.729   4.373   0.000   6.102
  181        1.730   4.378   0.000   6.109
  182        1.729   4.374   0.000   6.103
  183        1.729   4.371   0.000   6.100
  184        1.730   4.389   0.000   6.119
  185        1.730   4.379   0.000   6.109
  186        1.729   4.372   0.000   6.101
  187        1.729   4.371   0.000   6.100
  188        1.730   4.384   0.000   6.114
  189        1.731   4.380   0.000   6.111
  190        1.731   4.383   0.000   6.113
  191        1.729   4.374   0.000   6.103
  192        1.731   4.390   0.000   6.121
  193        1.731   4.382   0.000   6.113
  194        1.730   4.374   0.000   6.103
  195        1.732   4.386   0.000   6.118
  196        1.731   4.377   0.000   6.107
  197        1.731   4.378   0.000   6.109
  198        1.730   4.379   0.000   6.109
  199        1.731   4.376   0.000   6.107
  200        1.731   4.378   0.000   6.109
  201        1.731   4.374   0.000   6.105
  202        1.729   4.375   0.000   6.104
  203        1.730   4.381   0.000   6.111
  204        1.730   4.379   0.000   6.109
  205        1.730   4.374   0.000   6.104
  206        1.731   4.385   0.000   6.116
  207        1.731   4.385   0.000   6.116
  208        1.730   4.382   0.000   6.112
  209        1.729   4.372   0.000   6.101
  210        1.731   4.387   0.000   6.117
  211        1.730   4.384   0.000   6.114
  212        1.729   4.372   0.000   6.100
  213        1.731   4.388   0.000   6.118
  214        1.730   4.381   0.000   6.111
  215        1.730   4.380   0.000   6.110
  216        1.730   4.379   0.000   6.109
  217        1.731   4.378   0.000   6.109
  218        1.730   4.383   0.000   6.113
  219        1.730   4.380   0.000   6.110
  220        1.730   4.385   0.000   6.115
  221        1.730   4.377   0.000   6.107
  222        1.729   4.373   0.000   6.102
  223        1.729   4.373   0.000   6.101
  224        1.729   4.374   0.000   6.103
  225        1.729   4.371   0.000   6.100
  226        1.731   4.380   0.000   6.111
  227        1.730   4.381   0.000   6.111
  228        1.731   4.379   0.000   6.110
  229        1.729   4.370   0.000   6.099
  230        1.729   4.371   0.000   6.100
  231        1.731   4.378   0.000   6.109
  232        1.731   4.383   0.000   6.113
  233        1.730   4.380   0.000   6.110
  234        1.731   4.382   0.000   6.113
  235        1.729   4.383   0.000   6.112
  236        1.729   4.383   0.000   6.112
  237        1.729   4.385   0.000   6.115
  238        1.731   4.381   0.000   6.112
  239        1.730   4.384   0.000   6.115
  240        1.730   4.386   0.000   6.116
  241        1.730   4.382   0.000   6.112
  242        1.729   4.368   0.000   6.097
  243        1.730   4.381   0.000   6.111
  244        1.729   4.371   0.000   6.099
  245        1.731   4.379   0.000   6.109
  246        1.731   4.381   0.000   6.111
  247        1.731   4.378   0.000   6.109
  248        1.730   4.383   0.000   6.113
  249        1.731   4.380   0.000   6.111
  250        1.729   4.371   0.000   6.100
  251        1.730   4.383   0.000   6.114
  252        1.729   4.371   0.000   6.100
  253        1.731   4.381   0.000   6.111
  254        1.730   4.381   0.000   6.111
  255        1.731   4.381   0.000   6.111
  256        1.730   4.380   0.000   6.110
--------------------------------------------------
tot        342.3471195.994 112.8251651.166
 


 magnetization (x)
 
# of ion       s       p       d       tot
------------------------------------------
    1        0.000  -0.000   0.000   0.000
    2        0.000   0.000  -0.000   0.000
    3        0.000  -0.000   0.000   0.000
    4       -0.000   0.000   0.000   0.000
    5        0.000   0.000   0.000   0.000
    6        0.000  -0.000   0.000  -0.000
    7       -0.000   0.000  -0.000  -0.000
    8        0.000   0.000  -0.000  -0.000
    9       -0.000  -0.000  -0.000  -0.000
   10       -0.000  -0.000  -0.000  -0.000
   11       -0.000  -0.000   0.000   0.000
   12       -0.000   0.000  -0.000  -0.000
   13       -0.000   0.000  -0.000  -0.000
   14        0.000   0.000   0.000   0.000
   15        0.000   0.000   0.000   0.000
   16        0.000  -0.000  -0.000  -0.000
   17        0.000   0.000   0.000   0.000
   18       -0.000  -0.000  -0.000  -0.000
   19        0.000  -0.000  -0.000  -0.000
   20        0.000   0.000   0.000   0.000
   21       -0.000  -0.000   0.000  -0.000
   22       -0.000  -0.000  -0.000  -0.000
   23       -0.000  -0.000   0.000   0.000
   24        0.000   0.000   0.000   0.000
   25       -0.000  -0.000  -0.000  -0.000
   26        0.000   0.000   0.000   0.000
   27       -0.000  -0.000  -0.000  -0.000
   28       -0.000  -0.000  -0.000  -0.000
   29        0.000   0.000  -0.000  -0.000
   30        0.000  -0.000   0.000  -0.000
   31        0.000   0.000   0.000   0.000
   32        0.000  -0.000   0.000   0.000
   33       -0.000   0.000   0.000   0.000
   34        0.000   0.000  -0.000   0.000
   35        0.000  -0.000  -0.000  -0.000
   36        0.000  -0.000   0.000   0.000
   37        0.000   0.000   0.000   0.000
   38       -0.000   0.000  -0.000  -0.000
   39        0.000   0.000   0.000   0.000
   40        0.000   0.000   0.000   0.000
   41        0.000   0.000  -0.000  -0.000
   42        0.000   0.000  -0.000   0.000
   43        0.000   0.000   0.000   0.000
   44        0.000  -0.000   0.000  -0.000
   45        0.000   0.000  -0.000  -0.000
   46        0.000  -0.000   0.000   0.000
   47        0.000  -0.000   0.000   0.000
   48        0.000   0.000   0.000   0.000
   49        0.000  -0.000   0.000   0.000
   50        0.000  -0.000  -0.000   0.000
   51        0.000  -0.000  -0.000  -0.000
   52        0.000   0.000   0.000   0.000
   53        0.000   0.000   0.000   0.000
   54        0.000   0.000   0.000   0.000
   55        0.000  -0.000   0.000   0.000
   56        0.000   0.000   0.000   0.000
   57       -0.000  -0.000  -0.000  -0.000
   58        0.000   0.000  -0.000   0.000
   59       -0.000  -0.000  -0.000  -0.000
   60       -0.000  -0.000  -0.000  -0.000
   61        0.000   0.000  -0.000  -0.000
   62        0.000   0.000   0.000   0.000
   63        0.000   0.000  -0.000   0.000
   64       -0.000   0.000   0.000   0.000
   65        0.000  -0.000   0.000  -0.000
   66       -0.000   0.000   0.000   0.000
   67       -0.000  -0.000   0.000  -0.000
   68       -0.000  -0.000   0.000  -0.000
   69       -0.000  -0.000   0.000  -0.000
   70       -0.000  -0.000   0.000  -0.000
   71        0.000   0.000   0.000   0.000
   72        0.000  -0.000   0.000  -0.000
   73        0.000  -0.000   0.000   0.000
   74       -0.000   0.000   0.000   0.000
   75       -0.000   0.000   0.000  -0.000
   76       -0.000  -0.000   0.000  -0.000
   77        0.000   0.000   0.000   0.000
   78       -0.000  -0.000   0.000  -0.000
   79        0.000  -0.000   0.000  -0.000
   80       -0.000  -0.000   0.000  -0.000
   81       -0.000  -0.000   0.000  -0.000
   82        0.000  -0.000   0.000  -0.000
   83       -0.000  -0.000   0.000  -0.000
   84       -0.000   0.000   0.000   0.000
   85       -0.000  -0.000   0.000  -0.000
   86        0.000  -0.000   0.000  -0.000
   87       -0.000  -0.000   0.000  -0.000
   88        0.000  -0.000   0.000   0.000
   89        0.000   0.000   0.000   0.000
   90       -0.000  -0.000   0.000  -0.000
   91       -0.000   0.000   0.000   0.000
   92       -0.000  -0.000   0.000  -0.000
   93       -0.000  -0.000   0.000  -0.000
   94        0.000  -0.000   0.000  -0.000
   95       -0.000  -0.000   0.000  -0.000
   96       -0.000   0.000   0.000   0.000
   97       -0.000  -0.000   0.000  -0.000
   98        0.000   0.000   0.000   0.000
   99       -0.000  -0.000   0.000  -0.000
  100        0.000  -0.000   0.000  -0.000
  101       -0.000  -0.000   0.000  -0.000
  102        0.000  -0.000   0.000  -0.000
  103       -0.000   0.000   0.000  -0.000
  104        0.000   0.000   0.000   0.000
  105       -0.000   0.000   0.000   0.000
  106       -0.000  -0.000   0.000  -0.000
  107        0.000  -0.000   0.000  -0.000
  108       -0.000  -0.000   0.000  -0.000
  109        0.000  -0.000   0.000  -0.000
  110       -0.000  -0.000   0.000  -0.000
  111       -0.000   0.000   0.000   0.000
  112        0.000   0.000   0.000   0.000
  113        0.000   0.000   0.000   0.000
  114       -0.000   0.000   0.000   0.000
  115       -0.000  -0.000   0.000  -0.000
  116       -0.000   0.000   0.000   0.000
  117       -0.000  -0.000   0.000  -0.000
  118       -0.000  -0.000   0.000  -0.000
  119       -0.000  -0.000   0.000  -0.000
  120       -0.000   0.000   0.000   0.000
  121       -0.000  -0.000   0.000  -0.000
  122        0.000  -0.000   0.000  -0.000
  123       -0.000  -0.000   0.000  -0.000
  124       -0.000   0.000   0.000  -0.000
  125        0.000   0.000   0.000   0.000
  126       -0.000  -0.000   0.000  -0.000
  127       -0.000  -0.000   0.000  -0.000
  128        0.000   0.000   0.000   0.000
  129        0.000  -0.000   0.000   0.000
  130        0.000  -0.000   0.000   0.000
  131       -0.000  -0.000   0.000  -0.000
  132        0.000  -0.000   0.000   0.000
  133        0.000  -0.000   0.000  -0.000
  134        0.000   0.000   0.000   0.000
  135        0.000   0.000   0.000   0.000
  136        0.000   0.000   0.000   0.000
  137       -0.000   0.000   0.000  -0.000
  138       -0.000   0.000   0.000   0.000
  139       -0.000   0.000   0.000   0.000
  140       -0.000  -0.000   0.000  -0.000
  141        0.000   0.000   0.000   0.000
  142        0.000   0.000   0.000   0.000
  143        0.000   0.000   0.000   0.000
  144       -0.000  -0.000   0.000  -0.000
  145        0.000  -0.000   0.000   0.000
  146        0.000  -0.000   0.000   0.000
  147        0.000  -0.000   0.000   0.000
  148        0.000  -0.000   0.000   0.000
  149        0.000  -0.000   0.000  -0.000
  150        0.000   0.000   0.000   0.000
  151        0.000  -0.000   0.000  -0.000
  152        0.000  -0.000   0.000   0.000
  153       -0.000   0.000   0.000   0.000
  154        0.000   0.000   0.000   0.000
  155        0.000   0.000   0.000   0.000
  156       -0.000   0.000   0.000  -0.000
  157       -0.000  -0.000   0.000  -0.000
  158       -0.000   0.000   0.000  -0.000
  159       -0.000   0.000   0.000  -0.000
  160       -0.000   0.000   0.000   0.000
  161        0.000   0.000   0.000   0.000
  162        0.000   0.000   0.000   0.000
  163        0.000   0.000   0.000   0.000
  164        0.000  -0.000   0.000   0.000
  165        0.000   0.000   0.000   0.000
  166       -0.000  -0.000   0.000  -0.000
  167       -0.000   0.000   0.000   0.000
  168       -0.000  -0.000   0.000  -0.000
  169        0.000   0.000   0.000   0.000
  170       -0.000  -0.000   0.000  -0.000
  171       -0.000   0.000   0.000   0.000
  172       -0.000   0.000   0.000  -0.000
  173       -0.000  -0.000   0.000  -0.000
  174        0.000   0.000   0.000   0.000
  175        0.000  -0.000   0.000   0.000
  176        0.000  -0.000   0.000   0.000
  177       -0.000  -0.000   0.000  -0.000
  178        0.000  -0.000   0.000   0.000
  179        0.000   0.000   0.000   0.000
  180        0.000  -0.000   0.000   0.000
  181        0.000   0.000   0.000   0.000
  182       -0.000   0.000   0.000  -0.000
  183       -0.000   0.000   0.000   0.000
  184        0.000   0.000   0.000   0.000
  185       -0.000   0.000   0.000  -0.000
  186        0.000   0.000   0.000   0.000
  187       -0.000  -0.000   0.000  -0.000
  188        0.000   0.000   0.000   0.000
  189       -0.000  -0.000   0.000  -0.000
  190        0.000  -0.000   0.000  -0.000
  191        0.000   0.000   0.000   0.000
  192        0.000  -0.000   0.000  -0.000
  193        0.000   0.000   0.000   0.000
  194        0.000   0.000   0.000   0.000
  195        0.000  -0.000   0.000  -0.000
  196       -0.000   0.000   0.000  -0.000
  197        0.000   0.000   0.000   0.000
  198       -0.000  -0.000   0.000  -0.000
  199       -0.000   0.000   0.000  -0.000
  200        0.000  -0.000   0.000  -0.000
  201       -0.000  -0.000   0.000  -0.000
  202        0.000  -0.000   0.000  -0.000
  203        0.000  -0.000   0.000   0.000
  204       -0.000  -0.000   0.000  -0.000
  205        0.000   0.000   0.000   0.000
  206       -0.000   0.000   0.000   0.000
  207        0.000  -0.000   0.000  -0.000
  208       -0.000  -0.000   0.000  -0.000
  209        0.000   0.000   0.000   0.000
  210       -0.000   0.000   0.000   0.000
  211        0.000   0.000   0.000   0.000
  212       -0.000  -0.000   0.000  -0.000
  213        0.000  -0.000   0.000   0.000
  214       -0.000  -0.000   0.000  -0.000
  215        0.000   0.000   0.000   0.000
  216        0.000   0.000   0.000   0.000
  217        0.000  -0.000   0.000   0.000
  218        0.000  -0.000   0.000  -0.000
  219       -0.000   0.000   0.000  -0.000
  220       -0.000   0.000   0.000   0.000
  221       -0.000   0.000   0.000  -0.000
  222       -0.000  -0.000   0.000  -0.000
  223       -0.000  -0.000   0.000  -0.000
  224        0.000  -0.000   0.000  -0.000
  225        0.000  -0.000   0.000   0.000
  226       -0.000  -0.000   0.000  -0.000
  227        0.000   0.000   0.000   0.000
  228        0.000  -0.000   0.000   0.000
  229       -0.000  -0.000   0.000  -0.000
  230        0.000   0.000   0.000   0.000
  231        0.000  -0.000   0.000  -0.000
  232       -0.000  -0.000   0.000  -0.000
  233       -0.000   0.000   0.000  -0.000
  234       -0.000  -0.000   0.000  -0.000
  235       -0.000  -0.000   0.000  -0.000
  236        0.000  -0.000   0.000  -0.000
  237       -0.000  -0.000   0.000  -0.000
  238        0.000   0.000   0.000   0.000
  239       -0.000  -0.000   0.000  -0.000
  240       -0.000  -0.000   0.000  -0.000
  241        0.000   0.000   0.000   0.000
  242       -0.000  -0.000   0.000  -0.000
  243       -0.000   0.000   0.000   0.000
  244       -0.000   0.000   0.000   0.000
  245       -0.000  -0.000   0.000  -0.000
  246       -0.000  -0.000   0.000  -0.000
  247        0.000  -0.000   0.000   0.000
  248       -0.000  -0.000   0.000  -0.000
  249       -0.000   0.000   0.000   0.000
  250       -0.000   0.000   0.000   0.000
  251       -0.000  -0.000   0.000  -0.000
  252        0.000  -0.000   0.000   0.000
  253       -0.000   0.000   0.000   0.000
  254       -0.000  -0.000   0.000  -0.000
  255        0.000   0.000   0.000   0.000
  256       -0.000  -0.000   0.000  -0.000
--------------------------------------------------
tot         -0.000  -0.000   0.000  -0.000
 

 total amount of memory used by VASP MPI-rank0   385121. kBytes
=======================================================================

   base      :      30000. kBytes
   nonlr-proj:      71637. kBytes
   fftplans  :      38725. kBytes
   grid      :      49123. kBytes
   one-center:        995. kBytes
   wavefun   :     194641. kBytes
 
  
  
 General timing and accounting informations for this job:
 ========================================================
  
                  Total CPU time used (sec):      975.998
                            User time (sec):      898.274
                          System time (sec):       77.723
                         Elapsed time (sec):     1051.639
  
                   Maximum memory used (kb):      702204.
                   Average memory used (kb):           0.
  
                          Minor page faults:        42766
                          Major page faults:            2
                 Voluntary context switches:       459326
