 vasp.5.4.4.18Apr17-6-g9f103f2a35 (build Apr 30 2017 20:10:35) complex          
  
 executed on             LinuxIFC date 2017.08.10  09:17:16
 running on   64 total cores
 distrk:  each k-point on   64 cores,    1 groups
 distr:  one band on NCORES_PER_BAND=   8 cores,    8 groups


--------------------------------------------------------------------------------------------------------


 INCAR:
 POTCAR:   PAW_PBE Ti_pv 07Sep2000                
 POTCAR:   PAW_PBE O 08Apr2002                    
 POTCAR:    PAW_PBE F 08Apr2002                   
 POTCAR:   PAW_PBE Ti_pv 07Sep2000                
   VRHFIN =Ti: d3 s1                                                            
   LEXCH  = PE                                                                  
   EATOM  =  1042.3781 eV,   76.6126 Ry                                         
                                                                                
   TITEL  = PAW_PBE Ti_pv 07Sep2000                                             
   LULTRA =        F    use ultrasoft PP ?                                      
   IUNSCR =        1    unscreen: 0-lin 1-nonlin 2-no                           
   RPACOR =    2.200    partial core radius                                     
   POMASS =   47.880; ZVAL   =   10.000    mass and valenz                      
   RCORE  =    2.500    outmost cutoff radius                                   
   RWIGS  =    2.500; RWIGS  =    1.323    wigner-seitz radius (au A)           
   ENMAX  =  222.338; ENMIN  =  166.753 eV                                      
   RCLOC  =    1.701    cutoff for local pot                                    
   LCOR   =        T    correct aug charges                                     
   LPAW   =        T    paw PP                                                  
   EAUG   =  482.848                                                            
   DEXC   =    -.008                                                            
   RMAX   =    3.092    core radius for proj-oper                               
   RAUG   =    1.300    factor for augmentation sphere                          
   RDEP   =    2.538    radius for radial grids                                 
   QCUT   =   -4.042; QGAM   =    8.085    optimization parameters              
                                                                                
   Description                                                                  
     l     E      TYP  RCUT    TYP  RCUT                                        
     1   .000     23  2.300                                                     
     1  -.100     23  2.300                                                     
     2   .000     23  2.500                                                     
     2   .000     23  2.500                                                     
     0   .000     23  2.500                                                     
     0  1.500     23  2.500                                                     
     3   .000      7   .000                                                     
  local pseudopotential read in
  partial core-charges read in
  atomic valenz-charges read in
  non local Contribution for L=           1  read in
    real space projection operators read in
  non local Contribution for L=           1  read in
    real space projection operators read in
  non local Contribution for L=           2  read in
    real space projection operators read in
  non local Contribution for L=           2  read in
    real space projection operators read in
  non local Contribution for L=           0  read in
    real space projection operators read in
  non local Contribution for L=           0  read in
    real space projection operators read in
    PAW grid and wavefunctions read in
 
   number of l-projection  operators is LMAX  =           6
   number of lm-projection operators is LMMAX =          18
 
 POTCAR:   PAW_PBE O 08Apr2002                    
   VRHFIN =O: s2p4                                                              
   LEXCH  = PE                                                                  
   EATOM  =   432.3788 eV,   31.7789 Ry                                         
                                                                                
   TITEL  = PAW_PBE O 08Apr2002                                                 
   LULTRA =        F    use ultrasoft PP ?                                      
   IUNSCR =        0    unscreen: 0-lin 1-nonlin 2-no                           
   RPACOR =     .000    partial core radius                                     
   POMASS =   16.000; ZVAL   =    6.000    mass and valenz                      
   RCORE  =    1.520    outmost cutoff radius                                   
   RWIGS  =    1.550; RWIGS  =     .820    wigner-seitz radius (au A)           
   ENMAX  =  400.000; ENMIN  =  300.000 eV                                      
   ICORE  =        2    local potential                                         
   LCOR   =        T    correct aug charges                                     
   LPAW   =        T    paw PP                                                  
   EAUG   =  605.392                                                            
   DEXC   =     .000                                                            
   RMAX   =    2.264    core radius for proj-oper                               
   RAUG   =    1.300    factor for augmentation sphere                          
   RDEP   =    1.550    radius for radial grids                                 
   QCUT   =   -5.520; QGAM   =   11.041    optimization parameters              
                                                                                
   Description                                                                  
     l     E      TYP  RCUT    TYP  RCUT                                        
     0   .000     23  1.200                                                     
     0  -.700     23  1.200                                                     
     1   .000     23  1.520                                                     
     1   .600     23  1.520                                                     
     2   .000      7  1.500                                                     
  local pseudopotential read in
  atomic valenz-charges read in
  non local Contribution for L=           0  read in
    real space projection operators read in
  non local Contribution for L=           0  read in
    real space projection operators read in
  non local Contribution for L=           1  read in
    real space projection operators read in
  non local Contribution for L=           1  read in
    real space projection operators read in
    PAW grid and wavefunctions read in
 
   number of l-projection  operators is LMAX  =           4
   number of lm-projection operators is LMMAX =           8
 
 POTCAR:    PAW_PBE F 08Apr2002                   
   VRHFIN =F: s2p5                                                              
   LEXCH  = PE                                                                  
   EATOM  =   659.6475 eV,   48.4827 Ry                                         
                                                                                
   TITEL  = PAW_PBE F 08Apr2002                                                 
   LULTRA =        F    use ultrasoft PP ?                                      
   IUNSCR =        1    unscreen: 0-lin 1-nonlin 2-no                           
   RPACOR =    1.200    partial core radius                                     
   POMASS =   18.998; ZVAL   =    7.000    mass and valenz                      
   RCORE  =    1.520    outmost cutoff radius                                   
   RWIGS  =    1.500; RWIGS  =    0.794    wigner-seitz radius (au A)           
   ENMAX  =  400.000; ENMIN  =  300.000 eV                                      
   ICORE  =        2    local potential                                         
   LCOR   =        T    correct aug charges                                     
   LPAW   =        T    paw PP                                                  
   EAUG   =  613.614                                                            
   RMAX   =    1.555    core radius for proj-oper                               
   RAUG   =    1.300    factor for augmentation sphere                          
   RDEP   =    1.539    radius for radial grids                                 
   RDEPT  =    1.299    core radius for aug-charge                              
                                                                                
   Atomic configuration                                                         
    4 entries                                                                   
     n  l   j            E        occ.                                          
     1  0  0.50      -663.3661   2.0000                                         
     2  0  0.50       -29.8995   2.0000                                         
     2  1  0.50       -11.1114   5.0000                                         
     3  2  1.50       -10.8847   0.0000                                         
   Description                                                                  
     l       E           TYP  RCUT    TYP  RCUT                                 
     0    -29.8995018     23  1.200                                             
     0     -9.5240782     23  1.200                                             
     1    -11.1113914     23  1.520                                             
     1      1.3605826     23  1.520                                             
     2    -10.8846608      7  1.500                                             
  local pseudopotential read in
  partial core-charges read in
  partial kinetic energy density read in
  atomic valenz-charges read in
  non local Contribution for L=           0  read in
    real space projection operators read in
  non local Contribution for L=           0  read in
    real space projection operators read in
  non local Contribution for L=           1  read in
    real space projection operators read in
  non local Contribution for L=           1  read in
    real space projection operators read in
    PAW grid and wavefunctions read in
 
   number of l-projection  operators is LMAX  =           4
   number of lm-projection operators is LMMAX =           8
 
 Optimization of the real space projectors (new method)

 maximal supplied QI-value         = 15.12
 optimisation between [QCUT,QGAM] = [ 13.45, 27.06] = [ 50.69,205.06] Ry 
 Optimized for a Real-space Cutoff    1.49 Angstroem

   l    n(q)    QCUT    max X(q) W(low)/X(q) W(high)/X(q)  e(spline) 
   1     12    13.455     4.841    0.13E-05    0.83E-06    0.56E-07
   1     12    13.455     5.701    0.32E-04    0.25E-04    0.17E-06
   2     11    13.455     4.569    0.64E-05    0.34E-05    0.50E-07
   2     11    13.455    32.276    0.49E-04    0.38E-04    0.46E-06
   0     12    13.455    30.046    0.17E-04    0.41E-05    0.51E-07
   0     12    13.455    45.433    0.12E-04    0.27E-04    0.38E-06
 Optimization of the real space projectors (new method)

 maximal supplied QI-value         = 24.76
 optimisation between [QCUT,QGAM] = [ 13.37, 26.98] = [ 50.04,203.89] Ry 
 Optimized for a Real-space Cutoff    1.17 Angstroem

   l    n(q)    QCUT    max X(q) W(low)/X(q) W(high)/X(q)  e(spline) 
   0      9    13.368     4.192    0.20E-04    0.58E-05    0.56E-07
   0      9    13.368     8.473    0.60E-04    0.52E-04    0.21E-06
   1      9    13.368     2.474    0.22E-04    0.17E-04    0.28E-07
   1      9    13.368     3.912    0.94E-04    0.97E-04    0.20E-06
 Optimization of the real space projectors (new method)

 maximal supplied QI-value         = 24.76
 optimisation between [QCUT,QGAM] = [ 13.37, 26.98] = [ 50.04,203.89] Ry 
 Optimized for a Real-space Cutoff    1.17 Angstroem

   l    n(q)    QCUT    max X(q) W(low)/X(q) W(high)/X(q)  e(spline) 
   0      9    13.368    14.049    0.39E-04    0.34E-04    0.16E-06
   0      9    13.368     8.945    0.54E-04    0.47E-04    0.20E-06
   1      9    13.368     7.086    0.99E-04    0.10E-03    0.23E-06
   1      9    13.368     6.747    0.86E-04    0.89E-04    0.21E-06

 ----------------------------------------------------------------------------- 
|                                                                             |
|  ADVICE TO THIS USER RUNNING 'VASP/VAMP'   (HEAR YOUR MASTER'S VOICE ...):  |
|                                                                             |
|      You enforced a specific xc-type in the INCAR file,                     |
|      a different type was found on the POTCAR file                          |
|          I HOPE YOU KNOW, WHAT YOU ARE  DOING                               |
|                                                                             |
 ----------------------------------------------------------------------------- 

 PAW_PBE Ti_pv 07Sep2000                :
 energy of atom  1       EATOM=-1042.3781
 kinetic energy error for atom=    0.0006 (will be added to EATOM!!)
 PAW_PBE O 08Apr2002                    :
 energy of atom  2       EATOM= -432.3788
 kinetic energy error for atom=    0.0091 (will be added to EATOM!!)
  PAW_PBE F 08Apr2002                   :
 energy of atom  3       EATOM= -659.6475
 kinetic energy error for atom=    0.0140 (will be added to EATOM!!)
 
 
 POSCAR: TiOF2 2x2x2 config 0297                 
  positions in direct lattice
  velocities in cartesian coordinates
 exchange correlation table for  LEXCH =       14
   RHO(1)=    0.500       N(1)  =     2000
   RHO(2)=  100.500       N(2)  =     4000

 VTST: version 3.1, (03/28/14)

 CHAIN: initializing optimizer
 
 OPT: Using VASP QUASI-newton optimizer
 CHAIN: Read ICHAIN            0
 
 POSCAR: TiOF2 2x2x2 config 0297                 
  positions in direct lattice
  velocities in cartesian coordinates
 


--------------------------------------------------------------------------------------------------------


 ion  position               nearest neighbor table
   1  0.000  0.988  0.988-  13 1.83  10 1.83  17 1.97  21 1.97  25 2.01  29 2.01
   2  1.000  0.012  0.512-  13 1.83   9 1.83  22 1.97  18 1.97  29 2.01  26 2.01
   3  1.000  0.512  0.012-  14 1.83  10 1.83  23 1.97  19 1.97  25 2.01  30 2.01
   4  0.000  0.488  0.488-  14 1.83   9 1.83  20 1.97  24 1.97  30 2.01  26 2.01
   5  0.500  0.988  0.988-  15 1.83  12 1.83  21 1.97  17 1.97  31 2.01  27 2.01
   6  0.500  0.012  0.512-  15 1.83  11 1.83  18 1.97  22 1.97  31 2.01  28 2.01
   7  0.500  0.512  0.012-  16 1.83  12 1.83  19 1.97  23 1.97  32 2.01  27 2.01
   8  0.500  0.488  0.488-  16 1.83  11 1.83  24 1.97  20 1.97  32 2.01  28 2.01
   9  0.000  0.250  0.500-   2 1.83   4 1.83
  10  0.000  0.750  1.000-   3 1.83   1 1.83
  11  0.500  0.250  0.500-   8 1.83   6 1.83
  12  0.500  0.750  1.000-   5 1.83   7 1.83
  13  1.000  1.000  0.750-   2 1.83   1 1.83
  14  1.000  0.500  0.250-   3 1.83   4 1.83
  15  0.500  0.000  0.750-   5 1.83   6 1.83
  16  0.500  0.500  0.250-   8 1.83   7 1.83
  17  0.250  0.007  0.007-   1 1.97   5 1.97
  18  0.250  0.993  0.493-   6 1.97   2 1.97
  19  0.250  0.493  0.993-   3 1.97   7 1.97
  20  0.250  0.507  0.507-   4 1.97   8 1.97
  21  0.750  0.007  0.007-   1 1.97   5 1.97
  22  0.750  0.993  0.493-   2 1.97   6 1.97
  23  0.750  0.493  0.993-   3 1.97   7 1.97
  24  0.750  0.507  0.507-   4 1.97   8 1.97
  25  0.000  0.250  1.000-   1 2.01   3 2.01
  26  0.000  0.750  0.500-   4 2.01   2 2.01
  27  0.500  0.250  1.000-   7 2.01   5 2.01
  28  0.500  0.750  0.500-   6 2.01   8 2.01
  29  0.000  1.000  0.250-   1 2.01   2 2.01
  30  0.000  0.500  0.750-   4 2.01   3 2.01
  31  0.500  1.000  0.250-   6 2.01   5 2.01
  32  0.500  0.500  0.750-   7 2.01   8 2.01
 

IMPORTANT INFORMATION: All symmetrisations will be switched off!
NOSYMM: (Re-)initialisation of all symmetry stuff for point group C_1.

 
 
 KPOINTS: Title                                   

Automatic generation of k-mesh.
Space group operators:
 irot       det(A)        alpha          n_x          n_y          n_z        tau_x        tau_y        tau_z
    1     1.000000     0.000001     1.000000     0.000000     0.000000     0.000000     0.000000     0.000000
 
 Subroutine IBZKPT returns following result:
 ===========================================
 
 Found     32 irreducible k-points:
 
 Following reciprocal coordinates:
            Coordinates               Weight
  0.125000  0.125000  0.125000      2.000000
  0.375000  0.125000  0.125000      2.000000
 -0.375000  0.125000  0.125000      2.000000
 -0.125000  0.125000  0.125000      2.000000
  0.125000  0.375000  0.125000      2.000000
  0.375000  0.375000  0.125000      2.000000
 -0.375000  0.375000  0.125000      2.000000
 -0.125000  0.375000  0.125000      2.000000
  0.125000 -0.375000  0.125000      2.000000
  0.375000 -0.375000  0.125000      2.000000
 -0.375000 -0.375000  0.125000      2.000000
 -0.125000 -0.375000  0.125000      2.000000
  0.125000 -0.125000  0.125000      2.000000
  0.375000 -0.125000  0.125000      2.000000
 -0.375000 -0.125000  0.125000      2.000000
 -0.125000 -0.125000  0.125000      2.000000
  0.125000  0.125000  0.375000      2.000000
  0.375000  0.125000  0.375000      2.000000
 -0.375000  0.125000  0.375000      2.000000
 -0.125000  0.125000  0.375000      2.000000
  0.125000  0.375000  0.375000      2.000000
  0.375000  0.375000  0.375000      2.000000
 -0.375000  0.375000  0.375000      2.000000
 -0.125000  0.375000  0.375000      2.000000
  0.125000 -0.375000  0.375000      2.000000
  0.375000 -0.375000  0.375000      2.000000
 -0.375000 -0.375000  0.375000      2.000000
 -0.125000 -0.375000  0.375000      2.000000
  0.125000 -0.125000  0.375000      2.000000
  0.375000 -0.125000  0.375000      2.000000
 -0.375000 -0.125000  0.375000      2.000000
 -0.125000 -0.125000  0.375000      2.000000
 
 Following cartesian coordinates:
            Coordinates               Weight
  0.015934  0.016301  0.016301      2.000000
  0.047802  0.016301  0.016301      2.000000
 -0.047802  0.016301  0.016301      2.000000
 -0.015934  0.016301  0.016301      2.000000
  0.015934  0.048920  0.016282      2.000000
  0.047802  0.048920  0.016282      2.000000
 -0.047802  0.048920  0.016282      2.000000
 -0.015934  0.048920  0.016282      2.000000
  0.015934 -0.048939  0.016337      2.000000
  0.047802 -0.048939  0.016337      2.000000
 -0.047802 -0.048939  0.016337      2.000000
 -0.015934 -0.048939  0.016337      2.000000
  0.015934 -0.016319  0.016319      2.000000
  0.047802 -0.016319  0.016319      2.000000
 -0.047802 -0.016319  0.016319      2.000000
 -0.015934 -0.016319  0.016319      2.000000
  0.015934  0.016282  0.048921      2.000000
  0.047802  0.016282  0.048921      2.000000
 -0.047802  0.016282  0.048921      2.000000
 -0.015934  0.016282  0.048921      2.000000
  0.015934  0.048902  0.048902      2.000000
  0.047802  0.048902  0.048902      2.000000
 -0.047802  0.048902  0.048902      2.000000
 -0.015934  0.048902  0.048902      2.000000
  0.015934 -0.048957  0.048957      2.000000
  0.047802 -0.048957  0.048957      2.000000
 -0.047802 -0.048957  0.048957      2.000000
 -0.015934 -0.048957  0.048957      2.000000
  0.015934 -0.016337  0.048939      2.000000
  0.047802 -0.016337  0.048939      2.000000
 -0.047802 -0.016337  0.048939      2.000000
 -0.015934 -0.016337  0.048939      2.000000
 


--------------------------------------------------------------------------------------------------------




 Dimension of arrays:
   k-points           NKPTS =     32   k-points in BZ     NKDIM =     32   number of bands    NBANDS=    160
   number of dos      NEDOS =   3001   number of ions     NIONS =     32
   non local maximal  LDIM  =      6   non local SUM 2l+1 LMDIM =     18
   total plane-waves  NPLWV = 343000
   max r-space proj   IRMAX =  10320   max aug-charges    IRDMAX= 231371
   dimension x,y,z NGX =    70 NGY =   70 NGZ =   70
   dimension x,y,z NGXF=   140 NGYF=  140 NGZF=  140
   support grid    NGXF=   280 NGYF=  280 NGZF=  280
   ions per type =               8   8  16
   NGX,Y,Z   is equivalent  to a cutoff of  14.83, 15.18, 15.18 a.u.
   NGXF,Y,Z  is equivalent  to a cutoff of  29.67, 30.37, 30.37 a.u.

 SYSTEM =  LTO                                     
 POSCAR =  TiOF2 2x2x2 config 0297                 

 Startparameter for this run:
   NWRITE =      2    write-flag & timer
   PREC   = accura    normal or accurate (medium, high low for compatibility)
   ISTART =      1    job   : 0-new  1-cont  2-samecut
   ICHARG =      0    charge: 1-file 2-atom 10-const
   ISPIN  =      2    spin polarized calculation?
   LNONCOLLINEAR =      F non collinear calculations
   LSORBIT =      F    spin-orbit coupling
   INIWAV =      1    electr: 0-lowe 1-rand  2-diag
   LASPH  =      T    aspherical Exc in radial PAW
   METAGGA=      F    non-selfconsistent MetaGGA calc.

 Electronic Relaxation 1
   ENCUT  =  700.0 eV  51.45 Ry    7.17 a.u.  16.92 16.53 16.53*2*pi/ulx,y,z
   ENINI  =  700.0     initial cutoff
   ENAUG  =  613.6 eV  augmentation charge cutoff
   NELM   =     60;   NELMIN=  2; NELMDL=  0     # of ELM steps 
   EDIFF  = 0.1E-05   stopping-criterion for ELM
   LREAL  =      T    real-space projection
   NLSPLINE    = F    spline interpolate recip. space projectors
   LCOMPAT=      F    compatible to vasp.4.4
   GGA_COMPAT  = T    GGA compatible to vasp.4.4-vasp.4.6
   LMAXPAW     = -100 max onsite density
   LMAXMIX     =    4 max onsite mixed and CHGCAR
   VOSKOWN=      0    Vosko Wilk Nusair interpolation
   ROPT   =   -0.00010  -0.00010  -0.00010
 Ionic relaxation
   EDIFFG = -.1E-01   stopping-criterion for IOM
   NSW    =    100    number of steps for IOM
   NBLOCK =      1;   KBLOCK =    100    inner block; outer block 
   IBRION =      1    ionic relax: 0-MD 1-quasi-New 2-CG
   NFREE  =      0    steps in history (QN), initial steepest desc. (CG)
   ISIF   =      3    stress and relaxation
   IWAVPR =     11    prediction:  0-non 1-charg 2-wave 3-comb
   ISYM   =      0    0-nonsym 1-usesym 2-fastsym
   LCORR  =      T    Harris-Foulkes like correction to forces

   POTIM  = 0.5000    time-step for ionic-motion
   TEIN   =    0.0    initial temperature
   TEBEG  =    0.0;   TEEND  =   0.0 temperature during run
   SMASS  =  -3.00    Nose mass-parameter (am)
   estimated Nose-frequenzy (Omega)   =  0.10E-29 period in steps =****** mass=  -0.141E-26a.u.
   SCALEE = 1.0000    scale energy and forces
   NPACO  =    256;   APACO  = 16.0  distance and # of slots for P.C.
   PSTRESS=    0.0 pullay stress

  Mass of Ions in am
   POMASS =  47.88 16.00 19.00
  Ionic Valenz
   ZVAL   =  10.00  6.00  7.00
  Atomic Wigner-Seitz radii
   RWIGS  =  -1.00 -1.00 -1.00
  virtual crystal weights 
   VCA    =   1.00  1.00  1.00
   NELECT =     240.0000    total number of electrons
   NUPDOWN=      -1.0000    fix difference up-down

 DOS related values:
   EMIN   =  10.00;   EMAX   =-10.00  energy-range for DOS
   EFERMI =   0.00
   ISMEAR =     0;   SIGMA  =   0.01  broadening in eV -4-tet -1-fermi 0-gaus

 Electronic relaxation 2 (details)
   IALGO  =     38    algorithm
   LDIAG  =      T    sub-space diagonalisation (order eigenvalues)
   LSUBROT=      F    optimize rotation matrix (better conditioning)
   TURBO    =      0    0=normal 1=particle mesh
   IRESTART =      0    0=no restart 2=restart with 2 vectors
   NREBOOT  =      0    no. of reboots
   NMIN     =      0    reboot dimension
   EREF     =   0.00    reference energy to select bands
   IMIX   =      4    mixing-type and parameters
     AMIX     =   0.40;   BMIX     =  1.00
     AMIX_MAG =   1.60;   BMIX_MAG =  1.00
     AMIN     =   0.10
     WC   =   100.;   INIMIX=   1;  MIXPRE=   1;  MAXMIX= -45

 Intra band minimization:
   WEIMIN = 0.0010     energy-eigenvalue tresh-hold
   EBREAK =  0.16E-08  absolut break condition
   DEPER  =   0.30     relativ break condition  

   TIME   =   0.40     timestep for ELM

  volume/ion in A,a.u.               =      14.40        97.17
  Fermi-wavevector in a.u.,A,eV,Ry     =   1.317178  2.489106 23.605548  1.734959
  Thomas-Fermi vector in A             =   2.447238
 
 Write flags
   LWAVE        =      T    write WAVECAR
   LDOWNSAMPLE  =      F    k-point downsampling of WAVECAR
   LCHARG       =      T    write CHGCAR
   LVTOT        =      F    write LOCPOT, total local potential
   LVHAR        =      F    write LOCPOT, Hartree potential only
   LELF         =      F    write electronic localiz. function (ELF)
   LORBIT       =     11    0 simple, 1 ext, 2 COOP (PROOUT), +10 PAW based schemes


 Dipole corrections
   LMONO  =      F    monopole corrections only (constant potential shift)
   LDIPOL =      F    correct potential (dipole corrections)
   IDIPOL =      0    1-x, 2-y, 3-z, 4-all directions 
   EPSILON=  1.0000000 bulk dielectric constant

 LDA+U is selected, type is set to LDAUTYPE =  2
   angular momentum for each species LDAUL =     2   -1   -1
   U (eV)           for each species LDAUU =   4.2  0.0  0.0
   J (eV)           for each species LDAUJ =   0.0  0.0  0.0
 Exchange correlation treatment:
   GGA     =    PS    GGA type
   LEXCH   =    14    internal setting for exchange type
   VOSKOWN=      0    Vosko Wilk Nusair interpolation
   LHFCALC =     F    Hartree Fock is set to
   LHFONE  =     F    Hartree Fock one center treatment
   AEXX    =    0.0000 exact exchange contribution

 Linear response parameters
   LEPSILON=     F    determine dielectric tensor
   LRPA    =     F    only Hartree local field effects (RPA)
   LNABLA  =     F    use nabla operator in PAW spheres
   LVEL    =     F    velocity operator in full k-point grid
   LINTERFAST=   F  fast interpolation
   KINTER  =     0    interpolate to denser k-point grid
   CSHIFT  =0.1000    complex shift for real part using Kramers Kronig
   OMEGAMAX=  -1.0    maximum frequency
   DEG_THRESHOLD= 0.2000000E-02 threshold for treating states as degnerate
   RTIME   =   -0.100 relaxation time in fs
  (WPLASMAI=    0.000 imaginary part of plasma frequency in eV, 0.658/RTIME)
   DFIELD  = 0.0000000 0.0000000 0.0000000 field for delta impulse in time
 
 Orbital magnetization related:
   ORBITALMAG=     F  switch on orbital magnetization
   LCHIMAG   =     F  perturbation theory with respect to B field
   DQ        =  0.001000  dq finite difference perturbation B field
   LLRAUG    =     F  two centre corrections for induced B field



--------------------------------------------------------------------------------------------------------


 quasi-Newton-method for relaxation of ions
 charge density and potential will be updated during run
 spin polarized calculation
 Variant of blocked Davidson
 Davidson routine will perform the subspace rotation
 perform sub-space diagonalisation
    after iterative eigenvector-optimisation
 modified Broyden-mixing scheme, WC =      100.0
 initial mixing is a Kerker type mixing with AMIX =  0.4000 and BMIX =      1.0000
 Hartree-type preconditioning will be used
 using additional bands           40
 real space projection scheme for non local part
 use partial core corrections
 calculate Harris-corrections to forces 
   (improved forces if not selfconsistent)
 use gradient corrections 
 use of overlap-Matrix (Vanderbilt PP)
 Gauss-broadening in eV      SIGMA  =   0.01


--------------------------------------------------------------------------------------------------------


  energy-cutoff  :      700.00
  volume of cell :      460.79
      direct lattice vectors                 reciprocal lattice vectors
     7.844831412 -0.000000030 -0.000000015     0.127472465  0.000000001  0.000000000
    -0.000000035  7.664070285  0.004310245     0.000000000  0.130479012 -0.000073374
    -0.000000009  0.004309809  7.664061913     0.000000000 -0.000073381  0.130479154

  length of vectors
     7.844831412  7.664071497  7.664063125     0.127472465  0.130479032  0.130479175


 
 old parameters found on file WAVECAR:
  energy-cutoff  :      700.00
  volume of cell :      438.28
      direct lattice vectors                 reciprocal lattice vectors
     7.596000000  0.000000000  0.000000000     0.131648236  0.000000000  0.000000000
     0.000000000  7.596000000  0.000000000     0.000000000  0.131648236  0.000000000
     0.000000000  0.000000000  7.596000000     0.000000000  0.000000000  0.131648236

  length of vectors

 
 k-points in units of 2pi/SCALE and weight: Title                                   
   0.01593406  0.01630070  0.01630072       0.031
   0.04780217  0.01630070  0.01630072       0.031
  -0.04780217  0.01630070  0.01630072       0.031
  -0.01593406  0.01630070  0.01630072       0.031
   0.01593406  0.04892046  0.01628238       0.031
   0.04780217  0.04892046  0.01628238       0.031
  -0.04780217  0.04892046  0.01628238       0.031
  -0.01593406  0.04892046  0.01628238       0.031
   0.01593406 -0.04893880  0.01633741       0.031
   0.04780217 -0.04893880  0.01633741       0.031
  -0.04780217 -0.04893880  0.01633741       0.031
  -0.01593406 -0.04893880  0.01633741       0.031
   0.01593406 -0.01631905  0.01631907       0.031
   0.04780217 -0.01631905  0.01631907       0.031
  -0.04780217 -0.01631905  0.01631907       0.031
  -0.01593406 -0.01631905  0.01631907       0.031
   0.01593406  0.01628236  0.04892051       0.031
   0.04780217  0.01628236  0.04892051       0.031
  -0.04780217  0.01628236  0.04892051       0.031
  -0.01593406  0.01628236  0.04892051       0.031
   0.01593406  0.04890211  0.04890217       0.031
   0.04780217  0.04890211  0.04890217       0.031
  -0.04780217  0.04890211  0.04890217       0.031
  -0.01593406  0.04890211  0.04890217       0.031
   0.01593406 -0.04895715  0.04895720       0.031
   0.04780217 -0.04895715  0.04895720       0.031
  -0.04780217 -0.04895715  0.04895720       0.031
  -0.01593406 -0.04895715  0.04895720       0.031
   0.01593406 -0.01633739  0.04893885       0.031
   0.04780217 -0.01633739  0.04893885       0.031
  -0.04780217 -0.01633739  0.04893885       0.031
  -0.01593406 -0.01633739  0.04893885       0.031
 
 k-points in reciprocal lattice and weights: Title                                   
   0.12500000  0.12500000  0.12500000       0.031
   0.37500000  0.12500000  0.12500000       0.031
  -0.37500000  0.12500000  0.12500000       0.031
  -0.12500000  0.12500000  0.12500000       0.031
   0.12500000  0.37500000  0.12500000       0.031
   0.37500000  0.37500000  0.12500000       0.031
  -0.37500000  0.37500000  0.12500000       0.031
  -0.12500000  0.37500000  0.12500000       0.031
   0.12500000 -0.37500000  0.12500000       0.031
   0.37500000 -0.37500000  0.12500000       0.031
  -0.37500000 -0.37500000  0.12500000       0.031
  -0.12500000 -0.37500000  0.12500000       0.031
   0.12500000 -0.12500000  0.12500000       0.031
   0.37500000 -0.12500000  0.12500000       0.031
  -0.37500000 -0.12500000  0.12500000       0.031
  -0.12500000 -0.12500000  0.12500000       0.031
   0.12500000  0.12500000  0.37500000       0.031
   0.37500000  0.12500000  0.37500000       0.031
  -0.37500000  0.12500000  0.37500000       0.031
  -0.12500000  0.12500000  0.37500000       0.031
   0.12500000  0.37500000  0.37500000       0.031
   0.37500000  0.37500000  0.37500000       0.031
  -0.37500000  0.37500000  0.37500000       0.031
  -0.12500000  0.37500000  0.37500000       0.031
   0.12500000 -0.37500000  0.37500000       0.031
   0.37500000 -0.37500000  0.37500000       0.031
  -0.37500000 -0.37500000  0.37500000       0.031
  -0.12500000 -0.37500000  0.37500000       0.031
   0.12500000 -0.12500000  0.37500000       0.031
   0.37500000 -0.12500000  0.37500000       0.031
  -0.37500000 -0.12500000  0.37500000       0.031
  -0.12500000 -0.12500000  0.37500000       0.031
 
 position of ions in fractional coordinates (direct lattice) 
   0.00000000  0.98787478  0.98787448
   1.00000000  0.01212536  0.51212561
   1.00000000  0.51212535  0.01212564
   0.00000000  0.48787475  0.48787449
   0.50000000  0.98787455  0.98787428
   0.50000000  0.01212520  0.51212550
   0.50000000  0.51212521  0.01212549
   0.50000000  0.48787457  0.48787429
   0.00000000  0.24999977  0.49999995
   0.00000000  0.74999978  0.99999996
   0.50000000  0.25000019  0.50000000
   0.50000000  0.75000019  1.00000000
   1.00000000  0.99999997  0.74999974
   1.00000000  0.49999994  0.24999980
   0.50000000  0.00000001  0.75000015
   0.50000000  0.49999999  0.25000023
   0.25000000  0.00744505  0.00744500
   0.24999999  0.99255517  0.49255518
   0.24999998  0.49255505  0.99255509
   0.24999999  0.50744496  0.50744496
   0.75000001  0.00744505  0.00744500
   0.75000001  0.99255517  0.49255517
   0.75000001  0.49255505  0.99255509
   0.75000001  0.50744496  0.50744496
   0.00000000  0.24999996  0.99999998
   0.00000000  0.74999995  0.49999998
   0.50000000  0.25000007  0.99999996
   0.50000000  0.75000008  0.49999997
   0.00000000  1.00000000  0.24999999
   0.00000000  0.49999996  0.74999992
   0.50000000  0.99999997  0.25000009
   0.50000000  0.49999995  0.75000006
 
 position of ions in cartesian coordinates  (Angst):
  -0.00000001  7.57539932  7.57538914
   7.84483137  0.09513672  3.92501462
   7.84483136  3.92501692  0.09513901
   0.00000001  3.74120901  3.74120319
   3.92241570  7.57539748  7.57538764
   3.92241567  0.09513555  3.92501379
   3.92241566  3.92501585  0.09513788
   3.92241572  3.74120759  3.74120159
  -0.00000001  1.91817069  3.83310815
  -0.00000003  5.75236084  7.66729427
   3.92241569  1.91817388  3.83310853
   3.92241567  5.75236394  7.66729457
   7.84483137  7.66730241  5.75235471
   7.84483139  3.83311208  1.91816906
   3.92241570  0.00323242  5.74804755
   3.92241569  3.83311254  1.91817237
   1.96120786  0.05709146  0.05709102
   1.96120770  7.60913542  3.77925151
   1.96120769  3.77925424  7.60912670
   1.96120778  3.89128082  3.89127677
   5.88362361  0.05709145  0.05709104
   5.88362357  7.60913538  3.77925148
   5.88362361  3.77925420  7.60912667
   5.88362364  3.89128081  3.89127678
  -0.00000002  1.92032709  7.66513931
  -0.00000003  5.75020724  3.83526349
   3.92241569  1.92032788  7.66513917
   3.92241567  5.75020825  3.83526337
  -0.00000003  7.66514770  1.92032564
  -0.00000002  3.83526723  5.75020096
   3.92241566  7.66514747  1.92032642
   3.92241568  3.83526713  5.75020201
 


--------------------------------------------------------------------------------------------------------


 k-point  1 :   0.1250 0.1250 0.1250  plane waves:   19386
 k-point  2 :   0.3750 0.1250 0.1250  plane waves:   19393
 k-point  3 :  -0.3750 0.1250 0.1250  plane waves:   19393
 k-point  4 :  -0.1250 0.1250 0.1250  plane waves:   19386
 k-point  5 :   0.1250 0.3750 0.1250  plane waves:   19373
 k-point  6 :   0.3750 0.3750 0.1250  plane waves:   19382
 k-point  7 :  -0.3750 0.3750 0.1250  plane waves:   19382
 k-point  8 :  -0.1250 0.3750 0.1250  plane waves:   19373
 k-point  9 :   0.1250-0.3750 0.1250  plane waves:   19368
 k-point 10 :   0.3750-0.3750 0.1250  plane waves:   19388
 k-point 11 :  -0.3750-0.3750 0.1250  plane waves:   19388
 k-point 12 :  -0.1250-0.3750 0.1250  plane waves:   19368
 k-point 13 :   0.1250-0.1250 0.1250  plane waves:   19392
 k-point 14 :   0.3750-0.1250 0.1250  plane waves:   19387
 k-point 15 :  -0.3750-0.1250 0.1250  plane waves:   19387
 k-point 16 :  -0.1250-0.1250 0.1250  plane waves:   19392
 k-point 17 :   0.1250 0.1250 0.3750  plane waves:   19373
 k-point 18 :   0.3750 0.1250 0.3750  plane waves:   19382
 k-point 19 :  -0.3750 0.1250 0.3750  plane waves:   19382
 k-point 20 :  -0.1250 0.1250 0.3750  plane waves:   19373
 k-point 21 :   0.1250 0.3750 0.3750  plane waves:   19371
 k-point 22 :   0.3750 0.3750 0.3750  plane waves:   19365
 k-point 23 :  -0.3750 0.3750 0.3750  plane waves:   19365
 k-point 24 :  -0.1250 0.3750 0.3750  plane waves:   19371
 k-point 25 :   0.1250-0.3750 0.3750  plane waves:   19362
 k-point 26 :   0.3750-0.3750 0.3750  plane waves:   19379
 k-point 27 :  -0.3750-0.3750 0.3750  plane waves:   19379
 k-point 28 :  -0.1250-0.3750 0.3750  plane waves:   19362
 k-point 29 :   0.1250-0.1250 0.3750  plane waves:   19369
 k-point 30 :   0.3750-0.1250 0.3750  plane waves:   19388
 k-point 31 :  -0.3750-0.1250 0.3750  plane waves:   19388
 k-point 32 :  -0.1250-0.1250 0.3750  plane waves:   19369

 maximum and minimum number of plane-waves per node :      2455     2394

 maximum number of plane-waves:     19393
 maximum index in each direction: 
   IXMAX=   17   IYMAX=   16   IZMAX=   16
   IXMIN=  -17   IYMIN=  -16   IZMIN=  -16


 real space projection operators:
  total allocation   :      18550.62 KBytes
  max/ min on nodes  :       2470.81       1918.88


 parallel 3D FFT for wavefunctions:
    minimum data exchange during FFTs selected (reduces bandwidth)
 parallel 3D FFT for charge:
    minimum data exchange during FFTs selected (reduces bandwidth)


 total amount of memory used by VASP MPI-rank0   106699. kBytes
=======================================================================

   base      :      30000. kBytes
   nonlr-proj:       8579. kBytes
   fftplans  :       8423. kBytes
   grid      :       8783. kBytes
   one-center:        124. kBytes
   wavefun   :      50790. kBytes
 
     INWAV:  cpu time   29.2955: real time   40.3108
 Broyden mixing: mesh for mixing (old mesh)
   NGX = 33   NGY = 33   NGZ = 33
  (NGX  =140   NGY  =140   NGZ  =140)
  gives a total of  35937 points

 charge density for first step will be calculated from the start-wavefunctions


--------------------------------------------------------------------------------------------------------


 Maximum index for non-local projection operator         1377
 Maximum index for augmentation-charges         7177 (set IRDMAX)


--------------------------------------------------------------------------------------------------------


 initial charge from wavefunction
 First call to EWALD:  gamma=   0.229
 Maximum number of real-space cells 3x 3x 3
 Maximum number of reciprocal cells 3x 3x 3

    FEWALD:  cpu time    0.0040: real time    0.0032


--------------------------------------- Iteration      1(   1)  ---------------------------------------


    POTLOK:  cpu time    0.1400: real time    0.2196
    SETDIJ:  cpu time    0.8389: real time    0.8395
     EDDAV:  cpu time   28.0357: real time   28.0399
       DOS:  cpu time    0.0030: real time    0.0034
    CHARGE:  cpu time    1.1558: real time    1.1536
    MIXING:  cpu time    0.0010: real time    0.0019
    --------------------------------------------
      LOOP:  cpu time   30.1744: real time   30.2579

 eigenvalue-minimisations  : 20488
 total energy-change (2. order) :-0.2136042E+03  (-0.6525723E-01)
 number of electron     240.0000005 magnetization       0.0000000
 augmentation part       61.9547934 magnetization       0.0000002

 Broyden mixing:
  rms(total) = 0.67851E-02    rms(broyden)= 0.63533E-02
  rms(prec ) = 0.67215E-02
  weight for this iteration     100.00

 Free energy of the ion-electron system (eV)
  ---------------------------------------------------
  alpha Z        PSCENC =       759.92746840
  Ewald energy   TEWEN  =    -12822.88768137
  -Hartree energ DENC   =     -8220.98674960
  -exchange      EXHF   =         0.00000000
  -V(xc)+E(xc)   XCENC  =      1119.90752625
  PAW double counting   =     18023.34179439   -18147.02490610
  entropy T*S    EENTRO =        -0.00000000
  eigenvalues    EBANDS =     -3228.23481957
  atomic energy  EATOM  =     22302.35321627
  Solvation  Ediel_sol  =         0.00000000
  ---------------------------------------------------
  free energy    TOTEN  =      -213.60415133 eV

  energy without entropy =     -213.60415133  energy(sigma->0) =     -213.60415133


--------------------------------------------------------------------------------------------------------




--------------------------------------- Iteration      1(   2)  ---------------------------------------


    POTLOK:  cpu time    0.1520: real time    0.1646
    SETDIJ:  cpu time    0.8419: real time    0.8409
     EDDAV:  cpu time   28.1667: real time   28.2269
       DOS:  cpu time    0.0040: real time    0.0034
    CHARGE:  cpu time    1.1508: real time    1.1564
    MIXING:  cpu time    0.0030: real time    0.0024
    --------------------------------------------
      LOOP:  cpu time   30.3184: real time   30.3946

 eigenvalue-minimisations  : 20624
 total energy-change (2. order) :-0.7956857E-04  (-0.2481079E-05)
 number of electron     240.0000005 magnetization      -0.0000000
 augmentation part       61.9560586 magnetization       0.0000001

 Broyden mixing:
  rms(total) = 0.37900E-02    rms(broyden)= 0.37603E-02
  rms(prec ) = 0.39555E-02
  weight for this iteration     100.00

 eigenvalues of (default mixing * dielectric matrix)
  average eigenvalue GAMMA=   2.2451
  2.2451

 Free energy of the ion-electron system (eV)
  ---------------------------------------------------
  alpha Z        PSCENC =       759.92746840
  Ewald energy   TEWEN  =    -12822.88768137
  -Hartree energ DENC   =     -8220.91120552
  -exchange      EXHF   =         0.00000000
  -V(xc)+E(xc)   XCENC  =      1119.90370817
  PAW double counting   =     18023.96946694   -18147.63963611
  entropy T*S    EENTRO =        -0.00000000
  eigenvalues    EBANDS =     -3228.31956767
  atomic energy  EATOM  =     22302.35321627
  Solvation  Ediel_sol  =         0.00000000
  ---------------------------------------------------
  free energy    TOTEN  =      -213.60423090 eV

  energy without entropy =     -213.60423090  energy(sigma->0) =     -213.60423090


--------------------------------------------------------------------------------------------------------




--------------------------------------- Iteration      1(   3)  ---------------------------------------


    POTLOK:  cpu time    0.1500: real time    0.1626
    SETDIJ:  cpu time    0.8389: real time    0.8385
     EDDAV:  cpu time   28.6197: real time   28.7025
       DOS:  cpu time    0.0030: real time    0.0034
    CHARGE:  cpu time    1.1608: real time    1.1575
    MIXING:  cpu time    0.0020: real time    0.0022
    --------------------------------------------
      LOOP:  cpu time   30.7743: real time   30.8666

 eigenvalue-minimisations  : 21080
 total energy-change (2. order) :-0.8547111E-04  (-0.1643636E-05)
 number of electron     240.0000005 magnetization      -0.0000000
 augmentation part       61.9558145 magnetization      -0.0000000

 Broyden mixing:
  rms(total) = 0.85805E-03    rms(broyden)= 0.85254E-03
  rms(prec ) = 0.10748E-02
  weight for this iteration     100.00

 eigenvalues of (default mixing * dielectric matrix)
  average eigenvalue GAMMA=   1.6246
  0.8112  2.4380

 Free energy of the ion-electron system (eV)
  ---------------------------------------------------
  alpha Z        PSCENC =       759.92746840
  Ewald energy   TEWEN  =    -12822.88768137
  -Hartree energ DENC   =     -8220.94269872
  -exchange      EXHF   =         0.00000000
  -V(xc)+E(xc)   XCENC  =      1119.90531290
  PAW double counting   =     18024.84368526   -18148.49977307
  entropy T*S    EENTRO =        -0.00000000
  eigenvalues    EBANDS =     -3228.30384603
  atomic energy  EATOM  =     22302.35321627
  Solvation  Ediel_sol  =         0.00000000
  ---------------------------------------------------
  free energy    TOTEN  =      -213.60431637 eV

  energy without entropy =     -213.60431637  energy(sigma->0) =     -213.60431637


--------------------------------------------------------------------------------------------------------




--------------------------------------- Iteration      1(   4)  ---------------------------------------


    POTLOK:  cpu time    0.1460: real time    0.1677
    SETDIJ:  cpu time    0.8419: real time    0.8399
     EDDAV:  cpu time   21.1568: real time   21.1471
       DOS:  cpu time    0.0030: real time    0.0036
    CHARGE:  cpu time    1.1568: real time    1.1550
    MIXING:  cpu time    0.0020: real time    0.0021
    --------------------------------------------
      LOOP:  cpu time   23.3065: real time   23.3154

 eigenvalue-minimisations  : 13216
 total energy-change (2. order) :-0.3055316E-05  (-0.1396467E-06)
 number of electron     240.0000005 magnetization      -0.0000000
 augmentation part       61.9563888 magnetization      -0.0000000

 Broyden mixing:
  rms(total) = 0.22429E-03    rms(broyden)= 0.22263E-03
  rms(prec ) = 0.32076E-03
  weight for this iteration     100.00

 eigenvalues of (default mixing * dielectric matrix)
  average eigenvalue GAMMA=   1.4225
  2.4956  1.1351  0.6369

 Free energy of the ion-electron system (eV)
  ---------------------------------------------------
  alpha Z        PSCENC =       759.92746840
  Ewald energy   TEWEN  =    -12822.88768137
  -Hartree energ DENC   =     -8220.95911061
  -exchange      EXHF   =         0.00000000
  -V(xc)+E(xc)   XCENC  =      1119.90701242
  PAW double counting   =     18024.93958357   -18148.59523710
  entropy T*S    EENTRO =        -0.00000000
  eigenvalues    EBANDS =     -3228.28957100
  atomic energy  EATOM  =     22302.35321627
  Solvation  Ediel_sol  =         0.00000000
  ---------------------------------------------------
  free energy    TOTEN  =      -213.60431943 eV

  energy without entropy =     -213.60431943  energy(sigma->0) =     -213.60431943


--------------------------------------------------------------------------------------------------------




--------------------------------------- Iteration      1(   5)  ---------------------------------------


    POTLOK:  cpu time    0.1450: real time    0.1581
    SETDIJ:  cpu time    0.8409: real time    0.8390
     EDDAV:  cpu time   19.3161: real time   19.2926
       DOS:  cpu time    0.0030: real time    0.0035
    --------------------------------------------
      LOOP:  cpu time   20.3049: real time   20.2932

 eigenvalue-minimisations  : 11056
 total energy-change (2. order) :-0.1393237E-06  (-0.7922020E-07)
 number of electron     240.0000005 magnetization      -0.0000000
 augmentation part       61.9563888 magnetization      -0.0000000

 Free energy of the ion-electron system (eV)
  ---------------------------------------------------
  alpha Z        PSCENC =       759.92746840
  Ewald energy   TEWEN  =    -12822.88768137
  -Hartree energ DENC   =     -8220.97441041
  -exchange      EXHF   =         0.00000000
  -V(xc)+E(xc)   XCENC  =      1119.90768572
  PAW double counting   =     18024.92659600   -18148.58164699
  entropy T*S    EENTRO =        -0.00000000
  eigenvalues    EBANDS =     -3228.27554717
  atomic energy  EATOM  =     22302.35321627
  Solvation  Ediel_sol  =         0.00000000
  ---------------------------------------------------
  free energy    TOTEN  =      -213.60431957 eV

  energy without entropy =     -213.60431957  energy(sigma->0) =     -213.60431957


--------------------------------------------------------------------------------------------------------




 average (electrostatic) potential at core
  the test charge radii are     1.0397  0.7215  0.7167
  (the norm of the test charge is              1.0000)
       1 -58.9002       2 -58.9001       3 -58.9001       4 -58.9002       5 -58.9001
       6 -58.9002       7 -58.9002       8 -58.9001       9 -74.1270      10 -74.1270
      11 -74.1270      12 -74.1270      13 -74.1270      14 -74.1270      15 -74.1270
      16 -74.1270      17 -79.2974      18 -79.2975      19 -79.2975      20 -79.2974
      21 -79.2974      22 -79.2975      23 -79.2975      24 -79.2974      25 -78.6609
      26 -78.6609      27 -78.6609      28 -78.6609      29 -78.6609      30 -78.6609
      31 -78.6609      32 -78.6609
 
 
 
 E-fermi :  -0.5232     XC(G=0):  -8.9894     alpha+bet : -7.6685


 spin component 1

 k-point     1 :       0.1250    0.1250    0.1250
  band No.  band energies     occupation 
      1     -34.9595      1.00000
      2     -34.9561      1.00000
      3     -34.9561      1.00000
      4     -34.9528      1.00000
      5     -34.8694      1.00000
      6     -34.8664      1.00000
      7     -34.8664      1.00000
      8     -34.8633      1.00000
      9     -34.7975      1.00000
     10     -34.7949      1.00000
     11     -34.7898      1.00000
     12     -34.7898      1.00000
     13     -34.7874      1.00000
     14     -34.7874      1.00000
     15     -34.7712      1.00000
     16     -34.7692      1.00000
     17     -34.7166      1.00000
     18     -34.7142      1.00000
     19     -34.6949      1.00000
     20     -34.6949      1.00000
     21     -34.6929      1.00000
     22     -34.6929      1.00000
     23     -34.6836      1.00000
     24     -34.6818      1.00000
     25     -23.1958      1.00000
     26     -23.1527      1.00000
     27     -23.1527      1.00000
     28     -23.1163      1.00000
     29     -22.7502      1.00000
     30     -22.7356      1.00000
     31     -22.7356      1.00000
     32     -22.7232      1.00000
     33     -22.4487      1.00000
     34     -22.3982      1.00000
     35     -22.3368      1.00000
     36     -22.3368      1.00000
     37     -22.3177      1.00000
     38     -22.3176      1.00000
     39     -22.2321      1.00000
     40     -22.2247      1.00000
     41     -16.7593      1.00000
     42     -16.7440      1.00000
     43     -16.6217      1.00000
     44     -16.6217      1.00000
     45     -16.6039      1.00000
     46     -16.6039      1.00000
     47     -16.4681      1.00000
     48     -16.4482      1.00000
     49      -6.7620      1.00000
     50      -6.7155      1.00000
     51      -6.7155      1.00000
     52      -6.6848      1.00000
     53      -6.0777      1.00000
     54      -5.9615      1.00000
     55      -5.9615      1.00000
     56      -5.9200      1.00000
     57      -5.8880      1.00000
     58      -5.8684      1.00000
     59      -5.8684      1.00000
     60      -5.8291      1.00000
     61      -5.6036      1.00000
     62      -5.4390      1.00000
     63      -5.4390      1.00000
     64      -5.3316      1.00000
     65      -5.3316      1.00000
     66      -5.2840      1.00000
     67      -5.2729      1.00000
     68      -5.2528      1.00000
     69      -4.9756      1.00000
     70      -4.8756      1.00000
     71      -4.4272      1.00000
     72      -4.4262      1.00000
     73      -4.4226      1.00000
     74      -4.4226      1.00000
     75      -4.3943      1.00000
     76      -4.3943      1.00000
     77      -4.3713      1.00000
     78      -4.3027      1.00000
     79      -4.2758      1.00000
     80      -4.2382      1.00000
     81      -4.2382      1.00000
     82      -4.1993      1.00000
     83      -3.7866      1.00000
     84      -3.7866      1.00000
     85      -3.7037      1.00000
     86      -3.7037      1.00000
     87      -3.6943      1.00000
     88      -3.5220      1.00000
     89      -3.4865      1.00000
     90      -3.4862      1.00000
     91      -3.4862      1.00000
     92      -3.4400      1.00000
     93      -3.3846      1.00000
     94      -3.3113      1.00000
     95      -3.2828      1.00000
     96      -3.2828      1.00000
     97      -3.1841      1.00000
     98      -3.1841      1.00000
     99      -3.1835      1.00000
    100      -3.0638      1.00000
    101      -3.0638      1.00000
    102      -2.9560      1.00000
    103      -2.6874      1.00000
    104      -2.6797      1.00000
    105      -2.3225      1.00000
    106      -2.2878      1.00000
    107      -2.2649      1.00000
    108      -2.2012      1.00000
    109      -2.2012      1.00000
    110      -2.1795      1.00000
    111      -2.1794      1.00000
    112      -2.1447      1.00000
    113      -2.1447      1.00000
    114      -1.9752      1.00000
    115      -1.9638      1.00000
    116      -1.8305      1.00000
    117      -1.8304      1.00000
    118      -1.6623      1.00000
    119      -0.5791      1.00000
    120      -0.5742      1.00000
    121       1.9327      0.00000
    122       1.9380      0.00000
    123       1.9547      0.00000
    124       2.0201      0.00000
    125       2.0201      0.00000
    126       2.0494      0.00000
    127       2.6030      0.00000
    128       2.6707      0.00000
    129       2.6707      0.00000
    130       2.6864      0.00000
    131       3.0457      0.00000
    132       3.1568      0.00000
    133       3.1568      0.00000
    134       3.3752      0.00000
    135       3.3998      0.00000
    136       3.4268      0.00000
    137       3.4268      0.00000
    138       3.4584      0.00000
    139       3.4584      0.00000
    140       3.5612      0.00000
    141       3.5612      0.00000
    142       3.5682      0.00000
    143       3.5735      0.00000
    144       3.6589      0.00000
    145       3.7641      0.00000
    146       3.7641      0.00000
    147       3.9136      0.00000
    148       3.9306      0.00000
    149       4.1480      0.00000
    150       4.1480      0.00000
    151       4.2224      0.00000
    152       4.2935      0.00000
    153       4.6029      0.00000
    154       5.2961      0.00000
    155       5.2961      0.00000
    156       5.8351      0.00000
    157       6.0483      0.00000
    158       6.1829      0.00000
    159       6.1829      0.00000
    160       7.1133      0.00000

 k-point     2 :       0.3750    0.1250    0.1250
  band No.  band energies     occupation 
      1     -34.9335      1.00000
      2     -34.9302      1.00000
      3     -34.9302      1.00000
      4     -34.9269      1.00000
      5     -34.8962      1.00000
      6     -34.8931      1.00000
      7     -34.8931      1.00000
      8     -34.8899      1.00000
      9     -34.7966      1.00000
     10     -34.7955      1.00000
     11     -34.7890      1.00000
     12     -34.7890      1.00000
     13     -34.7880      1.00000
     14     -34.7880      1.00000
     15     -34.7706      1.00000
     16     -34.7697      1.00000
     17     -34.7158      1.00000
     18     -34.7148      1.00000
     19     -34.6943      1.00000
     20     -34.6943      1.00000
     21     -34.6935      1.00000
     22     -34.6935      1.00000
     23     -34.6830      1.00000
     24     -34.6823      1.00000
     25     -23.0758      1.00000
     26     -23.0361      1.00000
     27     -23.0361      1.00000
     28     -23.0034      1.00000
     29     -22.8951      1.00000
     30     -22.8646      1.00000
     31     -22.8646      1.00000
     32     -22.8406      1.00000
     33     -22.4217      1.00000
     34     -22.4046      1.00000
     35     -22.3266      1.00000
     36     -22.3266      1.00000
     37     -22.3199      1.00000
     38     -22.3198      1.00000
     39     -22.2300      1.00000
     40     -22.2269      1.00000
     41     -16.7547      1.00000
     42     -16.7483      1.00000
     43     -16.6164      1.00000
     44     -16.6164      1.00000
     45     -16.6091      1.00000
     46     -16.6090      1.00000
     47     -16.4623      1.00000
     48     -16.4541      1.00000
     49      -6.4149      1.00000
     50      -6.3896      1.00000
     51      -6.3862      1.00000
     52      -6.3862      1.00000
     53      -6.0982      1.00000
     54      -5.9884      1.00000
     55      -5.9884      1.00000
     56      -5.9499      1.00000
     57      -5.9234      1.00000
     58      -5.8848      1.00000
     59      -5.8848      1.00000
     60      -5.8726      1.00000
     61      -5.8485      1.00000
     62      -5.8017      1.00000
     63      -5.8017      1.00000
     64      -5.6984      1.00000
     65      -5.1084      1.00000
     66      -5.1084      1.00000
     67      -5.0780      1.00000
     68      -5.0089      1.00000
     69      -4.9524      1.00000
     70      -4.9074      1.00000
     71      -4.7324      1.00000
     72      -4.7324      1.00000
     73      -4.7076      1.00000
     74      -4.6033      1.00000
     75      -4.4024      1.00000
     76      -4.3763      1.00000
     77      -4.3413      1.00000
     78      -4.3413      1.00000
     79      -4.3308      1.00000
     80      -4.2851      1.00000
     81      -4.2851      1.00000
     82      -4.2384      1.00000
     83      -3.7764      1.00000
     84      -3.7764      1.00000
     85      -3.7535      1.00000
     86      -3.7535      1.00000
     87      -3.5985      1.00000
     88      -3.4658      1.00000
     89      -3.4421      1.00000
     90      -3.4257      1.00000
     91      -3.3118      1.00000
     92      -3.3035      1.00000
     93      -3.3035      1.00000
     94      -3.2502      1.00000
     95      -3.2502      1.00000
     96      -3.2356      1.00000
     97      -3.2052      1.00000
     98      -3.1806      1.00000
     99      -3.1805      1.00000
    100      -3.1298      1.00000
    101      -3.1298      1.00000
    102      -3.0194      1.00000
    103      -2.6868      1.00000
    104      -2.6844      1.00000
    105      -2.2846      1.00000
    106      -2.2719      1.00000
    107      -2.2322      1.00000
    108      -2.2071      1.00000
    109      -2.2071      1.00000
    110      -2.1926      1.00000
    111      -2.1926      1.00000
    112      -2.0769      1.00000
    113      -2.0541      1.00000
    114      -2.0541      1.00000
    115      -1.9239      1.00000
    116      -1.9239      1.00000
    117      -1.8887      1.00000
    118      -1.7572      1.00000
    119      -0.5782      1.00000
    120      -0.5760      1.00000
    121       1.9433      0.00000
    122       1.9502      0.00000
    123       2.1568      0.00000
    124       2.1621      0.00000
    125       2.1841      0.00000
    126       2.1841      0.00000
    127       2.4035      0.00000
    128       2.4599      0.00000
    129       2.4599      0.00000
    130       2.4681      0.00000
    131       3.2171      0.00000
    132       3.3108      0.00000
    133       3.3108      0.00000
    134       3.3769      0.00000
    135       3.3841      0.00000
    136       3.4057      0.00000
    137       3.4057      0.00000
    138       3.4597      0.00000
    139       3.4869      0.00000
    140       3.4869      0.00000
    141       3.6087      0.00000
    142       3.6087      0.00000
    143       3.6659      0.00000
    144       3.8060      0.00000
    145       3.8292      0.00000
    146       3.8292      0.00000
    147       3.9264      0.00000
    148       4.0737      0.00000
    149       4.0737      0.00000
    150       4.2054      0.00000
    151       4.2461      0.00000
    152       4.4044      0.00000
    153       4.6033      0.00000
    154       5.3422      0.00000
    155       5.5049      0.00000
    156       5.5049      0.00000
    157       5.8839      0.00000
    158       5.8839      0.00000
    159       6.4807      0.00000
    160       7.1234      0.00000

 k-point     3 :      -0.3750    0.1250    0.1250
  band No.  band energies     occupation 
      1     -34.9335      1.00000
      2     -34.9302      1.00000
      3     -34.9302      1.00000
      4     -34.9269      1.00000
      5     -34.8962      1.00000
      6     -34.8931      1.00000
      7     -34.8931      1.00000
      8     -34.8899      1.00000
      9     -34.7966      1.00000
     10     -34.7955      1.00000
     11     -34.7890      1.00000
     12     -34.7890      1.00000
     13     -34.7880      1.00000
     14     -34.7880      1.00000
     15     -34.7706      1.00000
     16     -34.7697      1.00000
     17     -34.7158      1.00000
     18     -34.7148      1.00000
     19     -34.6943      1.00000
     20     -34.6943      1.00000
     21     -34.6935      1.00000
     22     -34.6935      1.00000
     23     -34.6830      1.00000
     24     -34.6823      1.00000
     25     -23.0758      1.00000
     26     -23.0361      1.00000
     27     -23.0361      1.00000
     28     -23.0034      1.00000
     29     -22.8951      1.00000
     30     -22.8646      1.00000
     31     -22.8646      1.00000
     32     -22.8406      1.00000
     33     -22.4217      1.00000
     34     -22.4046      1.00000
     35     -22.3266      1.00000
     36     -22.3266      1.00000
     37     -22.3199      1.00000
     38     -22.3198      1.00000
     39     -22.2300      1.00000
     40     -22.2269      1.00000
     41     -16.7547      1.00000
     42     -16.7483      1.00000
     43     -16.6164      1.00000
     44     -16.6164      1.00000
     45     -16.6091      1.00000
     46     -16.6090      1.00000
     47     -16.4623      1.00000
     48     -16.4541      1.00000
     49      -6.4149      1.00000
     50      -6.3896      1.00000
     51      -6.3862      1.00000
     52      -6.3862      1.00000
     53      -6.0982      1.00000
     54      -5.9884      1.00000
     55      -5.9884      1.00000
     56      -5.9499      1.00000
     57      -5.9234      1.00000
     58      -5.8848      1.00000
     59      -5.8848      1.00000
     60      -5.8726      1.00000
     61      -5.8485      1.00000
     62      -5.8017      1.00000
     63      -5.8017      1.00000
     64      -5.6984      1.00000
     65      -5.1084      1.00000
     66      -5.1084      1.00000
     67      -5.0780      1.00000
     68      -5.0089      1.00000
     69      -4.9524      1.00000
     70      -4.9074      1.00000
     71      -4.7324      1.00000
     72      -4.7324      1.00000
     73      -4.7076      1.00000
     74      -4.6033      1.00000
     75      -4.4024      1.00000
     76      -4.3763      1.00000
     77      -4.3413      1.00000
     78      -4.3413      1.00000
     79      -4.3308      1.00000
     80      -4.2851      1.00000
     81      -4.2851      1.00000
     82      -4.2384      1.00000
     83      -3.7764      1.00000
     84      -3.7764      1.00000
     85      -3.7535      1.00000
     86      -3.7535      1.00000
     87      -3.5985      1.00000
     88      -3.4658      1.00000
     89      -3.4421      1.00000
     90      -3.4257      1.00000
     91      -3.3118      1.00000
     92      -3.3035      1.00000
     93      -3.3035      1.00000
     94      -3.2502      1.00000
     95      -3.2502      1.00000
     96      -3.2356      1.00000
     97      -3.2052      1.00000
     98      -3.1806      1.00000
     99      -3.1805      1.00000
    100      -3.1298      1.00000
    101      -3.1298      1.00000
    102      -3.0194      1.00000
    103      -2.6868      1.00000
    104      -2.6844      1.00000
    105      -2.2846      1.00000
    106      -2.2719      1.00000
    107      -2.2322      1.00000
    108      -2.2071      1.00000
    109      -2.2071      1.00000
    110      -2.1926      1.00000
    111      -2.1926      1.00000
    112      -2.0769      1.00000
    113      -2.0541      1.00000
    114      -2.0541      1.00000
    115      -1.9239      1.00000
    116      -1.9239      1.00000
    117      -1.8887      1.00000
    118      -1.7572      1.00000
    119      -0.5782      1.00000
    120      -0.5760      1.00000
    121       1.9433      0.00000
    122       1.9502      0.00000
    123       2.1568      0.00000
    124       2.1621      0.00000
    125       2.1841      0.00000
    126       2.1841      0.00000
    127       2.4035      0.00000
    128       2.4599      0.00000
    129       2.4599      0.00000
    130       2.4681      0.00000
    131       3.2171      0.00000
    132       3.3108      0.00000
    133       3.3108      0.00000
    134       3.3769      0.00000
    135       3.3841      0.00000
    136       3.4057      0.00000
    137       3.4057      0.00000
    138       3.4597      0.00000
    139       3.4869      0.00000
    140       3.4869      0.00000
    141       3.6087      0.00000
    142       3.6087      0.00000
    143       3.6659      0.00000
    144       3.8060      0.00000
    145       3.8292      0.00000
    146       3.8292      0.00000
    147       3.9264      0.00000
    148       4.0737      0.00000
    149       4.0737      0.00000
    150       4.2054      0.00000
    151       4.2461      0.00000
    152       4.4044      0.00000
    153       4.6033      0.00000
    154       5.3422      0.00000
    155       5.5049      0.00000
    156       5.5049      0.00000
    157       5.8839      0.00000
    158       5.8839      0.00000
    159       6.4807      0.00000
    160       7.1234      0.00000

 k-point     4 :      -0.1250    0.1250    0.1250
  band No.  band energies     occupation 
      1     -34.9595      1.00000
      2     -34.9561      1.00000
      3     -34.9561      1.00000
      4     -34.9528      1.00000
      5     -34.8694      1.00000
      6     -34.8664      1.00000
      7     -34.8664      1.00000
      8     -34.8633      1.00000
      9     -34.7975      1.00000
     10     -34.7949      1.00000
     11     -34.7898      1.00000
     12     -34.7898      1.00000
     13     -34.7874      1.00000
     14     -34.7874      1.00000
     15     -34.7712      1.00000
     16     -34.7692      1.00000
     17     -34.7166      1.00000
     18     -34.7142      1.00000
     19     -34.6949      1.00000
     20     -34.6949      1.00000
     21     -34.6929      1.00000
     22     -34.6929      1.00000
     23     -34.6836      1.00000
     24     -34.6818      1.00000
     25     -23.1958      1.00000
     26     -23.1527      1.00000
     27     -23.1527      1.00000
     28     -23.1163      1.00000
     29     -22.7502      1.00000
     30     -22.7356      1.00000
     31     -22.7356      1.00000
     32     -22.7232      1.00000
     33     -22.4487      1.00000
     34     -22.3982      1.00000
     35     -22.3368      1.00000
     36     -22.3368      1.00000
     37     -22.3177      1.00000
     38     -22.3176      1.00000
     39     -22.2321      1.00000
     40     -22.2247      1.00000
     41     -16.7593      1.00000
     42     -16.7440      1.00000
     43     -16.6217      1.00000
     44     -16.6217      1.00000
     45     -16.6039      1.00000
     46     -16.6039      1.00000
     47     -16.4681      1.00000
     48     -16.4482      1.00000
     49      -6.7620      1.00000
     50      -6.7155      1.00000
     51      -6.7155      1.00000
     52      -6.6848      1.00000
     53      -6.0777      1.00000
     54      -5.9615      1.00000
     55      -5.9615      1.00000
     56      -5.9200      1.00000
     57      -5.8880      1.00000
     58      -5.8684      1.00000
     59      -5.8684      1.00000
     60      -5.8291      1.00000
     61      -5.6036      1.00000
     62      -5.4390      1.00000
     63      -5.4390      1.00000
     64      -5.3316      1.00000
     65      -5.3316      1.00000
     66      -5.2840      1.00000
     67      -5.2729      1.00000
     68      -5.2528      1.00000
     69      -4.9756      1.00000
     70      -4.8756      1.00000
     71      -4.4272      1.00000
     72      -4.4262      1.00000
     73      -4.4226      1.00000
     74      -4.4226      1.00000
     75      -4.3943      1.00000
     76      -4.3943      1.00000
     77      -4.3713      1.00000
     78      -4.3027      1.00000
     79      -4.2758      1.00000
     80      -4.2382      1.00000
     81      -4.2382      1.00000
     82      -4.1993      1.00000
     83      -3.7866      1.00000
     84      -3.7866      1.00000
     85      -3.7037      1.00000
     86      -3.7037      1.00000
     87      -3.6943      1.00000
     88      -3.5220      1.00000
     89      -3.4865      1.00000
     90      -3.4862      1.00000
     91      -3.4862      1.00000
     92      -3.4400      1.00000
     93      -3.3846      1.00000
     94      -3.3113      1.00000
     95      -3.2828      1.00000
     96      -3.2828      1.00000
     97      -3.1841      1.00000
     98      -3.1841      1.00000
     99      -3.1835      1.00000
    100      -3.0638      1.00000
    101      -3.0638      1.00000
    102      -2.9560      1.00000
    103      -2.6874      1.00000
    104      -2.6797      1.00000
    105      -2.3225      1.00000
    106      -2.2878      1.00000
    107      -2.2649      1.00000
    108      -2.2012      1.00000
    109      -2.2012      1.00000
    110      -2.1795      1.00000
    111      -2.1794      1.00000
    112      -2.1447      1.00000
    113      -2.1447      1.00000
    114      -1.9752      1.00000
    115      -1.9638      1.00000
    116      -1.8305      1.00000
    117      -1.8304      1.00000
    118      -1.6623      1.00000
    119      -0.5791      1.00000
    120      -0.5742      1.00000
    121       1.9327      0.00000
    122       1.9380      0.00000
    123       1.9547      0.00000
    124       2.0201      0.00000
    125       2.0201      0.00000
    126       2.0494      0.00000
    127       2.6030      0.00000
    128       2.6707      0.00000
    129       2.6707      0.00000
    130       2.6864      0.00000
    131       3.0457      0.00000
    132       3.1568      0.00000
    133       3.1568      0.00000
    134       3.3752      0.00000
    135       3.3998      0.00000
    136       3.4268      0.00000
    137       3.4268      0.00000
    138       3.4584      0.00000
    139       3.4584      0.00000
    140       3.5612      0.00000
    141       3.5612      0.00000
    142       3.5682      0.00000
    143       3.5735      0.00000
    144       3.6589      0.00000
    145       3.7641      0.00000
    146       3.7641      0.00000
    147       3.9136      0.00000
    148       3.9306      0.00000
    149       4.1480      0.00000
    150       4.1480      0.00000
    151       4.2224      0.00000
    152       4.2935      0.00000
    153       4.6029      0.00000
    154       5.2961      0.00000
    155       5.2961      0.00000
    156       5.8351      0.00000
    157       6.0483      0.00000
    158       6.1829      0.00000
    159       6.1829      0.00000
    160       7.1133      0.00000

 k-point     5 :       0.1250    0.3750    0.1250
  band No.  band energies     occupation 
      1     -34.9588      1.00000
      2     -34.9572      1.00000
      3     -34.9550      1.00000
      4     -34.9535      1.00000
      5     -34.8688      1.00000
      6     -34.8674      1.00000
      7     -34.8654      1.00000
      8     -34.8639      1.00000
      9     -34.7910      1.00000
     10     -34.7897      1.00000
     11     -34.7885      1.00000
     12     -34.7872      1.00000
     13     -34.7681      1.00000
     14     -34.7657      1.00000
     15     -34.7571      1.00000
     16     -34.7551      1.00000
     17     -34.7306      1.00000
     18     -34.7282      1.00000
     19     -34.7177      1.00000
     20     -34.7156      1.00000
     21     -34.6943      1.00000
     22     -34.6923      1.00000
     23     -34.6907      1.00000
     24     -34.6889      1.00000
     25     -23.1867      1.00000
     26     -23.1661      1.00000
     27     -23.1396      1.00000
     28     -23.1226      1.00000
     29     -22.7466      1.00000
     30     -22.7400      1.00000
     31     -22.7316      1.00000
     32     -22.7261      1.00000
     33     -22.4331      1.00000
     34     -22.3871      1.00000
     35     -22.3756      1.00000
     36     -22.3458      1.00000
     37     -22.2920      1.00000
     38     -22.2836      1.00000
     39     -22.2375      1.00000
     40     -22.2319      1.00000
     41     -16.7714      1.00000
     42     -16.7570      1.00000
     43     -16.6902      1.00000
     44     -16.6741      1.00000
     45     -16.5704      1.00000
     46     -16.5521      1.00000
     47     -16.4853      1.00000
     48     -16.4657      1.00000
     49      -6.7450      1.00000
     50      -6.7228      1.00000
     51      -6.6959      1.00000
     52      -6.6825      1.00000
     53      -6.0044      1.00000
     54      -5.9677      1.00000
     55      -5.8817      1.00000
     56      -5.8702      1.00000
     57      -5.6659      1.00000
     58      -5.6637      1.00000
     59      -5.5825      1.00000
     60      -5.5098      1.00000
     61      -5.5079      1.00000
     62      -5.5008      1.00000
     63      -5.3841      1.00000
     64      -5.3149      1.00000
     65      -5.2985      1.00000
     66      -5.2871      1.00000
     67      -5.1479      1.00000
     68      -5.0955      1.00000
     69      -4.7575      1.00000
     70      -4.7374      1.00000
     71      -4.6881      1.00000
     72      -4.6394      1.00000
     73      -4.5390      1.00000
     74      -4.4139      1.00000
     75      -4.4136      1.00000
     76      -4.4125      1.00000
     77      -4.4078      1.00000
     78      -4.3134      1.00000
     79      -4.2751      1.00000
     80      -4.2342      1.00000
     81      -4.1867      1.00000
     82      -4.1312      1.00000
     83      -4.0945      1.00000
     84      -4.0101      1.00000
     85      -3.9919      1.00000
     86      -3.9328      1.00000
     87      -3.6768      1.00000
     88      -3.6625      1.00000
     89      -3.5764      1.00000
     90      -3.5308      1.00000
     91      -3.4991      1.00000
     92      -3.4780      1.00000
     93      -3.4599      1.00000
     94      -3.4213      1.00000
     95      -3.4176      1.00000
     96      -3.3288      1.00000
     97      -3.2425      1.00000
     98      -3.2283      1.00000
     99      -3.2183      1.00000
    100      -3.0508      1.00000
    101      -3.0285      1.00000
    102      -2.9368      1.00000
    103      -2.8306      1.00000
    104      -2.8207      1.00000
    105      -2.6218      1.00000
    106      -2.5997      1.00000
    107      -2.3356      1.00000
    108      -2.3013      1.00000
    109      -2.2792      1.00000
    110      -2.2587      1.00000
    111      -2.1233      1.00000
    112      -2.0530      1.00000
    113      -1.9694      1.00000
    114      -1.8852      1.00000
    115      -1.7619      1.00000
    116      -1.6703      1.00000
    117      -1.5829      1.00000
    118      -1.5681      1.00000
    119      -0.8219      1.00000
    120      -0.8205      1.00000
    121       1.9896      0.00000
    122       2.0099      0.00000
    123       2.2489      0.00000
    124       2.2599      0.00000
    125       2.2976      0.00000
    126       2.3096      0.00000
    127       2.6415      0.00000
    128       2.6640      0.00000
    129       2.8108      0.00000
    130       2.8202      0.00000
    131       3.0194      0.00000
    132       3.0249      0.00000
    133       3.0667      0.00000
    134       3.1315      0.00000
    135       3.2769      0.00000
    136       3.3622      0.00000
    137       3.5207      0.00000
    138       3.5410      0.00000
    139       3.5640      0.00000
    140       3.5665      0.00000
    141       3.5689      0.00000
    142       3.6815      0.00000
    143       3.7183      0.00000
    144       3.7448      0.00000
    145       3.7674      0.00000
    146       3.7852      0.00000
    147       3.8694      0.00000
    148       4.0346      0.00000
    149       4.0420      0.00000
    150       4.0652      0.00000
    151       4.1624      0.00000
    152       4.8219      0.00000
    153       4.8598      0.00000
    154       4.9085      0.00000
    155       5.6760      0.00000
    156       5.7327      0.00000
    157       5.8404      0.00000
    158       6.2850      0.00000
    159       6.5502      0.00000
    160       6.6525      0.00000

 k-point     6 :       0.3750    0.3750    0.1250
  band No.  band energies     occupation 
      1     -34.9328      1.00000
      2     -34.9313      1.00000
      3     -34.9291      1.00000
      4     -34.9276      1.00000
      5     -34.8956      1.00000
      6     -34.8941      1.00000
      7     -34.8920      1.00000
      8     -34.8905      1.00000
      9     -34.7902      1.00000
     10     -34.7892      1.00000
     11     -34.7889      1.00000
     12     -34.7879      1.00000
     13     -34.7673      1.00000
     14     -34.7664      1.00000
     15     -34.7565      1.00000
     16     -34.7557      1.00000
     17     -34.7298      1.00000
     18     -34.7288      1.00000
     19     -34.7171      1.00000
     20     -34.7162      1.00000
     21     -34.6937      1.00000
     22     -34.6929      1.00000
     23     -34.6902      1.00000
     24     -34.6894      1.00000
     25     -23.0674      1.00000
     26     -23.0483      1.00000
     27     -23.0242      1.00000
     28     -23.0090      1.00000
     29     -22.8885      1.00000
     30     -22.8738      1.00000
     31     -22.8559      1.00000
     32     -22.8450      1.00000
     33     -22.4086      1.00000
     34     -22.3929      1.00000
     35     -22.3599      1.00000
     36     -22.3495      1.00000
     37     -22.2870      1.00000
     38     -22.2841      1.00000
     39     -22.2357      1.00000
     40     -22.2333      1.00000
     41     -16.7670      1.00000
     42     -16.7610      1.00000
     43     -16.6853      1.00000
     44     -16.6787      1.00000
     45     -16.5650      1.00000
     46     -16.5574      1.00000
     47     -16.4796      1.00000
     48     -16.4715      1.00000
     49      -6.3898      1.00000
     50      -6.3840      1.00000
     51      -6.3834      1.00000
     52      -6.3739      1.00000
     53      -6.0229      1.00000
     54      -5.9912      1.00000
     55      -5.9369      1.00000
     56      -5.8953      1.00000
     57      -5.8927      1.00000
     58      -5.8858      1.00000
     59      -5.7794      1.00000
     60      -5.7386      1.00000
     61      -5.6166      1.00000
     62      -5.6126      1.00000
     63      -5.5679      1.00000
     64      -5.5670      1.00000
     65      -5.0955      1.00000
     66      -5.0682      1.00000
     67      -4.9272      1.00000
     68      -4.8792      1.00000
     69      -4.7778      1.00000
     70      -4.7411      1.00000
     71      -4.6853      1.00000
     72      -4.6269      1.00000
     73      -4.5941      1.00000
     74      -4.5508      1.00000
     75      -4.5430      1.00000
     76      -4.5292      1.00000
     77      -4.4000      1.00000
     78      -4.3877      1.00000
     79      -4.3534      1.00000
     80      -4.3404      1.00000
     81      -4.3267      1.00000
     82      -4.2294      1.00000
     83      -4.1836      1.00000
     84      -4.1031      1.00000
     85      -3.9480      1.00000
     86      -3.8961      1.00000
     87      -3.8337      1.00000
     88      -3.7933      1.00000
     89      -3.5700      1.00000
     90      -3.5607      1.00000
     91      -3.4248      1.00000
     92      -3.3876      1.00000
     93      -3.3192      1.00000
     94      -3.3130      1.00000
     95      -3.3061      1.00000
     96      -3.2460      1.00000
     97      -3.2372      1.00000
     98      -3.2012      1.00000
     99      -3.1846      1.00000
    100      -3.1134      1.00000
    101      -3.0934      1.00000
    102      -3.0158      1.00000
    103      -2.8283      1.00000
    104      -2.8238      1.00000
    105      -2.6171      1.00000
    106      -2.6074      1.00000
    107      -2.2975      1.00000
    108      -2.2875      1.00000
    109      -2.2068      1.00000
    110      -2.1247      1.00000
    111      -2.0598      1.00000
    112      -2.0091      1.00000
    113      -1.9792      1.00000
    114      -1.9274      1.00000
    115      -1.8534      1.00000
    116      -1.7676      1.00000
    117      -1.5776      1.00000
    118      -1.5712      1.00000
    119      -0.8220      1.00000
    120      -0.8213      1.00000
    121       2.1625      0.00000
    122       2.1788      0.00000
    123       2.3028      0.00000
    124       2.3037      0.00000
[...]
  0.000   0.000   0.000   0.000   0.000  -0.000  -0.000  -0.000   0.000   0.000   0.000  -0.000   0.000  -0.000   0.000   0.000
 -0.000   0.000   0.000   0.000   0.000   0.000  -0.000   0.000   0.000   0.000   0.000   0.000  -0.000  -0.000  -0.000  -0.000
  0.000  -0.000  -0.000   0.000  -0.000  -0.000   0.000   0.000   0.000  -0.000   0.000  -0.000  -0.000  -0.000   0.000  -0.000
  0.000   0.000  -0.000   0.000  -0.000  -0.000   0.000   0.000  -0.000   0.000  -0.000  -0.000  -0.000   0.000  -0.000  -0.000
  0.000   0.000   0.000   0.000   0.000  -0.000   0.000  -0.000   0.000  -0.000  -0.000  -0.000   0.000   0.000   0.000   0.000
 -0.000   0.000  -0.000  -0.000   0.000  -0.000  -0.000   0.000  -0.000   0.000  -0.000   0.000  -0.000   0.000  -0.000   0.000
  0.000  -0.000  -0.000   0.000  -0.000  -0.000   0.000   0.000  -0.000   0.000  -0.000  -0.000  -0.000   0.000   0.000  -0.000
  0.000  -0.000   0.000  -0.000   0.000   0.000  -0.000  -0.000  -0.000   0.000  -0.000   0.000  -0.000  -0.000  -0.000   0.000
 -0.000   0.000   0.000  -0.000   0.000  -0.000  -0.000  -0.000  -0.000   0.000  -0.000   0.000   0.000   0.000  -0.000   0.000


------------------------ aborting loop because EDIFF is reached ----------------------------------------


 


 total charge     
 
# of ion       s       p       d       tot
------------------------------------------
    1        0.318   6.464   1.761   8.543
    2        0.318   6.464   1.761   8.543
    3        0.318   6.464   1.761   8.543
    4        0.318   6.464   1.761   8.543
    5        0.318   6.464   1.761   8.543
    6        0.318   6.464   1.761   8.543
    7        0.318   6.464   1.761   8.543
    8        0.318   6.464   1.761   8.543
    9        1.570   3.474   0.000   5.044
   10        1.570   3.474   0.000   5.044
   11        1.570   3.474   0.000   5.044
   12        1.570   3.474   0.000   5.044
   13        1.570   3.474   0.000   5.044
   14        1.570   3.474   0.000   5.044
   15        1.570   3.474   0.000   5.044
   16        1.570   3.474   0.000   5.044
   17        1.729   4.383   0.000   6.112
   18        1.729   4.383   0.000   6.112
   19        1.729   4.383   0.000   6.112
   20        1.729   4.383   0.000   6.112
   21        1.729   4.383   0.000   6.112
   22        1.729   4.383   0.000   6.112
   23        1.729   4.383   0.000   6.112
   24        1.729   4.383   0.000   6.112
   25        1.729   4.378   0.000   6.108
   26        1.729   4.378   0.000   6.108
   27        1.729   4.378   0.000   6.108
   28        1.729   4.378   0.000   6.108
   29        1.729   4.378   0.000   6.108
   30        1.729   4.378   0.000   6.108
   31        1.729   4.378   0.000   6.108
   32        1.729   4.378   0.000   6.108
--------------------------------------------------
tot         42.772 149.594  14.085 206.451
 


 magnetization (x)
 
# of ion       s       p       d       tot
------------------------------------------
    1        0.000  -0.000   0.000   0.000
    2       -0.000  -0.000   0.000   0.000
    3       -0.000  -0.000   0.000   0.000
    4        0.000  -0.000   0.000   0.000
    5       -0.000   0.000  -0.000  -0.000
    6       -0.000   0.000  -0.000  -0.000
    7       -0.000   0.000  -0.000  -0.000
    8       -0.000   0.000  -0.000  -0.000
    9       -0.000  -0.000   0.000  -0.000
   10       -0.000  -0.000   0.000  -0.000
   11        0.000   0.000   0.000   0.000
   12        0.000   0.000   0.000   0.000
   13       -0.000   0.000   0.000   0.000
   14       -0.000   0.000   0.000   0.000
   15        0.000   0.000   0.000   0.000
   16        0.000   0.000   0.000   0.000
   17        0.000   0.000   0.000   0.000
   18       -0.000   0.000   0.000   0.000
   19       -0.000   0.000   0.000   0.000
   20        0.000   0.000   0.000   0.000
   21        0.000   0.000   0.000   0.000
   22       -0.000   0.000   0.000   0.000
   23       -0.000   0.000   0.000   0.000
   24        0.000   0.000   0.000   0.000
   25        0.000   0.000   0.000   0.000
   26        0.000   0.000   0.000   0.000
   27        0.000  -0.000   0.000  -0.000
   28        0.000  -0.000   0.000  -0.000
   29       -0.000   0.000   0.000  -0.000
   30       -0.000  -0.000   0.000  -0.000
   31       -0.000  -0.000   0.000  -0.000
   32        0.000  -0.000   0.000  -0.000
--------------------------------------------------
tot         -0.000   0.000  -0.000   0.000
 
    CHARGE:  cpu time    1.2018: real time    1.1986
    FORLOC:  cpu time    0.0100: real time    0.0100
    FORNL :  cpu time    6.9669: real time    6.9604
    STRESS:  cpu time   20.8738: real time   20.8512
    FORCOR:  cpu time    0.1290: real time    0.1295
    FORHAR:  cpu time    0.0210: real time    0.0213
    MIXING:  cpu time    0.0010: real time    0.0017
    OFIELD:  cpu time    0.0000: real time    0.0000

  FORCE on cell =-STRESS in cart. coord.  units (eV):
  Direction    XX          YY          ZZ          XY          YZ          ZX
  --------------------------------------------------------------------------------------
  Alpha Z   759.92747   759.92747   759.92747
  Ewald   -4326.17669 -4248.39877 -4248.37037    -0.00003   -25.46686    -0.00000
  Hartree  2723.55873  2748.70385  2748.71895    -0.00001    -9.21313    -0.00000
  E(xc)   -1232.10970 -1232.61485 -1232.61486    -0.00000     0.09158    -0.00000
  Local   -2039.51133 -2201.08301 -2201.12538     0.00004    37.35444     0.00000
  n-local  -974.88765  -963.30457  -963.30411    -0.00000    -1.72249     0.00000
  augment   744.14010   763.66294   763.66283    -0.00000    -1.74575     0.00000
  Kinetic  4345.22606  4373.17418  4373.17436     0.00000     0.73684     0.00000
  Fock        0.00000     0.00000     0.00000     0.00000     0.00000     0.00000
  -------------------------------------------------------------------------------------
  Total       0.16697     0.06724     0.06889     0.00000     0.03462    -0.00000
  in kB       0.58057     0.23378     0.23954     0.00000     0.12039    -0.00000
  external pressure =        0.35 kB  Pullay stress =        0.00 kB


 VOLUME and BASIS-vectors are now :
 -----------------------------------------------------------------------------
  energy-cutoff  :      700.00
  volume of cell :      460.79
      direct lattice vectors                 reciprocal lattice vectors
     7.844831412 -0.000000030 -0.000000015     0.127472465  0.000000001  0.000000000
    -0.000000035  7.664070285  0.004310245     0.000000000  0.130479012 -0.000073374
    -0.000000009  0.004309809  7.664061913     0.000000000 -0.000073381  0.130479154

  length of vectors
     7.844831412  7.664071497  7.664063125     0.127472465  0.130479032  0.130479175


 FORCES acting on ions
    electron-ion (+dipol)            ewald-force                    non-local-force                 convergence-correction
 -----------------------------------------------------------------------------------------------
   -.683E-05 0.128E+02 0.128E+02   0.671E-05 -.138E+02 -.138E+02   0.175E-06 0.929E+00 0.929E+00   0.341E-07 0.214E-03 0.225E-03
   0.114E-04 -.128E+02 -.128E+02   -.111E-04 0.138E+02 0.138E+02   -.259E-06 -.929E+00 -.929E+00   0.102E-06 -.197E-03 -.182E-03
   0.115E-04 -.128E+02 -.128E+02   -.112E-04 0.138E+02 0.138E+02   -.264E-06 -.929E+00 -.929E+00   0.106E-06 -.177E-03 -.193E-03
   -.678E-05 0.128E+02 0.128E+02   0.666E-05 -.138E+02 -.138E+02   0.177E-06 0.929E+00 0.929E+00   0.398E-07 0.238E-03 0.226E-03
   -.108E-04 0.128E+02 0.128E+02   0.106E-04 -.138E+02 -.138E+02   0.254E-06 0.929E+00 0.929E+00   -.561E-07 0.179E-03 0.199E-03
   0.735E-05 -.128E+02 -.128E+02   -.719E-05 0.138E+02 0.138E+02   -.183E-06 -.929E+00 -.929E+00   -.110E-06 -.239E-03 -.228E-03
   0.743E-05 -.128E+02 -.128E+02   -.728E-05 0.138E+02 0.138E+02   -.184E-06 -.929E+00 -.929E+00   -.104E-06 -.213E-03 -.223E-03
   -.107E-04 0.128E+02 0.128E+02   0.105E-04 -.138E+02 -.138E+02   0.248E-06 0.929E+00 0.929E+00   -.513E-07 0.205E-03 0.185E-03
   0.780E-06 -.146E-02 0.261E-03   -.632E-06 0.175E-02 -.293E-03   -.209E-06 -.590E-04 0.192E-04   0.175E-07 -.145E-03 0.112E-04
   0.377E-06 -.143E-02 0.243E-03   -.189E-06 0.172E-02 -.275E-03   -.246E-06 -.594E-04 0.205E-04   0.140E-07 -.152E-03 0.979E-05
   -.101E-05 0.134E-02 -.227E-03   0.907E-06 -.162E-02 0.263E-03   0.153E-06 0.771E-04 -.235E-04   -.108E-07 0.120E-03 -.103E-04
   -.307E-06 0.139E-02 -.269E-03   0.130E-06 -.168E-02 0.302E-03   0.227E-06 0.756E-04 -.229E-04   -.610E-08 0.136E-03 -.754E-05
   0.170E-05 0.347E-03 -.157E-02   -.160E-05 -.375E-03 0.188E-02   -.157E-06 0.146E-04 -.517E-04   0.244E-07 0.756E-05 -.169E-03
   0.191E-05 0.169E-03 -.128E-02   -.183E-05 -.207E-03 0.154E-02   -.141E-06 0.270E-04 -.630E-04   0.256E-07 0.134E-04 -.128E-03
   -.190E-05 -.192E-03 0.107E-02   0.188E-05 0.235E-03 -.130E-02   0.114E-06 -.330E-04 0.694E-04   -.429E-07 -.121E-04 0.105E-03
   -.206E-05 -.328E-03 0.161E-02   0.205E-05 0.358E-03 -.193E-02   0.977E-07 -.169E-04 0.768E-04   -.435E-07 -.561E-05 0.151E-03
   0.130E-05 -.124E+02 -.124E+02   -.291E-04 0.159E+02 0.159E+02   -.814E-04 -.350E+01 -.350E+01   0.110E-03 0.119E-03 0.123E-03
   -.128E-03 0.124E+02 0.124E+02   0.156E-03 -.159E+02 -.159E+02   0.748E-04 0.350E+01 0.350E+01   -.101E-03 -.123E-03 -.117E-03
   -.138E-03 0.124E+02 0.124E+02   0.175E-03 -.159E+02 -.159E+02   0.776E-04 0.350E+01 0.350E+01   -.111E-03 -.118E-03 -.121E-03
   -.399E-04 -.124E+02 -.124E+02   0.216E-04 0.159E+02 0.159E+02   -.842E-04 -.350E+01 -.350E+01   0.104E-03 0.125E-03 0.119E-03
   0.376E-05 -.124E+02 -.124E+02   0.258E-04 0.159E+02 0.159E+02   0.797E-04 -.350E+01 -.350E+01   -.110E-03 0.119E-03 0.123E-03
   0.123E-03 0.124E+02 0.124E+02   -.153E-03 -.159E+02 -.159E+02   -.730E-04 0.350E+01 0.350E+01   0.101E-03 -.123E-03 -.117E-03
   0.132E-03 0.124E+02 0.124E+02   -.171E-03 -.159E+02 -.159E+02   -.758E-04 0.350E+01 0.350E+01   0.111E-03 -.118E-03 -.121E-03
   0.448E-04 -.124E+02 -.124E+02   -.248E-04 0.159E+02 0.159E+02   0.825E-04 -.350E+01 -.350E+01   -.104E-03 0.125E-03 0.119E-03
   -.939E-06 -.318E-03 0.180E-03   0.104E-05 0.347E-03 -.181E-03   -.137E-06 -.120E-03 -.677E-05   0.432E-07 0.115E-03 0.842E-05
   -.151E-05 -.333E-03 0.202E-03   0.167E-05 0.367E-03 -.202E-03   -.200E-06 -.117E-03 -.971E-05   0.447E-07 0.109E-03 0.999E-05
   0.106E-05 0.698E-03 -.178E-03   -.114E-05 -.783E-03 0.171E-03   0.110E-06 0.160E-03 0.134E-04   -.389E-07 -.103E-03 -.634E-05
   0.143E-05 0.756E-03 -.128E-03   -.154E-05 -.857E-03 0.124E-03   0.139E-06 0.161E-03 0.131E-04   -.402E-07 -.891E-04 -.940E-05
   -.248E-05 0.315E-03 -.871E-04   0.267E-05 -.311E-03 0.849E-04   -.232E-06 -.121E-04 -.103E-03   0.605E-07 0.599E-05 0.128E-03
   -.265E-05 0.773E-04 -.531E-03   0.284E-05 -.839E-04 0.591E-03   -.249E-06 -.238E-05 -.127E-03   0.629E-07 0.124E-04 0.963E-04
   0.232E-05 -.714E-04 0.788E-03   -.244E-05 0.777E-04 -.889E-03   0.171E-06 0.213E-05 0.149E-03   -.615E-07 -.115E-04 -.784E-04
   0.255E-05 -.243E-03 0.612E-03   -.269E-05 0.229E-03 -.686E-03   0.185E-06 0.216E-04 0.161E-03   -.593E-07 -.428E-05 -.114E-03
 -----------------------------------------------------------------------------------------------
   0.366E-06 0.263E-04 0.246E-04   -.180E-13 -.679E-13 0.498E-13   -.320E-06 -.312E-04 -.294E-04   -.229E-07 0.145E-04 0.146E-04
 
 
 POSITION                                       TOTAL-FORCE (eV/Angst)
 -----------------------------------------------------------------------------------
     -0.00000      7.57540      7.57539         0.000000     -0.000080      0.000047
      7.84483      0.09514      3.92501         0.000000      0.000045     -0.000080
      7.84483      3.92502      0.09514         0.000000      0.000047     -0.000082
      0.00000      3.74121      3.74120         0.000000     -0.000076      0.000052
      3.92242      7.57540      7.57539        -0.000000     -0.000028      0.000096
      3.92242      0.09514      3.92501        -0.000000      0.000074     -0.000064
      3.92242      3.92502      0.09514        -0.000000      0.000067     -0.000054
      3.92242      3.74121      3.74120        -0.000000     -0.000037      0.000098
     -0.00000      1.91817      3.83311        -0.000000      0.000082     -0.000002
     -0.00000      5.75236      7.66729        -0.000000      0.000083     -0.000002
      3.92242      1.91817      3.83311         0.000000     -0.000075      0.000001
      3.92242      5.75236      7.66729         0.000000     -0.000081      0.000003
      7.84483      7.66730      5.75235        -0.000000     -0.000006      0.000094
      7.84483      3.83311      1.91817        -0.000000      0.000002      0.000070
      3.92242      0.00323      5.74805         0.000000     -0.000003     -0.000061
      3.92242      3.83311      1.91817         0.000000      0.000007     -0.000095
      1.96121      0.05709      0.05709         0.000001      0.003177      0.003172
      1.96121      7.60914      3.77925         0.000002     -0.003187     -0.003178
      1.96121      3.77925      7.60913         0.000003     -0.003180     -0.003175
      1.96121      3.89128      3.89128         0.000001      0.003184      0.003173
      5.88362      0.05709      0.05709        -0.000001      0.003177      0.003172
      5.88362      7.60914      3.77925        -0.000002     -0.003187     -0.003178
      5.88362      3.77925      7.60913        -0.000003     -0.003180     -0.003175
      5.88362      3.89128      3.89128        -0.000001      0.003184      0.003173
     -0.00000      1.92033      7.66514         0.000000      0.000024      0.000000
     -0.00000      5.75021      3.83526        -0.000000      0.000025      0.000000
      3.92242      1.92033      7.66514        -0.000000     -0.000028      0.000000
      3.92242      5.75021      3.83526        -0.000000     -0.000029     -0.000001
     -0.00000      7.66515      1.92033         0.000000     -0.000003      0.000022
     -0.00000      3.83527      5.75020         0.000000      0.000003      0.000029
      3.92242      7.66515      1.92033        -0.000000     -0.000003     -0.000031
      3.92242      3.83527      5.75020        -0.000000      0.000003     -0.000026
 -----------------------------------------------------------------------------------
    total drift:                                0.000000      0.000010      0.000010


--------------------------------------------------------------------------------------------------------



  FREE ENERGIE OF THE ION-ELECTRON SYSTEM (eV)
  ---------------------------------------------------
  free  energy   TOTEN  =      -213.60431957 eV

  energy  without entropy=     -213.60431957  energy(sigma->0) =     -213.60431957
 


--------------------------------------------------------------------------------------------------------


    POTLOK:  cpu time    0.9918: real time    0.9898


--------------------------------------------------------------------------------------------------------


 stress matrix after NEB project (eV)
      0.16697      0.00000     -0.00000
      0.00000      0.06724      0.03462
     -0.00000      0.03462      0.06889
  FORCES: max atom, RMS     0.004501    0.002248
  FORCE total and by dimension    0.012718    0.003187
  Stress total and by dimension    0.198858    0.166973
 Quasi-Newton relaxation of ions (Broydens 2nd method)
  g(Force)  = 0.780E-05   g(Stress)= 0.596E-04

 Reset! Starting new Quasi-Newton update for ions 


--------------------------------------------------------------------------------------------------------


  
 reached required accuracy - stopping structural energy minimisation
 writing wavefunctions
     LOOP+:  cpu time  196.5111: real time  199.1328
    4ORBIT:  cpu time    0.0000: real time    0.0000
 


 total charge     
 
# of ion       s       p       d       tot
------------------------------------------
    1        0.318   6.464   1.761   8.543
    2        0.318   6.464   1.761   8.543
    3        0.318   6.464   1.761   8.543
    4        0.318   6.464   1.761   8.543
    5        0.318   6.464   1.761   8.543
    6        0.318   6.464   1.761   8.543
    7        0.318   6.464   1.761   8.543
    8        0.318   6.464   1.761   8.543
    9        1.570   3.474   0.000   5.044
   10        1.570   3.474   0.000   5.044
   11        1.570   3.474   0.000   5.044
   12        1.570   3.474   0.000   5.044
   13        1.570   3.474   0.000   5.044
   14        1.570   3.474   0.000   5.044
   15        1.570   3.474   0.000   5.044
   16        1.570   3.474   0.000   5.044
   17        1.729   4.383   0.000   6.112
   18        1.729   4.383   0.000   6.112
   19        1.729   4.383   0.000   6.112
   20        1.729   4.383   0.000   6.112
   21        1.729   4.383   0.000   6.112
   22        1.729   4.383   0.000   6.112
   23        1.729   4.383   0.000   6.112
   24        1.729   4.383   0.000   6.112
   25        1.729   4.378   0.000   6.108
   26        1.729   4.378   0.000   6.108
   27        1.729   4.378   0.000   6.108
   28        1.729   4.378   0.000   6.108
   29        1.729   4.378   0.000   6.108
   30        1.729   4.378   0.000   6.108
   31        1.729   4.378   0.000   6.108
   32        1.729   4.378   0.000   6.108
--------------------------------------------------
tot         42.772 149.594  14.085 206.451
 


 magnetization (x)
 
# of ion       s       p       d       tot
------------------------------------------
    1        0.000  -0.000   0.000   0.000
    2       -0.000  -0.000   0.000   0.000
    3       -0.000  -0.000   0.000   0.000
    4        0.000  -0.000   0.000   0.000
    5       -0.000   0.000  -0.000  -0.000
    6       -0.000   0.000  -0.000  -0.000
    7       -0.000   0.000  -0.000  -0.000
    8       -0.000   0.000  -0.000  -0.000
    9       -0.000  -0.000   0.000  -0.000
   10       -0.000  -0.000   0.000  -0.000
   11        0.000   0.000   0.000   0.000
   12        0.000   0.000   0.000   0.000
   13       -0.000   0.000   0.000   0.000
   14       -0.000   0.000   0.000   0.000
   15        0.000   0.000   0.000   0.000
   16        0.000   0.000   0.000   0.000
   17        0.000   0.000   0.000   0.000
   18       -0.000   0.000   0.000   0.000
   19       -0.000   0.000   0.000   0.000
   20        0.000   0.000   0.000   0.000
   21        0.000   0.000   0.000   0.000
   22       -0.000   0.000   0.000   0.000
   23       -0.000   0.000   0.000   0.000
   24        0.000   0.000   0.000   0.000
   25        0.000   0.000   0.000   0.000
   26        0.000   0.000   0.000   0.000
   27        0.000  -0.000   0.000  -0.000
   28        0.000  -0.000   0.000  -0.000
   29       -0.000   0.000   0.000  -0.000
   30       -0.000  -0.000   0.000  -0.000
   31       -0.000  -0.000   0.000  -0.000
   32        0.000  -0.000   0.000  -0.000
--------------------------------------------------
tot         -0.000   0.000  -0.000   0.000
 

 total amount of memory used by VASP MPI-rank0   106699. kBytes
=======================================================================

   base      :      30000. kBytes
   nonlr-proj:       8579. kBytes
   fftplans  :       8423. kBytes
   grid      :       8783. kBytes
   one-center:        124. kBytes
   wavefun   :      50790. kBytes
 
  
  
 General timing and accounting informations for this job:
 ========================================================
  
                  Total CPU time used (sec):      246.246
                            User time (sec):      210.627
                          System time (sec):       35.619
                         Elapsed time (sec):      262.389
  
                   Maximum memory used (kb):      224768.
                   Average memory used (kb):           0.
  
                          Minor page faults:       101578
                          Major page faults:           11
                 Voluntary context switches:        66856
