LTO                                     
           1
     7.843536   -0.001554   -0.001268
    -0.001554    7.843535    0.001271
    -0.001298    0.001301    7.526218
   Ti   O    F 
   8   8  16
Direct configuration=     1
   0.00014589  0.00014578  0.00003744
   0.00042862  0.00042860  0.50004258
   0.00206811  0.50021869  0.98252070
   0.97840489  0.49985688  0.50229163
   0.50021882  0.00206810  0.01747668
   0.49985702  0.97840477  0.49770632
   0.50111330  0.50111334  0.00000006
   0.50324363  0.50324350  0.50000013
   0.75418928  0.49876363  0.49688558
   0.49876369  0.75418925  0.50311442
   0.99994998  0.99994284  0.24832567
   0.99994221  0.99994983  0.75164817
   0.00244991  0.50034128  0.75205805
   0.50034169  0.00244978  0.24793917
   0.49932264  0.49960829  0.24448050
   0.49960829  0.49932259  0.75551947
   0.25214866  0.00033608  0.99584784
   0.24938170  0.00235190  0.50432342
   0.24663306  0.50092339  0.00450974
   0.24368619  0.49795363  0.49675794
   0.74829995  0.00034255  0.99586439
   0.75093928  0.00249355  0.50418521
   0.75657619  0.50086188  0.00640271
   0.00033629  0.25214946  0.00414167
   0.00235193  0.24938055  0.49566497
   0.00034236  0.74829918  0.00412567
   0.00249355  0.75094021  0.49580359
   0.50092205  0.24663320  0.99548985
   0.49795370  0.24368614  0.50324190
   0.50086196  0.75657609  0.99359711
   0.00658071  0.50044417  0.24452767
   0.50044448  0.00658085  0.75546974
