       N       E                     dE             d eps       ncg     rms          rms(c)
DAV:   1    -0.209261681182E+03   -0.20926E+03   -0.80605E-01  2560   0.582E+00    0.319E-01
DAV:   2    -0.209281863239E+03   -0.20182E-01   -0.67146E-03  3424   0.414E-01    0.122E+00
DAV:   3    -0.209265060260E+03    0.16803E-01   -0.51415E-03  3456   0.364E-01    0.822E-01
DAV:   4    -0.209263490194E+03    0.15701E-02   -0.33694E-04  3040   0.493E-02    0.731E-01
DAV:   5    -0.209261738434E+03    0.17518E-02   -0.12074E-04  3552   0.697E-02    0.264E-01
DAV:   6    -0.209270723788E+03   -0.89854E-02   -0.21781E-04  3552   0.702E-02    0.419E+00
DAV:   7    -0.209260996111E+03    0.97277E-02   -0.33826E-04  3136   0.995E-02    0.339E-01
DAV:   8    -0.209262001366E+03   -0.10053E-02   -0.12430E-04  2592   0.447E-02    0.393E-01
DAV:   9    -0.209261936544E+03    0.64821E-04   -0.70143E-05  3200   0.280E-02    0.259E-01
DAV:  10    -0.209262146042E+03   -0.20950E-03   -0.18491E-05  3200   0.225E-02    0.400E-01
DAV:  11    -0.209261991219E+03    0.15482E-03   -0.81668E-06  2752   0.117E-02    0.282E-01
DAV:  12    -0.209261892827E+03    0.98391E-04   -0.60219E-06  2912   0.993E-03    0.408E-02
DAV:  13    -0.209261898653E+03   -0.58255E-05   -0.23423E-06  1952   0.539E-03    0.612E-02
DAV:  14    -0.209261895396E+03    0.32572E-05   -0.48106E-07  1376   0.366E-03    0.128E-02
DAV:  15    -0.209261895600E+03   -0.20398E-06   -0.11224E-07  1280   0.132E-03
   1 F= -.20926190E+03 E0= -.20925943E+03  d E =-.209262E+03  mag=     0.0000
