 vasp.5.4.4.18Apr17-6-g9f103f2a35 (build Apr 30 2017 20:10:35) complex          
  
 executed on             LinuxIFC date 2017.08.03  19:36:10
 running on   64 total cores
 distrk:  each k-point on   64 cores,    1 groups
 distr:  one band on NCORES_PER_BAND=   8 cores,    8 groups


--------------------------------------------------------------------------------------------------------


 INCAR:
 POTCAR:   PAW_PBE Ti_pv 07Sep2000                
 POTCAR:   PAW_PBE O 08Apr2002                    
 POTCAR:    PAW_PBE F 08Apr2002                   
 POTCAR:   PAW_PBE Ti_pv 07Sep2000                
   VRHFIN =Ti: d3 s1                                                            
   LEXCH  = PE                                                                  
   EATOM  =  1042.3781 eV,   76.6126 Ry                                         
                                                                                
   TITEL  = PAW_PBE Ti_pv 07Sep2000                                             
   LULTRA =        F    use ultrasoft PP ?                                      
   IUNSCR =        1    unscreen: 0-lin 1-nonlin 2-no                           
   RPACOR =    2.200    partial core radius                                     
   POMASS =   47.880; ZVAL   =   10.000    mass and valenz                      
   RCORE  =    2.500    outmost cutoff radius                                   
   RWIGS  =    2.500; RWIGS  =    1.323    wigner-seitz radius (au A)           
   ENMAX  =  222.338; ENMIN  =  166.753 eV                                      
   RCLOC  =    1.701    cutoff for local pot                                    
   LCOR   =        T    correct aug charges                                     
   LPAW   =        T    paw PP                                                  
   EAUG   =  482.848                                                            
   DEXC   =    -.008                                                            
   RMAX   =    3.092    core radius for proj-oper                               
   RAUG   =    1.300    factor for augmentation sphere                          
   RDEP   =    2.538    radius for radial grids                                 
   QCUT   =   -4.042; QGAM   =    8.085    optimization parameters              
                                                                                
   Description                                                                  
     l     E      TYP  RCUT    TYP  RCUT                                        
     1   .000     23  2.300                                                     
     1  -.100     23  2.300                                                     
     2   .000     23  2.500                                                     
     2   .000     23  2.500                                                     
     0   .000     23  2.500                                                     
     0  1.500     23  2.500                                                     
     3   .000      7   .000                                                     
  local pseudopotential read in
  partial core-charges read in
  atomic valenz-charges read in
  non local Contribution for L=           1  read in
    real space projection operators read in
  non local Contribution for L=           1  read in
    real space projection operators read in
  non local Contribution for L=           2  read in
    real space projection operators read in
  non local Contribution for L=           2  read in
    real space projection operators read in
  non local Contribution for L=           0  read in
    real space projection operators read in
  non local Contribution for L=           0  read in
    real space projection operators read in
    PAW grid and wavefunctions read in
 
   number of l-projection  operators is LMAX  =           6
   number of lm-projection operators is LMMAX =          18
 
 POTCAR:   PAW_PBE O 08Apr2002                    
   VRHFIN =O: s2p4                                                              
   LEXCH  = PE                                                                  
   EATOM  =   432.3788 eV,   31.7789 Ry                                         
                                                                                
   TITEL  = PAW_PBE O 08Apr2002                                                 
   LULTRA =        F    use ultrasoft PP ?                                      
   IUNSCR =        0    unscreen: 0-lin 1-nonlin 2-no                           
   RPACOR =     .000    partial core radius                                     
   POMASS =   16.000; ZVAL   =    6.000    mass and valenz                      
   RCORE  =    1.520    outmost cutoff radius                                   
   RWIGS  =    1.550; RWIGS  =     .820    wigner-seitz radius (au A)           
   ENMAX  =  400.000; ENMIN  =  300.000 eV                                      
   ICORE  =        2    local potential                                         
   LCOR   =        T    correct aug charges                                     
   LPAW   =        T    paw PP                                                  
   EAUG   =  605.392                                                            
   DEXC   =     .000                                                            
   RMAX   =    2.264    core radius for proj-oper                               
   RAUG   =    1.300    factor for augmentation sphere                          
   RDEP   =    1.550    radius for radial grids                                 
   QCUT   =   -5.520; QGAM   =   11.041    optimization parameters              
                                                                                
   Description                                                                  
     l     E      TYP  RCUT    TYP  RCUT                                        
     0   .000     23  1.200                                                     
     0  -.700     23  1.200                                                     
     1   .000     23  1.520                                                     
     1   .600     23  1.520                                                     
     2   .000      7  1.500                                                     
  local pseudopotential read in
  atomic valenz-charges read in
  non local Contribution for L=           0  read in
    real space projection operators read in
  non local Contribution for L=           0  read in
    real space projection operators read in
  non local Contribution for L=           1  read in
    real space projection operators read in
  non local Contribution for L=           1  read in
    real space projection operators read in
    PAW grid and wavefunctions read in
 
   number of l-projection  operators is LMAX  =           4
   number of lm-projection operators is LMMAX =           8
 
 POTCAR:    PAW_PBE F 08Apr2002                   
   VRHFIN =F: s2p5                                                              
   LEXCH  = PE                                                                  
   EATOM  =   659.6475 eV,   48.4827 Ry                                         
                                                                                
   TITEL  = PAW_PBE F 08Apr2002                                                 
   LULTRA =        F    use ultrasoft PP ?                                      
   IUNSCR =        1    unscreen: 0-lin 1-nonlin 2-no                           
   RPACOR =    1.200    partial core radius                                     
   POMASS =   18.998; ZVAL   =    7.000    mass and valenz                      
   RCORE  =    1.520    outmost cutoff radius                                   
   RWIGS  =    1.500; RWIGS  =    0.794    wigner-seitz radius (au A)           
   ENMAX  =  400.000; ENMIN  =  300.000 eV                                      
   ICORE  =        2    local potential                                         
   LCOR   =        T    correct aug charges                                     
   LPAW   =        T    paw PP                                                  
   EAUG   =  613.614                                                            
   RMAX   =    1.555    core radius for proj-oper                               
   RAUG   =    1.300    factor for augmentation sphere                          
   RDEP   =    1.539    radius for radial grids                                 
   RDEPT  =    1.299    core radius for aug-charge                              
                                                                                
   Atomic configuration                                                         
    4 entries                                                                   
     n  l   j            E        occ.                                          
     1  0  0.50      -663.3661   2.0000                                         
     2  0  0.50       -29.8995   2.0000                                         
     2  1  0.50       -11.1114   5.0000                                         
     3  2  1.50       -10.8847   0.0000                                         
   Description                                                                  
     l       E           TYP  RCUT    TYP  RCUT                                 
     0    -29.8995018     23  1.200                                             
     0     -9.5240782     23  1.200                                             
     1    -11.1113914     23  1.520                                             
     1      1.3605826     23  1.520                                             
     2    -10.8846608      7  1.500                                             
  local pseudopotential read in
  partial core-charges read in
  partial kinetic energy density read in
  atomic valenz-charges read in
  non local Contribution for L=           0  read in
    real space projection operators read in
  non local Contribution for L=           0  read in
    real space projection operators read in
  non local Contribution for L=           1  read in
    real space projection operators read in
  non local Contribution for L=           1  read in
    real space projection operators read in
    PAW grid and wavefunctions read in
 
   number of l-projection  operators is LMAX  =           4
   number of lm-projection operators is LMMAX =           8
 
 Optimization of the real space projectors (new method)

 maximal supplied QI-value         = 15.12
 optimisation between [QCUT,QGAM] = [ 13.45, 27.06] = [ 50.69,205.06] Ry 
 Optimized for a Real-space Cutoff    1.49 Angstroem

   l    n(q)    QCUT    max X(q) W(low)/X(q) W(high)/X(q)  e(spline) 
   1     12    13.455     4.841    0.13E-05    0.83E-06    0.56E-07
   1     12    13.455     5.701    0.32E-04    0.25E-04    0.17E-06
   2     11    13.455     4.569    0.64E-05    0.34E-05    0.50E-07
   2     11    13.455    32.276    0.49E-04    0.38E-04    0.46E-06
   0     12    13.455    30.046    0.17E-04    0.41E-05    0.51E-07
   0     12    13.455    45.433    0.12E-04    0.27E-04    0.38E-06
 Optimization of the real space projectors (new method)

 maximal supplied QI-value         = 24.76
 optimisation between [QCUT,QGAM] = [ 13.37, 26.98] = [ 50.04,203.89] Ry 
 Optimized for a Real-space Cutoff    1.17 Angstroem

   l    n(q)    QCUT    max X(q) W(low)/X(q) W(high)/X(q)  e(spline) 
   0      9    13.368     4.192    0.20E-04    0.58E-05    0.56E-07
   0      9    13.368     8.473    0.60E-04    0.52E-04    0.21E-06
   1      9    13.368     2.474    0.22E-04    0.17E-04    0.28E-07
   1      9    13.368     3.912    0.94E-04    0.97E-04    0.20E-06
 Optimization of the real space projectors (new method)

 maximal supplied QI-value         = 24.76
 optimisation between [QCUT,QGAM] = [ 13.37, 26.98] = [ 50.04,203.89] Ry 
 Optimized for a Real-space Cutoff    1.17 Angstroem

   l    n(q)    QCUT    max X(q) W(low)/X(q) W(high)/X(q)  e(spline) 
   0      9    13.368    14.049    0.39E-04    0.34E-04    0.16E-06
   0      9    13.368     8.945    0.54E-04    0.47E-04    0.20E-06
   1      9    13.368     7.086    0.99E-04    0.10E-03    0.23E-06
   1      9    13.368     6.747    0.86E-04    0.89E-04    0.21E-06

 ----------------------------------------------------------------------------- 
|                                                                             |
|  ADVICE TO THIS USER RUNNING 'VASP/VAMP'   (HEAR YOUR MASTER'S VOICE ...):  |
|                                                                             |
|      You enforced a specific xc-type in the INCAR file,                     |
|      a different type was found on the POTCAR file                          |
|          I HOPE YOU KNOW, WHAT YOU ARE  DOING                               |
|                                                                             |
 ----------------------------------------------------------------------------- 

 PAW_PBE Ti_pv 07Sep2000                :
 energy of atom  1       EATOM=-1042.3781
 kinetic energy error for atom=    0.0006 (will be added to EATOM!!)
 PAW_PBE O 08Apr2002                    :
 energy of atom  2       EATOM= -432.3788
 kinetic energy error for atom=    0.0091 (will be added to EATOM!!)
  PAW_PBE F 08Apr2002                   :
 energy of atom  3       EATOM= -659.6475
 kinetic energy error for atom=    0.0140 (will be added to EATOM!!)
 
 
 POSCAR: TiOF2 2x2x2 config 0014                 
  positions in direct lattice
  velocities in cartesian coordinates
 exchange correlation table for  LEXCH =       14
   RHO(1)=    0.500       N(1)  =     2000
   RHO(2)=  100.500       N(2)  =     4000

 VTST: version 3.1, (03/28/14)

 CHAIN: initializing optimizer
 
 OPT: Using VASP QUASI-newton optimizer
 CHAIN: Read ICHAIN            0
 
 POSCAR: TiOF2 2x2x2 config 0014                 
  positions in direct lattice
  velocities in cartesian coordinates
 


--------------------------------------------------------------------------------------------------------


 ion  position               nearest neighbor table
   1  1.000  1.000  0.988-  11 1.79  21 1.90  17 1.90  27 1.95  25 1.95  31 1.97
   2  0.000  0.000  0.510-  11 1.82  18 1.88  22 1.88  26 1.95  28 1.95  31 1.97
   3  1.000  0.500  0.988-  12 1.79  23 1.90  19 1.90  27 1.95  25 1.95  32 1.97
   4  0.000  0.500  0.510-  12 1.82  20 1.88  24 1.88  26 1.95  28 1.95  32 1.97
   5  0.500  1.000  0.000-  13 1.83  14 1.83  30 1.94  29 1.94  21 2.08  17 2.08
   6  0.500  1.000  0.500-  13 1.94  10 1.94   9 1.94  14 1.95  18 2.10  22 2.10
   7  0.500  0.500  0.000-  15 1.83  16 1.83  30 1.94  29 1.94  23 2.08  19 2.08
   8  0.500  0.500  0.500-  15 1.94  10 1.94   9 1.94  16 1.95  20 2.10  24 2.10
   9  0.500  0.250  0.500-   8 1.94   6 1.94
  10  0.500  0.750  0.500-   6 1.94   8 1.94
  11  1.000  1.000  0.751-   1 1.79   2 1.82
  12  1.000  0.500  0.751-   3 1.79   4 1.82
  13  0.500  1.000  0.243-   5 1.83   6 1.94
  14  0.500  1.000  0.758-   5 1.83   6 1.95
  15  0.500  0.500  0.243-   7 1.83   8 1.94
  16  0.500  0.500  0.758-   7 1.83   8 1.95
  17  0.238  1.000  0.005-   1 1.90   5 2.08
  18  0.236  0.000  0.495-   2 1.88   6 2.10
  19  0.238  0.500  0.005-   3 1.90   7 2.08
  20  0.236  0.500  0.495-   4 1.88   8 2.10
  21  0.762  1.000  0.005-   1 1.90   5 2.08
  22  0.764  0.000  0.495-   2 1.88   6 2.10
  23  0.762  0.500  0.005-   3 1.90   7 2.08
  24  0.764  0.500  0.495-   4 1.88   8 2.10
  25  1.000  0.250  0.008-   3 1.95   1 1.95
  26  0.000  0.250  0.493-   4 1.95   2 1.95
  27  1.000  0.750  0.008-   3 1.95   1 1.95
  28  0.000  0.750  0.493-   4 1.95   2 1.95
  29  0.500  0.250  0.000-   5 1.94   7 1.94
  30  0.500  0.750  0.000-   7 1.94   5 1.94
  31  1.000  1.000  0.249-   2 1.97   1 1.97
  32  1.000  0.500  0.249-   4 1.97   3 1.97
 

IMPORTANT INFORMATION: All symmetrisations will be switched off!
NOSYMM: (Re-)initialisation of all symmetry stuff for point group C_1.

 
 
 KPOINTS: Title                                   

Automatic generation of k-mesh.
Space group operators:
 irot       det(A)        alpha          n_x          n_y          n_z        tau_x        tau_y        tau_z
    1     1.000000     0.000000     1.000000     0.000000     0.000000     0.000000     0.000000     0.000000
 
 Subroutine IBZKPT returns following result:
 ===========================================
 
 Found      4 irreducible k-points:
 
 Following reciprocal coordinates:
            Coordinates               Weight
  0.250000  0.250000  0.250000      2.000000
 -0.250000  0.250000  0.250000      2.000000
  0.250000 -0.250000  0.250000      2.000000
 -0.250000 -0.250000  0.250000      2.000000
 
 Following cartesian coordinates:
            Coordinates               Weight
  0.031489  0.032178  0.033090      2.000000
 -0.031489  0.032178  0.033090      2.000000
  0.031489 -0.032178  0.033090      2.000000
 -0.031489 -0.032178  0.033090      2.000000
 


--------------------------------------------------------------------------------------------------------




 Dimension of arrays:
   k-points           NKPTS =      4   k-points in BZ     NKDIM =      4   number of bands    NBANDS=    160
   number of dos      NEDOS =   3001   number of ions     NIONS =     32
   non local maximal  LDIM  =      6   non local SUM 2l+1 LMDIM =     18
   total plane-waves  NPLWV = 343000
   max r-space proj   IRMAX =  10205   max aug-charges    IRDMAX= 228781
   dimension x,y,z NGX =    70 NGY =   70 NGZ =   70
   dimension x,y,z NGXF=   140 NGYF=  140 NGZF=  140
   support grid    NGXF=   280 NGYF=  280 NGZF=  280
   ions per type =               8   8  16
   NGX,Y,Z   is equivalent  to a cutoff of  14.66, 14.98, 15.40 a.u.
   NGXF,Y,Z  is equivalent  to a cutoff of  29.32, 29.96, 30.81 a.u.

 SYSTEM =  LTO                                     
 POSCAR =  TiOF2 2x2x2 config 0014                 

 Startparameter for this run:
   NWRITE =      2    write-flag & timer
   PREC   = accura    normal or accurate (medium, high low for compatibility)
   ISTART =      1    job   : 0-new  1-cont  2-samecut
   ICHARG =      0    charge: 1-file 2-atom 10-const
   ISPIN  =      2    spin polarized calculation?
   LNONCOLLINEAR =      F non collinear calculations
   LSORBIT =      F    spin-orbit coupling
   INIWAV =      1    electr: 0-lowe 1-rand  2-diag
   LASPH  =      T    aspherical Exc in radial PAW
   METAGGA=      F    non-selfconsistent MetaGGA calc.

 Electronic Relaxation 1
   ENCUT  =  700.0 eV  51.45 Ry    7.17 a.u.  17.13 16.76 16.30*2*pi/ulx,y,z
   ENINI  =  700.0     initial cutoff
   ENAUG  =  613.6 eV  augmentation charge cutoff
   NELM   =     60;   NELMIN=  2; NELMDL=  0     # of ELM steps 
   EDIFF  = 0.1E-05   stopping-criterion for ELM
   LREAL  =      T    real-space projection
   NLSPLINE    = F    spline interpolate recip. space projectors
   LCOMPAT=      F    compatible to vasp.4.4
   GGA_COMPAT  = T    GGA compatible to vasp.4.4-vasp.4.6
   LMAXPAW     = -100 max onsite density
   LMAXMIX     =    4 max onsite mixed and CHGCAR
   VOSKOWN=      0    Vosko Wilk Nusair interpolation
   ROPT   =   -0.00010  -0.00010  -0.00010
 Ionic relaxation
   EDIFFG = -.1E-01   stopping-criterion for IOM
   NSW    =    100    number of steps for IOM
   NBLOCK =      1;   KBLOCK =    100    inner block; outer block 
   IBRION =      1    ionic relax: 0-MD 1-quasi-New 2-CG
   NFREE  =      0    steps in history (QN), initial steepest desc. (CG)
   ISIF   =      3    stress and relaxation
   IWAVPR =     11    prediction:  0-non 1-charg 2-wave 3-comb
   ISYM   =      0    0-nonsym 1-usesym 2-fastsym
   LCORR  =      T    Harris-Foulkes like correction to forces

   POTIM  = 0.5000    time-step for ionic-motion
   TEIN   =    0.0    initial temperature
   TEBEG  =    0.0;   TEEND  =   0.0 temperature during run
   SMASS  =  -3.00    Nose mass-parameter (am)
   estimated Nose-frequenzy (Omega)   =  0.10E-29 period in steps =****** mass=  -0.144E-26a.u.
   SCALEE = 1.0000    scale energy and forces
   NPACO  =    256;   APACO  = 16.0  distance and # of slots for P.C.
   PSTRESS=    0.0 pullay stress

  Mass of Ions in am
   POMASS =  47.88 16.00 19.00
  Ionic Valenz
   ZVAL   =  10.00  6.00  7.00
  Atomic Wigner-Seitz radii
   RWIGS  =  -1.00 -1.00 -1.00
  virtual crystal weights 
   VCA    =   1.00  1.00  1.00
   NELECT =     240.0000    total number of electrons
   NUPDOWN=      -1.0000    fix difference up-down

 DOS related values:
   EMIN   =  10.00;   EMAX   =-10.00  energy-range for DOS
   EFERMI =   0.00
   ISMEAR =     0;   SIGMA  =   0.01  broadening in eV -4-tet -1-fermi 0-gaus

 Electronic relaxation 2 (details)
   IALGO  =     38    algorithm
   LDIAG  =      T    sub-space diagonalisation (order eigenvalues)
   LSUBROT=      F    optimize rotation matrix (better conditioning)
   TURBO    =      0    0=normal 1=particle mesh
   IRESTART =      0    0=no restart 2=restart with 2 vectors
   NREBOOT  =      0    no. of reboots
   NMIN     =      0    reboot dimension
   EREF     =   0.00    reference energy to select bands
   IMIX   =      4    mixing-type and parameters
     AMIX     =   0.40;   BMIX     =  1.00
     AMIX_MAG =   1.60;   BMIX_MAG =  1.00
     AMIN     =   0.10
     WC   =   100.;   INIMIX=   1;  MIXPRE=   1;  MAXMIX= -45

 Intra band minimization:
   WEIMIN = 0.0010     energy-eigenvalue tresh-hold
   EBREAK =  0.16E-08  absolut break condition
   DEPER  =   0.30     relativ break condition  

   TIME   =   0.40     timestep for ELM

  volume/ion in A,a.u.               =      14.56        98.27
  Fermi-wavevector in a.u.,A,eV,Ry     =   1.312240  2.479773 23.428866  1.721973
  Thomas-Fermi vector in A             =   2.442646
 
 Write flags
   LWAVE        =      T    write WAVECAR
   LDOWNSAMPLE  =      F    k-point downsampling of WAVECAR
   LCHARG       =      T    write CHGCAR
   LVTOT        =      F    write LOCPOT, total local potential
   LVHAR        =      F    write LOCPOT, Hartree potential only
   LELF         =      F    write electronic localiz. function (ELF)
   LORBIT       =     11    0 simple, 1 ext, 2 COOP (PROOUT), +10 PAW based schemes


 Dipole corrections
   LMONO  =      F    monopole corrections only (constant potential shift)
   LDIPOL =      F    correct potential (dipole corrections)
   IDIPOL =      0    1-x, 2-y, 3-z, 4-all directions 
   EPSILON=  1.0000000 bulk dielectric constant

 LDA+U is selected, type is set to LDAUTYPE =  2
   angular momentum for each species LDAUL =     2   -1   -1
   U (eV)           for each species LDAUU =   4.2  0.0  0.0
   J (eV)           for each species LDAUJ =   0.0  0.0  0.0
 Exchange correlation treatment:
   GGA     =    PS    GGA type
   LEXCH   =    14    internal setting for exchange type
   VOSKOWN=      0    Vosko Wilk Nusair interpolation
   LHFCALC =     F    Hartree Fock is set to
   LHFONE  =     F    Hartree Fock one center treatment
   AEXX    =    0.0000 exact exchange contribution

 Linear response parameters
   LEPSILON=     F    determine dielectric tensor
   LRPA    =     F    only Hartree local field effects (RPA)
   LNABLA  =     F    use nabla operator in PAW spheres
   LVEL    =     F    velocity operator in full k-point grid
   LINTERFAST=   F  fast interpolation
   KINTER  =     0    interpolate to denser k-point grid
   CSHIFT  =0.1000    complex shift for real part using Kramers Kronig
   OMEGAMAX=  -1.0    maximum frequency
   DEG_THRESHOLD= 0.2000000E-02 threshold for treating states as degnerate
   RTIME   =   -0.100 relaxation time in fs
  (WPLASMAI=    0.000 imaginary part of plasma frequency in eV, 0.658/RTIME)
   DFIELD  = 0.0000000 0.0000000 0.0000000 field for delta impulse in time
 
 Orbital magnetization related:
   ORBITALMAG=     F  switch on orbital magnetization
   LCHIMAG   =     F  perturbation theory with respect to B field
   DQ        =  0.001000  dq finite difference perturbation B field
   LLRAUG    =     F  two centre corrections for induced B field



--------------------------------------------------------------------------------------------------------


 quasi-Newton-method for relaxation of ions
 charge density and potential will be updated during run
 spin polarized calculation
 Variant of blocked Davidson
 Davidson routine will perform the subspace rotation
 perform sub-space diagonalisation
    after iterative eigenvector-optimisation
 modified Broyden-mixing scheme, WC =      100.0
 initial mixing is a Kerker type mixing with AMIX =  0.4000 and BMIX =      1.0000
 Hartree-type preconditioning will be used
 using additional bands           40
 real space projection scheme for non local part
 use partial core corrections
 calculate Harris-corrections to forces 
   (improved forces if not selfconsistent)
 use gradient corrections 
 use of overlap-Matrix (Vanderbilt PP)
 Gauss-broadening in eV      SIGMA  =   0.01


--------------------------------------------------------------------------------------------------------


  energy-cutoff  :      700.00
  volume of cell :      466.01
      direct lattice vectors                 reciprocal lattice vectors
     7.939178245 -0.000000002  0.000000008     0.125957620 -0.000000000 -0.000000000
     0.000000001  7.769330120 -0.000000009     0.000000000  0.128711225  0.000000000
     0.000000010 -0.000000011  7.555045522    -0.000000000  0.000000000  0.132361876

  length of vectors
     7.939178245  7.769330120  7.555045522     0.125957620  0.128711225  0.132361876


 
 old parameters found on file WAVECAR:
  energy-cutoff  :      700.00
  volume of cell :      438.28
      direct lattice vectors                 reciprocal lattice vectors
     7.596000000  0.000000000  0.000000000     0.131648236  0.000000000  0.000000000
     0.000000000  7.596000000  0.000000000     0.000000000  0.131648236  0.000000000
     0.000000000  0.000000000  7.596000000     0.000000000  0.000000000  0.131648236

  length of vectors

 
 k-points in units of 2pi/SCALE and weight: Title                                   
   0.03148941  0.03217781  0.03309047       0.250
  -0.03148941  0.03217781  0.03309047       0.250
   0.03148941 -0.03217781  0.03309047       0.250
  -0.03148941 -0.03217781  0.03309047       0.250
 
 k-points in reciprocal lattice and weights: Title                                   
   0.25000000  0.25000000  0.25000000       0.250
  -0.25000000  0.25000000  0.25000000       0.250
   0.25000000 -0.25000000  0.25000000       0.250
  -0.25000000 -0.25000000  0.25000000       0.250
 
 position of ions in fractional coordinates (direct lattice) 
   0.99999999  0.99999997  0.98837458
   0.00000000  0.00000004  0.50976284
   0.99999999  0.50000003  0.98837534
   0.00000000  0.49999995  0.50976245
   0.50000000  0.99999975  0.00037475
   0.50000000  0.99999876  0.49957652
   0.50000000  0.50000029  0.00037477
   0.50000000  0.50000084  0.49957645
   0.50000000  0.25000011  0.50035127
   0.50000000  0.75000006  0.50035028
   1.00000000  0.99999987  0.75089173
   1.00000000  0.50000013  0.75089136
   0.50000000  0.99999836  0.24290718
   0.50000000  0.99999808  0.75767424
   0.50000000  0.50000169  0.24290707
   0.50000000  0.50000197  0.75767411
   0.23848343  0.99999990  0.00521245
   0.23580267  0.00000063  0.49473129
   0.23848344  0.50000010  0.00521205
   0.23580260  0.49999938  0.49473097
   0.76151657  0.99999990  0.00521247
   0.76419734  0.00000063  0.49473129
   0.76151656  0.50000010  0.00521207
   0.76419741  0.49999938  0.49473098
   0.99999998  0.24999999  0.00821401
   0.00000001  0.25000004  0.49287979
   0.99999998  0.75000001  0.00821403
   0.00000001  0.74999996  0.49287968
   0.50000002  0.25000002  0.00000888
   0.50000002  0.75000002  0.00000899
   1.00000000  0.99999991  0.24909803
   1.00000000  0.50000009  0.24909808
 
 position of ions in cartesian coordinates  (Angst):
   7.93917822  7.76932986  7.46721492
   0.00000003  0.00000031  3.85128150
   7.93917821  3.88466532  7.46722072
   0.00000003  3.88466468  3.85127852
   3.96958911  7.76932820  0.00283125
   3.96958914  7.76932051  3.77432331
   3.96958911  3.88466733  0.00283143
   3.96958914  3.88467161  3.77432280
   3.96958910  1.94233336  3.78017664
   3.96958910  5.82699808  3.78016911
   7.93917824  7.76932910  5.67302118
   7.93917824  3.88466604  5.67301841
   3.96958912  7.76931740  1.83517478
   3.96958913  7.76931520  5.72426335
   3.96958912  3.88467821  1.83517396
   3.96958912  3.88468039  5.72426238
   1.89336242  7.76932937  0.03938028
   1.87207940  0.00000492  3.73771739
   1.89336251  3.88466586  0.03937729
   1.87207886  3.88466021  3.73771503
   6.04581579  7.76932937  0.03938043
   6.06709888  0.00000493  3.73771744
   6.04581570  3.88466586  0.03937744
   6.06709942  3.88466021  3.73771508
   7.93917811  1.94233244  0.06205719
   0.00000008  1.94233280  3.72372923
   7.93917811  5.82699770  0.06205738
   0.00000008  5.82699727  3.72372844
   3.96958927  1.94233267  0.00006711
   3.96958928  5.82699775  0.00006790
   7.93917823  7.76932938  1.88194698
   7.93917823  3.88466577  1.88194737
 


--------------------------------------------------------------------------------------------------------


 k-point  1 :   0.2500 0.2500 0.2500  plane waves:   19588
 k-point  2 :  -0.2500 0.2500 0.2500  plane waves:   19588
 k-point  3 :   0.2500-0.2500 0.2500  plane waves:   19588
 k-point  4 :  -0.2500-0.2500 0.2500  plane waves:   19588

 maximum and minimum number of plane-waves per node :      2474     2428

 maximum number of plane-waves:     19588
 maximum index in each direction: 
   IXMAX=   17   IYMAX=   17   IZMAX=   16
   IXMIN=  -17   IYMIN=  -17   IZMIN=  -16


 real space projection operators:
  total allocation   :      18341.12 KBytes
  max/ min on nodes  :       2437.00       1906.34


 parallel 3D FFT for wavefunctions:
    minimum data exchange during FFTs selected (reduces bandwidth)
 parallel 3D FFT for charge:
    minimum data exchange during FFTs selected (reduces bandwidth)


 total amount of memory used by VASP MPI-rank0    62249. kBytes
=======================================================================

   base      :      30000. kBytes
   nonlr-proj:       8510. kBytes
   fftplans  :       8422. kBytes
   grid      :       8783. kBytes
   one-center:        124. kBytes
   wavefun   :       6410. kBytes
 
     INWAV:  cpu time    3.6944: real time    4.3036
 Broyden mixing: mesh for mixing (old mesh)
   NGX = 35   NGY = 33   NGZ = 33
  (NGX  =140   NGY  =140   NGZ  =140)
  gives a total of  38115 points

 charge density for first step will be calculated from the start-wavefunctions


--------------------------------------------------------------------------------------------------------


 Maximum index for non-local projection operator         1375
 Maximum index for augmentation-charges         7132 (set IRDMAX)


--------------------------------------------------------------------------------------------------------


 initial charge from wavefunction
 First call to EWALD:  gamma=   0.229
 Maximum number of real-space cells 3x 3x 3
 Maximum number of reciprocal cells 3x 3x 3

    FEWALD:  cpu time    0.0040: real time    0.0032


--------------------------------------- Iteration      1(   1)  ---------------------------------------


    POTLOK:  cpu time    0.1460: real time    0.5803
    SETDIJ:  cpu time    0.8399: real time    0.8380
     EDDAV:  cpu time    3.5615: real time    3.5597
       DOS:  cpu time    0.0010: real time    0.0013
    CHARGE:  cpu time    0.3909: real time    0.3885
    MIXING:  cpu time    0.0030: real time    0.0022
    --------------------------------------------
      LOOP:  cpu time    4.9422: real time    5.3700

 eigenvalue-minimisations  :  2560
 total energy-change (2. order) :-0.2092617E+03  (-0.8060467E-01)
 number of electron     240.0000004 magnetization       0.0175157
 augmentation part       61.9743395 magnetization       0.0056047

 Broyden mixing:
  rms(total) = 0.31869E-01    rms(broyden)= 0.31710E-01
  rms(prec ) = 0.56475E-01
  weight for this iteration     100.00

 Free energy of the ion-electron system (eV)
  ---------------------------------------------------
  alpha Z        PSCENC =       751.41159209
  Ewald energy   TEWEN  =    -12681.55222357
  -Hartree energ DENC   =     -8324.71797376
  -exchange      EXHF   =         0.00000000
  -V(xc)+E(xc)   XCENC  =      1119.13492192
  PAW double counting   =     17983.17641635   -18106.02477449
  entropy T*S    EENTRO =        -0.00603089
  eigenvalues    EBANDS =     -3253.03682509
  atomic energy  EATOM  =     22302.35321627
  Solvation  Ediel_sol  =         0.00000000
  ---------------------------------------------------
  free energy    TOTEN  =      -209.26168118 eV

  energy without entropy =     -209.25565029  energy(sigma->0) =     -209.25866573


--------------------------------------------------------------------------------------------------------




--------------------------------------- Iteration      1(   2)  ---------------------------------------


    POTLOK:  cpu time    0.1540: real time    0.1631
    SETDIJ:  cpu time    0.8379: real time    0.8362
     EDDAV:  cpu time    4.4523: real time    4.4502
       DOS:  cpu time    0.0010: real time    0.0009
    CHARGE:  cpu time    0.3859: real time    0.3830
    MIXING:  cpu time    0.0020: real time    0.0023
    --------------------------------------------
      LOOP:  cpu time    5.8331: real time    5.8357

 eigenvalue-minimisations  :  3424
 total energy-change (2. order) :-0.2018206E-01  (-0.6714616E-03)
 number of electron     240.0000003 magnetization       0.0153618
 augmentation part       61.8649471 magnetization       0.0181044

 Broyden mixing:
  rms(total) = 0.12244E+00    rms(broyden)= 0.12242E+00
  rms(prec ) = 0.22219E+00
  weight for this iteration     100.00

 eigenvalues of (default mixing * dielectric matrix)
  average eigenvalue GAMMA=   0.2104
  0.2104

 Free energy of the ion-electron system (eV)
  ---------------------------------------------------
  alpha Z        PSCENC =       751.41159209
  Ewald energy   TEWEN  =    -12681.55222357
  -Hartree energ DENC   =     -8325.28376539
  -exchange      EXHF   =         0.00000000
  -V(xc)+E(xc)   XCENC  =      1119.12278517
  PAW double counting   =     17985.41531404   -18108.18161418
  entropy T*S    EENTRO =        -0.00000000
  eigenvalues    EBANDS =     -3252.56716767
  atomic energy  EATOM  =     22302.35321627
  Solvation  Ediel_sol  =         0.00000000
  ---------------------------------------------------
  free energy    TOTEN  =      -209.28186324 eV

  energy without entropy =     -209.28186324  energy(sigma->0) =     -209.28186324


--------------------------------------------------------------------------------------------------------




--------------------------------------- Iteration      1(   3)  ---------------------------------------


    POTLOK:  cpu time    0.3399: real time    0.3498
    SETDIJ:  cpu time    0.8419: real time    0.8389
     EDDAV:  cpu time    4.4173: real time    4.4156
       DOS:  cpu time    0.0010: real time    0.0013
    CHARGE:  cpu time    0.3879: real time    0.3859
    MIXING:  cpu time    0.0040: real time    0.0041
    --------------------------------------------
      LOOP:  cpu time    5.9921: real time    5.9957

 eigenvalue-minimisations  :  3456
 total energy-change (2. order) : 0.1680298E-01  (-0.5141495E-03)
 number of electron     240.0000004 magnetization       0.0059732
 augmentation part       61.9743072 magnetization      -0.1029642

 Broyden mixing:
  rms(total) = 0.82248E-01    rms(broyden)= 0.82236E-01
  rms(prec ) = 0.91354E-01
  weight for this iteration     100.00

 eigenvalues of (default mixing * dielectric matrix)
  average eigenvalue GAMMA=   0.1330
  0.1862  0.0797

 Free energy of the ion-electron system (eV)
  ---------------------------------------------------
  alpha Z        PSCENC =       751.41159209
  Ewald energy   TEWEN  =    -12681.55222357
  -Hartree energ DENC   =     -8324.84151893
  -exchange      EXHF   =         0.00000000
  -V(xc)+E(xc)   XCENC  =      1119.13830778
  PAW double counting   =     17984.52534306   -18107.35669087
  entropy T*S    EENTRO =        -0.00531475
  eigenvalues    EBANDS =     -3252.93777134
  atomic energy  EATOM  =     22302.35321627
  Solvation  Ediel_sol  =         0.00000000
  ---------------------------------------------------
  free energy    TOTEN  =      -209.26506026 eV

  energy without entropy =     -209.25974551  energy(sigma->0) =     -209.26240289


--------------------------------------------------------------------------------------------------------




--------------------------------------- Iteration      1(   4)  ---------------------------------------


    POTLOK:  cpu time    0.1740: real time    0.1845
    SETDIJ:  cpu time    0.8439: real time    0.8430
     EDDAV:  cpu time    4.0524: real time    4.0501
       DOS:  cpu time    0.0010: real time    0.0015
    CHARGE:  cpu time    0.3879: real time    0.3856
    MIXING:  cpu time    0.0020: real time    0.0026
    --------------------------------------------
      LOOP:  cpu time    5.4612: real time    5.4673

 eigenvalue-minimisations  :  3040
 total energy-change (2. order) : 0.1570066E-02  (-0.3369443E-04)
 number of electron     240.0000003 magnetization       0.0010827
 augmentation part       61.9027706 magnetization      -0.0179826

 Broyden mixing:
  rms(total) = 0.73113E-01    rms(broyden)= 0.73105E-01
  rms(prec ) = 0.13678E+00
  weight for this iteration     100.00

 eigenvalues of (default mixing * dielectric matrix)
  average eigenvalue GAMMA=   0.1531
  0.1751  0.1751  0.1090

 Free energy of the ion-electron system (eV)
  ---------------------------------------------------
  alpha Z        PSCENC =       751.41159209
  Ewald energy   TEWEN  =    -12681.55222357
  -Hartree energ DENC   =     -8324.82890702
  -exchange      EXHF   =         0.00000000
  -V(xc)+E(xc)   XCENC  =      1119.13771275
  PAW double counting   =     17984.46451775   -18107.29659850
  entropy T*S    EENTRO =        -0.00148258
  eigenvalues    EBANDS =     -3252.95131738
  atomic energy  EATOM  =     22302.35321627
  Solvation  Ediel_sol  =         0.00000000
  ---------------------------------------------------
  free energy    TOTEN  =      -209.26349019 eV

  energy without entropy =     -209.26200762  energy(sigma->0) =     -209.26274891


--------------------------------------------------------------------------------------------------------




--------------------------------------- Iteration      1(   5)  ---------------------------------------


    POTLOK:  cpu time    0.1550: real time    0.1632
    SETDIJ:  cpu time    0.8429: real time    0.8423
     EDDAV:  cpu time    4.5273: real time    4.5252
       DOS:  cpu time    0.0010: real time    0.0014
    CHARGE:  cpu time    0.3899: real time    0.3878
    MIXING:  cpu time    0.0030: real time    0.0026
    --------------------------------------------
      LOOP:  cpu time    5.9191: real time    5.9225

 eigenvalue-minimisations  :  3552
 total energy-change (2. order) : 0.1751760E-02  (-0.1207390E-04)
 number of electron     240.0000004 magnetization      -0.0130386
 augmentation part       61.9497876 magnetization      -0.0454224

 Broyden mixing:
  rms(total) = 0.26446E-01    rms(broyden)= 0.26438E-01
  rms(prec ) = 0.28069E-01
  weight for this iteration     100.00

 eigenvalues of (default mixing * dielectric matrix)
  average eigenvalue GAMMA=   0.5199
  1.4990  0.2235  0.2235  0.1335

 Free energy of the ion-electron system (eV)
  ---------------------------------------------------
  alpha Z        PSCENC =       751.41159209
  Ewald energy   TEWEN  =    -12681.55222357
  -Hartree energ DENC   =     -8324.66307329
  -exchange      EXHF   =         0.00000000
  -V(xc)+E(xc)   XCENC  =      1119.13055638
  PAW double counting   =     17984.19746098   -18107.02587529
  entropy T*S    EENTRO =        -0.00467545
  eigenvalues    EBANDS =     -3253.10871655
  atomic energy  EATOM  =     22302.35321627
  Solvation  Ediel_sol  =         0.00000000
  ---------------------------------------------------
  free energy    TOTEN  =      -209.26173843 eV

  energy without entropy =     -209.25706298  energy(sigma->0) =     -209.25940071


--------------------------------------------------------------------------------------------------------




--------------------------------------- Iteration      1(   6)  ---------------------------------------


    POTLOK:  cpu time    0.1520: real time    0.1617
    SETDIJ:  cpu time    0.8379: real time    0.8366
     EDDAV:  cpu time    4.4933: real time    4.4907
       DOS:  cpu time    0.0010: real time    0.0012
    CHARGE:  cpu time    0.3869: real time    0.3841
    MIXING:  cpu time    0.0030: real time    0.0027
    --------------------------------------------
      LOOP:  cpu time    5.8741: real time    5.8770

 eigenvalue-minimisations  :  3552
 total energy-change (2. order) :-0.8985354E-02  (-0.2178080E-04)
 number of electron     240.0000004 magnetization      -0.0054795
 augmentation part       62.1921854 magnetization       0.4024357

 Broyden mixing:
  rms(total) = 0.41941E+00    rms(broyden)= 0.41938E+00
  rms(prec ) = 0.66920E+00
  weight for this iteration     100.00

 eigenvalues of (default mixing * dielectric matrix)
  average eigenvalue GAMMA=   0.4242
  1.5485  0.2137  0.2137  0.1297  0.0154

 Free energy of the ion-electron system (eV)
  ---------------------------------------------------
  alpha Z        PSCENC =       751.41159209
  Ewald energy   TEWEN  =    -12681.55222357
  -Hartree energ DENC   =     -8324.45776751
  -exchange      EXHF   =         0.00000000
  -V(xc)+E(xc)   XCENC  =      1119.12419446
  PAW double counting   =     17984.27513932   -18107.09840600
  entropy T*S    EENTRO =        -0.00784332
  eigenvalues    EBANDS =     -3253.31862553
  atomic energy  EATOM  =     22302.35321627
  Solvation  Ediel_sol  =         0.00000000
  ---------------------------------------------------
  free energy    TOTEN  =      -209.27072379 eV

  energy without entropy =     -209.26288047  energy(sigma->0) =     -209.26680213


--------------------------------------------------------------------------------------------------------




--------------------------------------- Iteration      1(   7)  ---------------------------------------


    POTLOK:  cpu time    0.1510: real time    0.1599
    SETDIJ:  cpu time    0.8449: real time    0.8441
     EDDAV:  cpu time    4.0284: real time    4.0275
       DOS:  cpu time    0.0020: real time    0.0014
    CHARGE:  cpu time    0.4069: real time    0.4054
    MIXING:  cpu time    0.0040: real time    0.0025
    --------------------------------------------
      LOOP:  cpu time    5.4372: real time    5.4409

 eigenvalue-minimisations  :  3136
 total energy-change (2. order) : 0.9727676E-02  (-0.3382570E-04)
 number of electron     240.0000004 magnetization      -0.0066904
 augmentation part       61.9518673 magnetization       0.0738955

 Broyden mixing:
  rms(total) = 0.33859E-01    rms(broyden)= 0.33665E-01
  rms(prec ) = 0.34114E-01
  weight for this iteration     100.00

 eigenvalues of (default mixing * dielectric matrix)
  average eigenvalue GAMMA=   0.5007
  2.3455  0.1653  0.1653  0.1195  0.1242  0.0845

 Free energy of the ion-electron system (eV)
  ---------------------------------------------------
  alpha Z        PSCENC =       751.41159209
  Ewald energy   TEWEN  =    -12681.55222357
  -Hartree energ DENC   =     -8324.68761770
  -exchange      EXHF   =         0.00000000
  -V(xc)+E(xc)   XCENC  =      1119.13252232
  PAW double counting   =     17984.96926175   -18107.78643928
  entropy T*S    EENTRO =        -0.00468362
  eigenvalues    EBANDS =     -3253.09662437
  atomic energy  EATOM  =     22302.35321627
  Solvation  Ediel_sol  =         0.00000000
  ---------------------------------------------------
  free energy    TOTEN  =      -209.26099611 eV

  energy without entropy =     -209.25631249  energy(sigma->0) =     -209.25865430


--------------------------------------------------------------------------------------------------------




--------------------------------------- Iteration      1(   8)  ---------------------------------------


    POTLOK:  cpu time    0.1440: real time    0.1530
    SETDIJ:  cpu time    0.8429: real time    0.8414
     EDDAV:  cpu time    3.4695: real time    3.4676
       DOS:  cpu time    0.0010: real time    0.0013
    CHARGE:  cpu time    0.3849: real time    0.3827
    MIXING:  cpu time    0.0030: real time    0.0032
    --------------------------------------------
      LOOP:  cpu time    4.8453: real time    4.8491

 eigenvalue-minimisations  :  2592
 total energy-change (2. order) :-0.1005254E-02  (-0.1243027E-04)
 number of electron     240.0000004 magnetization      -0.0015235
 augmentation part       61.9581435 magnetization       0.1031755

 Broyden mixing:
  rms(total) = 0.39261E-01    rms(broyden)= 0.39256E-01
  rms(prec ) = 0.40150E-01
  weight for this iteration     100.00

 eigenvalues of (default mixing * dielectric matrix)
  average eigenvalue GAMMA=   0.4505
  2.3559  0.1501  0.1501  0.1532  0.1532  0.1193  0.0719

 Free energy of the ion-electron system (eV)
  ---------------------------------------------------
  alpha Z        PSCENC =       751.41159209
  Ewald energy   TEWEN  =    -12681.55222357
  -Hartree energ DENC   =     -8324.67886591
  -exchange      EXHF   =         0.00000000
  -V(xc)+E(xc)   XCENC  =      1119.13212660
  PAW double counting   =     17984.94112850   -18107.75856835
  entropy T*S    EENTRO =        -0.00498485
  eigenvalues    EBANDS =     -3253.10542214
  atomic energy  EATOM  =     22302.35321627
  Solvation  Ediel_sol  =         0.00000000
  ---------------------------------------------------
  free energy    TOTEN  =      -209.26200137 eV

  energy without entropy =     -209.25701651  energy(sigma->0) =     -209.25950894


--------------------------------------------------------------------------------------------------------




--------------------------------------- Iteration      1(   9)  ---------------------------------------


    POTLOK:  cpu time    0.3409: real time    0.3507
    SETDIJ:  cpu time    0.8469: real time    0.8453
     EDDAV:  cpu time    4.1704: real time    4.1690
       DOS:  cpu time    0.0010: real time    0.0012
    CHARGE:  cpu time    0.3899: real time    0.3868
    MIXING:  cpu time    0.0040: real time    0.0036
    --------------------------------------------
      LOOP:  cpu time    5.7531: real time    5.7566

 eigenvalue-minimisations  :  3200
 total energy-change (2. order) : 0.6482147E-04  (-0.7014277E-05)
 number of electron     240.0000004 magnetization       0.0015301
 augmentation part       61.9385582 magnetization       0.0152025

 Broyden mixing:
  rms(total) = 0.25863E-01    rms(broyden)= 0.25853E-01
  rms(prec ) = 0.42849E-01
  weight for this iteration     100.00

 eigenvalues of (default mixing * dielectric matrix)
  average eigenvalue GAMMA=   0.5429
  2.4449  0.7177  0.5370  0.1551  0.1551  0.1473  0.1182  0.0678

 Free energy of the ion-electron system (eV)
  ---------------------------------------------------
  alpha Z        PSCENC =       751.41159209
  Ewald energy   TEWEN  =    -12681.55222357
  -Hartree energ DENC   =     -8324.77712448
  -exchange      EXHF   =         0.00000000
  -V(xc)+E(xc)   XCENC  =      1119.13806618
  PAW double counting   =     17985.32271010   -18108.13999004
  entropy T*S    EENTRO =        -0.00405201
  eigenvalues    EBANDS =     -3253.01413107
  atomic energy  EATOM  =     22302.35321627
  Solvation  Ediel_sol  =         0.00000000
  ---------------------------------------------------
  free energy    TOTEN  =      -209.26193654 eV

  energy without entropy =     -209.25788454  energy(sigma->0) =     -209.25991054


--------------------------------------------------------------------------------------------------------




--------------------------------------- Iteration      1(  10)  ---------------------------------------


    POTLOK:  cpu time    0.1740: real time    0.1847
    SETDIJ:  cpu time    0.8469: real time    0.8443
     EDDAV:  cpu time    4.0794: real time    4.0783
       DOS:  cpu time    0.0010: real time    0.0014
    CHARGE:  cpu time    0.3869: real time    0.3838
    MIXING:  cpu time    0.0030: real time    0.0033
    --------------------------------------------
      LOOP:  cpu time    5.4912: real time    5.4959

 eigenvalue-minimisations  :  3200
 total energy-change (2. order) :-0.2094976E-03  (-0.1849127E-05)
 number of electron     240.0000004 magnetization       0.0010969
 augmentation part       61.9337288 magnetization      -0.0236841

 Broyden mixing:
  rms(total) = 0.39992E-01    rms(broyden)= 0.39991E-01
  rms(prec ) = 0.60189E-01
  weight for this iteration     100.00

 eigenvalues of (default mixing * dielectric matrix)
  average eigenvalue GAMMA=   0.5564
  2.4904  0.7389  0.5677  0.5677  0.1552  0.1552  0.1468  0.1182  0.0679

 Free energy of the ion-electron system (eV)
  ---------------------------------------------------
  alpha Z        PSCENC =       751.41159209
  Ewald energy   TEWEN  =    -12681.55222357
  -Hartree energ DENC   =     -8324.78855594
  -exchange      EXHF   =         0.00000000
  -V(xc)+E(xc)   XCENC  =      1119.13787389
  PAW double counting   =     17985.41800507   -18108.23118491
  entropy T*S    EENTRO =        -0.00367437
  eigenvalues    EBANDS =     -3253.00719457
  atomic energy  EATOM  =     22302.35321627
  Solvation  Ediel_sol  =         0.00000000
  ---------------------------------------------------
  free energy    TOTEN  =      -209.26214604 eV

  energy without entropy =     -209.25847167  energy(sigma->0) =     -209.26030886


--------------------------------------------------------------------------------------------------------




--------------------------------------- Iteration      1(  11)  ---------------------------------------


    POTLOK:  cpu time    0.2990: real time    0.3100
    SETDIJ:  cpu time    0.8469: real time    0.8442
     EDDAV:  cpu time    3.7884: real time    3.7873
       DOS:  cpu time    0.0020: real time    0.0016
    CHARGE:  cpu time    0.3869: real time    0.3840
    MIXING:  cpu time    0.0030: real time    0.0032
    --------------------------------------------
      LOOP:  cpu time    5.3262: real time    5.3304

 eigenvalue-minimisations  :  2752
 total energy-change (2. order) : 0.1548232E-03  (-0.8166819E-06)
 number of electron     240.0000004 magnetization       0.0002124
 augmentation part       61.9391796 magnetization      -0.0188301

 Broyden mixing:
  rms(total) = 0.28161E-01    rms(broyden)= 0.28160E-01
  rms(prec ) = 0.43526E-01
  weight for this iteration     100.00

 eigenvalues of (default mixing * dielectric matrix)
  average eigenvalue GAMMA=   0.6016
  2.4995  1.0866  0.6662  0.6662  0.4537  0.1552  0.1552  0.1469  0.1182  0.0679

 Free energy of the ion-electron system (eV)
  ---------------------------------------------------
  alpha Z        PSCENC =       751.41159209
  Ewald energy   TEWEN  =    -12681.55222357
  -Hartree energ DENC   =     -8324.75871911
  -exchange      EXHF   =         0.00000000
  -V(xc)+E(xc)   XCENC  =      1119.13633832
  PAW double counting   =     17985.38367199   -18108.19520082
  entropy T*S    EENTRO =        -0.00406628
  eigenvalues    EBANDS =     -3253.03660010
  atomic energy  EATOM  =     22302.35321627
  Solvation  Ediel_sol  =         0.00000000
  ---------------------------------------------------
  free energy    TOTEN  =      -209.26199122 eV

  energy without entropy =     -209.25792494  energy(sigma->0) =     -209.25995808


--------------------------------------------------------------------------------------------------------




--------------------------------------- Iteration      1(  12)  ---------------------------------------


    POTLOK:  cpu time    0.2380: real time    0.2485
    SETDIJ:  cpu time    0.8419: real time    0.8395
     EDDAV:  cpu time    3.7904: real time    3.7891
       DOS:  cpu time    0.0020: real time    0.0017
    CHARGE:  cpu time    0.3859: real time    0.3845
    MIXING:  cpu time    0.0030: real time    0.0034
    --------------------------------------------
      LOOP:  cpu time    5.2622: real time    5.2667

 eigenvalue-minimisations  :  2912
 total energy-change (2. order) : 0.9839135E-04  (-0.6021940E-06)
 number of electron     240.0000004 magnetization      -0.0001081
 augmentation part       61.9516800 magnetization      -0.0023132

 Broyden mixing:
  rms(total) = 0.40848E-02    rms(broyden)= 0.40764E-02
  rms(prec ) = 0.70161E-02
  weight for this iteration     100.00

 eigenvalues of (default mixing * dielectric matrix)
  average eigenvalue GAMMA=   0.6169
  2.5017  1.2249  0.7845  0.7845  0.4234  0.4234  0.1552  0.1552  0.1469  0.1182
  0.0679

 Free energy of the ion-electron system (eV)
  ---------------------------------------------------
  alpha Z        PSCENC =       751.41159209
  Ewald energy   TEWEN  =    -12681.55222357
  -Hartree energ DENC   =     -8324.73492825
  -exchange      EXHF   =         0.00000000
  -V(xc)+E(xc)   XCENC  =      1119.13541858
  PAW double counting   =     17985.32103675   -18108.13167539
  entropy T*S    EENTRO =        -0.00482413
  eigenvalues    EBANDS =     -3253.05950518
  atomic energy  EATOM  =     22302.35321627
  Solvation  Ediel_sol  =         0.00000000
  ---------------------------------------------------
  free energy    TOTEN  =      -209.26189283 eV

  energy without entropy =     -209.25706870  energy(sigma->0) =     -209.25948076


--------------------------------------------------------------------------------------------------------




--------------------------------------- Iteration      1(  13)  ---------------------------------------


    POTLOK:  cpu time    0.3080: real time    0.3162
    SETDIJ:  cpu time    0.8389: real time    0.8373
     EDDAV:  cpu time    2.9306: real time    2.9289
       DOS:  cpu time    0.0010: real time    0.0013
    CHARGE:  cpu time    0.3829: real time    0.3812
    MIXING:  cpu time    0.0040: real time    0.0036
    --------------------------------------------
      LOOP:  cpu time    4.4643: real time    4.4685

 eigenvalue-minimisations  :  1952
 total energy-change (2. order) :-0.5825495E-05  (-0.2342293E-06)
 number of electron     240.0000004 magnetization       0.0000429
 augmentation part       61.9576561 magnetization       0.0041078

 Broyden mixing:
  rms(total) = 0.61165E-02    rms(broyden)= 0.61143E-02
  rms(prec ) = 0.96509E-02
  weight for this iteration     100.00

 eigenvalues of (default mixing * dielectric matrix)
  average eigenvalue GAMMA=   0.6698
  2.5084  1.1453  1.1453  0.9887  0.5941  0.5941  0.4188  0.1552  0.1552  0.1469
  0.1182  0.0679

 Free energy of the ion-electron system (eV)
  ---------------------------------------------------
  alpha Z        PSCENC =       751.41159209
  Ewald energy   TEWEN  =    -12681.55222357
  -Hartree energ DENC   =     -8324.73027645
  -exchange      EXHF   =         0.00000000
  -V(xc)+E(xc)   XCENC  =      1119.13534402
  PAW double counting   =     17985.29301393   -18108.10326378
  entropy T*S    EENTRO =        -0.00514560
  eigenvalues    EBANDS =     -3253.06415556
  atomic energy  EATOM  =     22302.35321627
  Solvation  Ediel_sol  =         0.00000000
  ---------------------------------------------------
  free energy    TOTEN  =      -209.26189865 eV

  energy without entropy =     -209.25675305  energy(sigma->0) =     -209.25932585


--------------------------------------------------------------------------------------------------------




--------------------------------------- Iteration      1(  14)  ---------------------------------------


    POTLOK:  cpu time    0.1450: real time    0.1547
    SETDIJ:  cpu time    0.8359: real time    0.8422
     EDDAV:  cpu time    2.3216: real time    2.3258
       DOS:  cpu time    0.0010: real time    0.0013
    CHARGE:  cpu time    0.3739: real time    0.3827
    MIXING:  cpu time    0.0030: real time    0.0035
    --------------------------------------------
      LOOP:  cpu time    3.6804: real time    3.7102

 eigenvalue-minimisations  :  1376
 total energy-change (2. order) : 0.3257242E-05  (-0.4810555E-07)
 number of electron     240.0000004 magnetization       0.0000197
 augmentation part       61.9539672 magnetization      -0.0008965

 Broyden mixing:
  rms(total) = 0.12793E-02    rms(broyden)= 0.12786E-02
  rms(prec ) = 0.14215E-02
  weight for this iteration     100.00

 eigenvalues of (default mixing * dielectric matrix)
  average eigenvalue GAMMA=   0.7143
  2.5153  1.3305  1.3305  1.1173  0.6756  0.6756  0.5862  0.4109  0.1552  0.1552
  0.1469  0.1182  0.0679

 Free energy of the ion-electron system (eV)
  ---------------------------------------------------
  alpha Z        PSCENC =       751.41159209
  Ewald energy   TEWEN  =    -12681.55222357
  -Hartree energ DENC   =     -8324.73780413
  -exchange      EXHF   =         0.00000000
  -V(xc)+E(xc)   XCENC  =      1119.13568284
  PAW double counting   =     17985.29704431   -18108.10717124
  entropy T*S    EENTRO =        -0.00494995
  eigenvalues    EBANDS =     -3253.05728202
  atomic energy  EATOM  =     22302.35321627
  Solvation  Ediel_sol  =         0.00000000
  ---------------------------------------------------
  free energy    TOTEN  =      -209.26189540 eV

  energy without entropy =     -209.25694545  energy(sigma->0) =     -209.25942042


--------------------------------------------------------------------------------------------------------




--------------------------------------- Iteration      1(  15)  ---------------------------------------


    POTLOK:  cpu time    0.1440: real time    0.1598
    SETDIJ:  cpu time    0.8379: real time    0.8375
     EDDAV:  cpu time    2.3326: real time    2.3335
       DOS:  cpu time    0.0010: real time    0.0014
    --------------------------------------------
      LOOP:  cpu time    3.3155: real time    3.3321

 eigenvalue-minimisations  :  1280
 total energy-change (2. order) :-0.2039815E-06  (-0.1122364E-07)
 number of electron     240.0000004 magnetization       0.0000197
 augmentation part       61.9539672 magnetization      -0.0008965

 Free energy of the ion-electron system (eV)
  ---------------------------------------------------
  alpha Z        PSCENC =       751.41159209
  Ewald energy   TEWEN  =    -12681.55222357
  -Hartree energ DENC   =     -8324.74008549
  -exchange      EXHF   =         0.00000000
  -V(xc)+E(xc)   XCENC  =      1119.13580383
  PAW double counting   =     17985.28839414   -18108.09835655
  entropy T*S    EENTRO =        -0.00493210
  eigenvalues    EBANDS =     -3253.05530422
  atomic energy  EATOM  =     22302.35321627
  Solvation  Ediel_sol  =         0.00000000
  ---------------------------------------------------
  free energy    TOTEN  =      -209.26189560 eV

  energy without entropy =     -209.25696350  energy(sigma->0) =     -209.25942955


--------------------------------------------------------------------------------------------------------




 average (electrostatic) potential at core
  the test charge radii are     1.0397  0.7215  0.7167
  (the norm of the test charge is              1.0000)
       1 -60.0994       2 -59.9977       3 -60.0994       4 -59.9977       5 -57.9279
       6 -57.3893       7 -57.9279       8 -57.3893       9 -72.1633      10 -72.1633
      11 -75.2821      12 -75.2820      13 -72.6491      14 -72.6429      15 -72.6491
      16 -72.6429      17 -79.6636      18 -79.4298      19 -79.6636      20 -79.4298
      21 -79.6636      22 -79.4298      23 -79.6636      24 -79.4298      25 -80.5012
      26 -80.3456      27 -80.5012      28 -80.3456      29 -78.7998      30 -78.7998
      31 -79.8716      32 -79.8716
 
 
 
 E-fermi :   1.0011     XC(G=0):  -8.9425     alpha+bet : -7.5826


 spin component 1

 k-point     1 :       0.2500    0.2500    0.2500
  band No.  band energies     occupation 
      1     -36.1374      1.00000
      2     -36.0575      1.00000
      3     -36.0563      1.00000
      4     -36.0547      1.00000
      5     -36.0172      1.00000
      6     -35.9382      1.00000
      7     -35.9368      1.00000
      8     -35.9366      1.00000
      9     -35.9355      1.00000
     10     -35.9352      1.00000
     11     -35.8295      1.00000
     12     -35.8277      1.00000
     13     -34.0924      1.00000
     14     -34.0907      1.00000
     15     -34.0680      1.00000
     16     -33.9796      1.00000
     17     -33.5116      1.00000
     18     -33.5111      1.00000
     19     -33.5097      1.00000
     20     -33.5096      1.00000
     21     -33.1380      1.00000
     22     -33.1364      1.00000
     23     -33.0414      1.00000
     24     -33.0025      1.00000
     25     -24.3437      1.00000
     26     -24.1831      1.00000
     27     -23.9739      1.00000
     28     -23.8145      1.00000
     29     -23.5969      1.00000
     30     -23.5744      1.00000
     31     -23.4102      1.00000
     32     -23.4060      1.00000
     33     -23.1847      1.00000
     34     -23.1822      1.00000
     35     -23.0967      1.00000
     36     -23.0850      1.00000
     37     -22.8106      1.00000
     38     -22.8040      1.00000
     39     -22.6177      1.00000
     40     -22.2578      1.00000
     41     -17.7656      1.00000
     42     -17.7515      1.00000
     43     -15.5507      1.00000
     44     -15.4942      1.00000
     45     -14.9320      1.00000
     46     -14.8149      1.00000
     47     -14.6928      1.00000
     48     -14.3535      1.00000
     49      -7.8618      1.00000
     50      -7.7219      1.00000
     51      -7.1343      1.00000
     52      -7.0518      1.00000
     53      -6.9067      1.00000
     54      -6.9031      1.00000
     55      -6.8184      1.00000
     56      -6.6443      1.00000
     57      -6.6359      1.00000
     58      -6.5884      1.00000
     59      -6.3829      1.00000
     60      -6.2629      1.00000
     61      -6.1179      1.00000
     62      -6.1042      1.00000
     63      -6.0460      1.00000
     64      -5.8823      1.00000
     65      -5.7916      1.00000
     66      -5.6811      1.00000
     67      -5.6222      1.00000
     68      -5.5694      1.00000
     69      -5.5495      1.00000
     70      -5.4378      1.00000
     71      -5.3882      1.00000
     72      -5.3303      1.00000
     73      -5.0998      1.00000
     74      -5.0153      1.00000
     75      -4.9416      1.00000
     76      -4.8530      1.00000
     77      -4.8417      1.00000
     78      -4.8096      1.00000
     79      -4.6657      1.00000
     80      -4.6017      1.00000
     81      -4.5513      1.00000
     82      -4.5095      1.00000
     83      -4.4588      1.00000
     84      -4.4337      1.00000
     85      -4.3115      1.00000
     86      -4.2847      1.00000
     87      -4.2758      1.00000
     88      -4.2209      1.00000
     89      -4.1536      1.00000
     90      -4.1260      1.00000
     91      -4.0469      1.00000
     92      -4.0256      1.00000
     93      -3.9489      1.00000
     94      -3.9302      1.00000
     95      -3.8731      1.00000
     96      -3.7082      1.00000
     97      -3.6990      1.00000
     98      -3.5614      1.00000
     99      -3.3750      1.00000
    100      -3.3500      1.00000
    101      -3.2844      1.00000
    102      -2.9595      1.00000
    103      -2.7657      1.00000
    104      -2.7542      1.00000
    105      -2.7018      1.00000
    106      -1.6716      1.00000
    107      -1.3955      1.00000
    108      -1.0807      1.00000
    109      -1.0712      1.00000
    110      -1.0618      1.00000
    111      -1.0129      1.00000
    112      -0.8362      1.00000
    113      -0.5892      1.00000
    114      -0.5440      1.00000
    115      -0.3481      1.00000
    116      -0.2807      1.00000
    117      -0.0143      1.00000
    118       0.1557      1.00000
    119       0.7498      1.00000
    120       0.9920      0.90064
    121       1.0102      0.10006
    122       1.4440      0.00000
    123       1.5377      0.00000
    124       1.5538      0.00000
    125       1.5640      0.00000
    126       1.6382      0.00000
    127       1.9487      0.00000
    128       2.1333      0.00000
    129       2.2005      0.00000
    130       2.5577      0.00000
    131       2.6353      0.00000
    132       2.6561      0.00000
    133       2.6592      0.00000
    134       2.7827      0.00000
    135       3.0889      0.00000
    136       3.1365      0.00000
    137       3.2077      0.00000
    138       3.4849      0.00000
    139       3.4863      0.00000
    140       3.5961      0.00000
    141       3.6784      0.00000
    142       3.6926      0.00000
    143       3.7395      0.00000
    144       3.9572      0.00000
    145       4.2013      0.00000
    146       4.2775      0.00000
    147       4.7408      0.00000
    148       4.7773      0.00000
    149       4.8029      0.00000
    150       4.8720      0.00000
    151       4.8949      0.00000
    152       4.9668      0.00000
    153       5.1087      0.00000
    154       5.1865      0.00000
    155       5.3824      0.00000
    156       5.5818      0.00000
    157       5.6572      0.00000
    158       6.3512      0.00000
    159       6.6319      0.00000
    160       6.8180      0.00000

 k-point     2 :      -0.2500    0.2500    0.2500
  band No.  band energies     occupation 
      1     -36.1374      1.00000
      2     -36.0575      1.00000
      3     -36.0563      1.00000
      4     -36.0547      1.00000
      5     -36.0172      1.00000
      6     -35.9382      1.00000
      7     -35.9368      1.00000
      8     -35.9366      1.00000
      9     -35.9355      1.00000
     10     -35.9352      1.00000
     11     -35.8295      1.00000
     12     -35.8277      1.00000
     13     -34.0924      1.00000
     14     -34.0907      1.00000
     15     -34.0680      1.00000
     16     -33.9796      1.00000
     17     -33.5116      1.00000
     18     -33.5111      1.00000
     19     -33.5097      1.00000
     20     -33.5096      1.00000
     21     -33.1380      1.00000
     22     -33.1364      1.00000
     23     -33.0414      1.00000
     24     -33.0025      1.00000
     25     -24.3437      1.00000
     26     -24.1831      1.00000
     27     -23.9739      1.00000
     28     -23.8145      1.00000
     29     -23.5969      1.00000
     30     -23.5744      1.00000
     31     -23.4102      1.00000
     32     -23.4060      1.00000
     33     -23.1847      1.00000
     34     -23.1822      1.00000
     35     -23.0967      1.00000
     36     -23.0850      1.00000
     37     -22.8106      1.00000
     38     -22.8040      1.00000
     39     -22.6177      1.00000
     40     -22.2578      1.00000
     41     -17.7656      1.00000
     42     -17.7515      1.00000
     43     -15.5507      1.00000
     44     -15.4942      1.00000
     45     -14.9320      1.00000
     46     -14.8149      1.00000
     47     -14.6928      1.00000
     48     -14.3535      1.00000
     49      -7.8618      1.00000
     50      -7.7219      1.00000
     51      -7.1343      1.00000
     52      -7.0518      1.00000
     53      -6.9067      1.00000
     54      -6.9031      1.00000
     55      -6.8184      1.00000
     56      -6.6443      1.00000
     57      -6.6359      1.00000
     58      -6.5884      1.00000
     59      -6.3829      1.00000
     60      -6.2629      1.00000
     61      -6.1179      1.00000
     62      -6.1042      1.00000
     63      -6.0460      1.00000
     64      -5.8823      1.00000
     65      -5.7916      1.00000
     66      -5.6811      1.00000
     67      -5.6222      1.00000
     68      -5.5694      1.00000
     69      -5.5495      1.00000
     70      -5.4378      1.00000
     71      -5.3882      1.00000
     72      -5.3303      1.00000
     73      -5.0998      1.00000
     74      -5.0153      1.00000
     75      -4.9416      1.00000
     76      -4.8530      1.00000
     77      -4.8417      1.00000
     78      -4.8096      1.00000
     79      -4.6657      1.00000
     80      -4.6017      1.00000
     81      -4.5513      1.00000
     82      -4.5095      1.00000
     83      -4.4588      1.00000
     84      -4.4337      1.00000
     85      -4.3115      1.00000
     86      -4.2847      1.00000
     87      -4.2758      1.00000
     88      -4.2209      1.00000
     89      -4.1536      1.00000
     90      -4.1260      1.00000
     91      -4.0469      1.00000
     92      -4.0256      1.00000
     93      -3.9489      1.00000
     94      -3.9302      1.00000
     95      -3.8731      1.00000
     96      -3.7082      1.00000
     97      -3.6990      1.00000
     98      -3.5614      1.00000
     99      -3.3750      1.00000
    100      -3.3500      1.00000
    101      -3.2844      1.00000
    102      -2.9595      1.00000
    103      -2.7657      1.00000
    104      -2.7542      1.00000
    105      -2.7018      1.00000
    106      -1.6716      1.00000
    107      -1.3955      1.00000
    108      -1.0807      1.00000
    109      -1.0712      1.00000
    110      -1.0618      1.00000
    111      -1.0129      1.00000
    112      -0.8362      1.00000
    113      -0.5892      1.00000
    114      -0.5440      1.00000
    115      -0.3481      1.00000
    116      -0.2807      1.00000
    117      -0.0143      1.00000
    118       0.1557      1.00000
    119       0.7498      1.00000
    120       0.9920      0.90064
    121       1.0102      0.10006
    122       1.4440      0.00000
    123       1.5377      0.00000
    124       1.5538      0.00000
    125       1.5640      0.00000
    126       1.6382      0.00000
    127       1.9487      0.00000
    128       2.1333      0.00000
    129       2.2005      0.00000
    130       2.5577      0.00000
    131       2.6353      0.00000
    132       2.6561      0.00000
    133       2.6592      0.00000
    134       2.7827      0.00000
    135       3.0889      0.00000
    136       3.1365      0.00000
    137       3.2077      0.00000
    138       3.4849      0.00000
    139       3.4863      0.00000
    140       3.5961      0.00000
    141       3.6784      0.00000
    142       3.6926      0.00000
    143       3.7395      0.00000
    144       3.9572      0.00000
    145       4.2013      0.00000
    146       4.2775      0.00000
    147       4.7408      0.00000
    148       4.7773      0.00000
    149       4.8029      0.00000
    150       4.8720      0.00000
    151       4.8949      0.00000
    152       4.9668      0.00000
    153       5.1087      0.00000
    154       5.1865      0.00000
    155       5.3824      0.00000
    156       5.5818      0.00000
    157       5.6572      0.00000
    158       6.3512      0.00000
    159       6.6319      0.00000
    160       6.8180      0.00000

 k-point     3 :       0.2500   -0.2500    0.2500
  band No.  band energies     occupation 
      1     -36.1374      1.00000
      2     -36.0575      1.00000
      3     -36.0563      1.00000
      4     -36.0547      1.00000
      5     -36.0172      1.00000
      6     -35.9382      1.00000
      7     -35.9368      1.00000
      8     -35.9366      1.00000
      9     -35.9355      1.00000
     10     -35.9352      1.00000
     11     -35.8295      1.00000
     12     -35.8277      1.00000
     13     -34.0924      1.00000
     14     -34.0907      1.00000
     15     -34.0680      1.00000
     16     -33.9796      1.00000
     17     -33.5116      1.00000
     18     -33.5111      1.00000
     19     -33.5097      1.00000
     20     -33.5096      1.00000
     21     -33.1380      1.00000
     22     -33.1364      1.00000
     23     -33.0414      1.00000
     24     -33.0025      1.00000
     25     -24.3437      1.00000
     26     -24.1831      1.00000
     27     -23.9739      1.00000
     28     -23.8145      1.00000
     29     -23.5969      1.00000
     30     -23.5744      1.00000
     31     -23.4102      1.00000
     32     -23.4060      1.00000
     33     -23.1847      1.00000
     34     -23.1822      1.00000
     35     -23.0967      1.00000
     36     -23.0850      1.00000
     37     -22.8106      1.00000
     38     -22.8040      1.00000
     39     -22.6177      1.00000
     40     -22.2578      1.00000
     41     -17.7656      1.00000
     42     -17.7515      1.00000
     43     -15.5507      1.00000
     44     -15.4942      1.00000
     45     -14.9320      1.00000
     46     -14.8149      1.00000
     47     -14.6928      1.00000
     48     -14.3535      1.00000
     49      -7.8618      1.00000
     50      -7.7219      1.00000
     51      -7.1343      1.00000
     52      -7.0518      1.00000
     53      -6.9067      1.00000
     54      -6.9031      1.00000
     55      -6.8184      1.00000
     56      -6.6443      1.00000
     57      -6.6359      1.00000
     58      -6.5884      1.00000
     59      -6.3829      1.00000
     60      -6.2629      1.00000
     61      -6.1179      1.00000
     62      -6.1042      1.00000
     63      -6.0460      1.00000
     64      -5.8823      1.00000
     65      -5.7916      1.00000
     66      -5.6811      1.00000
     67      -5.6222      1.00000
     68      -5.5694      1.00000
     69      -5.5495      1.00000
     70      -5.4378      1.00000
     71      -5.3882      1.00000
     72      -5.3303      1.00000
     73      -5.0998      1.00000
     74      -5.0153      1.00000
     75      -4.9416      1.00000
     76      -4.8530      1.00000
     77      -4.8417      1.00000
     78      -4.8096      1.00000
     79      -4.6657      1.00000
     80      -4.6017      1.00000
     81      -4.5513      1.00000
     82      -4.5095      1.00000
     83      -4.4588      1.00000
     84      -4.4337      1.00000
     85      -4.3115      1.00000
     86      -4.2847      1.00000
     87      -4.2758      1.00000
     88      -4.2209      1.00000
     89      -4.1536      1.00000
     90      -4.1260      1.00000
     91      -4.0469      1.00000
     92      -4.0256      1.00000
     93      -3.9489      1.00000
     94      -3.9302      1.00000
     95      -3.8731      1.00000
     96      -3.7082      1.00000
     97      -3.6990      1.00000
     98      -3.5614      1.00000
     99      -3.3750      1.00000
    100      -3.3500      1.00000
    101      -3.2844      1.00000
    102      -2.9595      1.00000
    103      -2.7657      1.00000
    104      -2.7542      1.00000
    105      -2.7018      1.00000
    106      -1.6716      1.00000
    107      -1.3955      1.00000
    108      -1.0807      1.00000
    109      -1.0712      1.00000
    110      -1.0618      1.00000
    111      -1.0129      1.00000
    112      -0.8362      1.00000
    113      -0.5892      1.00000
    114      -0.5440      1.00000
    115      -0.3481      1.00000
    116      -0.2807      1.00000
    117      -0.0143      1.00000
    118       0.1557      1.00000
    119       0.7498      1.00000
    120       0.9920      0.90064
    121       1.0102      0.10006
    122       1.4440      0.00000
    123       1.5377      0.00000
    124       1.5538      0.00000
    125       1.5640      0.00000
    126       1.6382      0.00000
    127       1.9487      0.00000
    128       2.1333      0.00000
    129       2.2005      0.00000
    130       2.5577      0.00000
    131       2.6353      0.00000
    132       2.6561      0.00000
    133       2.6592      0.00000
    134       2.7827      0.00000
    135       3.0889      0.00000
    136       3.1365      0.00000
    137       3.2077      0.00000
    138       3.4849      0.00000
    139       3.4863      0.00000
    140       3.5961      0.00000
    141       3.6784      0.00000
    142       3.6926      0.00000
    143       3.7395      0.00000
    144       3.9572      0.00000
    145       4.2013      0.00000
    146       4.2775      0.00000
    147       4.7408      0.00000
    148       4.7773      0.00000
    149       4.8029      0.00000
    150       4.8720      0.00000
    151       4.8949      0.00000
    152       4.9668      0.00000
    153       5.1087      0.00000
    154       5.1865      0.00000
    155       5.3824      0.00000
    156       5.5818      0.00000
    157       5.6572      0.00000
    158       6.3512      0.00000
    159       6.6319      0.00000
    160       6.8180      0.00000

 k-point     4 :      -0.2500   -0.2500    0.2500
  band No.  band energies     occupation 
      1     -36.1374      1.00000
      2     -36.0575      1.00000
      3     -36.0563      1.00000
      4     -36.0547      1.00000
      5     -36.0172      1.00000
      6     -35.9382      1.00000
      7     -35.9368      1.00000
      8     -35.9366      1.00000
      9     -35.9355      1.00000
     10     -35.9352      1.00000
     11     -35.8295      1.00000
     12     -35.8277      1.00000
     13     -34.0924      1.00000
     14     -34.0907      1.00000
     15     -34.0680      1.00000
     16     -33.9796      1.00000
     17     -33.5116      1.00000
     18     -33.5111      1.00000
     19     -33.5097      1.00000
     20     -33.5096      1.00000
     21     -33.1380      1.00000
     22     -33.1364      1.00000
     23     -33.0414      1.00000
     24     -33.0025      1.00000
     25     -24.3437      1.00000
     26     -24.1831      1.00000
     27     -23.9739      1.00000
     28     -23.8145      1.00000
     29     -23.5969      1.00000
     30     -23.5744      1.00000
     31     -23.4102      1.00000
     32     -23.4060      1.00000
     33     -23.1847      1.00000
     34     -23.1822      1.00000
     35     -23.0967      1.00000
     36     -23.0850      1.00000
     37     -22.8106      1.00000
     38     -22.8040      1.00000
     39     -22.6177      1.00000
     40     -22.2578      1.00000
     41     -17.7656      1.00000
     42     -17.7515      1.00000
     43     -15.5507      1.00000
     44     -15.4942      1.00000
     45     -14.9320      1.00000
     46     -14.8149      1.00000
     47     -14.6928      1.00000
     48     -14.3535      1.00000
     49      -7.8618      1.00000
     50      -7.7219      1.00000
     51      -7.1343      1.00000
     52      -7.0518      1.00000
     53      -6.9067      1.00000
     54      -6.9031      1.00000
     55      -6.8184      1.00000
     56      -6.6443      1.00000
     57      -6.6359      1.00000
     58      -6.5884      1.00000
     59      -6.3829      1.00000
     60      -6.2629      1.00000
     61      -6.1179      1.00000
     62      -6.1042      1.00000
     63      -6.0460      1.00000
     64      -5.8823      1.00000
     65      -5.7916      1.00000
     66      -5.6811      1.00000
     67      -5.6222      1.00000
     68      -5.5694      1.00000
     69      -5.5495      1.00000
     70      -5.4378      1.00000
     71      -5.3882      1.00000
     72      -5.3303      1.00000
     73      -5.0998      1.00000
     74      -5.0153      1.00000
     75      -4.9416      1.00000
     76      -4.8530      1.00000
     77      -4.8417      1.00000
     78      -4.8096      1.00000
     79      -4.6657      1.00000
     80      -4.6017      1.00000
     81      -4.5513      1.00000
     82      -4.5095      1.00000
     83      -4.4588      1.00000
     84      -4.4337      1.00000
     85      -4.3115      1.00000
     86      -4.2847      1.00000
     87      -4.2758      1.00000
     88      -4.2209      1.00000
[...]
 -0.000   0.000   0.000  -0.000  -0.000   0.000  -0.000   0.000  -0.000   0.000   0.000  -0.000   0.000   0.000   0.000  -0.000
  0.000   0.000  -0.000   0.000   0.000  -0.000   0.000  -0.000   0.000   0.000   0.000   0.000   0.000   0.000  -0.000   0.000
 -0.000  -0.000   0.000  -0.000   0.000   0.000   0.000   0.000   0.000  -0.000   0.000  -0.000   0.000  -0.000   0.000  -0.000
 -0.000   0.000   0.000  -0.000   0.000  -0.000   0.000   0.001  -0.000   0.000   0.000   0.000   0.000   0.000   0.000  -0.000
 -0.000   0.000   0.000  -0.000   0.000  -0.000   0.000  -0.000   0.000   0.000   0.000  -0.000   0.000  -0.000  -0.000   0.000
  0.000  -0.000  -0.000   0.000   0.000  -0.000   0.000  -0.000   0.000   0.000  -0.000   0.000   0.000  -0.000  -0.000   0.000
 -0.000   0.000   0.000   0.000   0.000   0.000   0.000   0.000   0.000  -0.000   0.000  -0.000  -0.000   0.000   0.000   0.000
 -0.000  -0.000  -0.000  -0.000  -0.000  -0.000   0.000  -0.000  -0.000  -0.000  -0.000   0.000   0.000  -0.000   0.000  -0.000
 -0.000   0.000  -0.000  -0.000  -0.000  -0.000  -0.000  -0.000   0.000   0.000  -0.000   0.000   0.000  -0.000  -0.000   0.000


------------------------ aborting loop because EDIFF is reached ----------------------------------------


 


 total charge     
 
# of ion       s       p       d       tot
------------------------------------------
    1        0.318   6.481   1.759   8.557
    2        0.319   6.484   1.751   8.553
    3        0.318   6.481   1.759   8.557
    4        0.319   6.484   1.751   8.553
    5        0.296   6.473   1.793   8.561
    6        0.292   6.427   1.694   8.414
    7        0.296   6.473   1.793   8.561
    8        0.292   6.427   1.694   8.414
    9        1.564   3.401   0.000   4.965
   10        1.564   3.401   0.000   4.965
   11        1.573   3.481   0.000   5.054
   12        1.573   3.481   0.000   5.054
   13        1.569   3.438   0.000   5.007
   14        1.569   3.435   0.000   5.004
   15        1.569   3.438   0.000   5.007
   16        1.569   3.435   0.000   5.004
   17        1.731   4.375   0.000   6.105
   18        1.732   4.369   0.000   6.101
   19        1.731   4.375   0.000   6.105
   20        1.732   4.369   0.000   6.101
   21        1.731   4.375   0.000   6.105
   22        1.732   4.369   0.000   6.101
   23        1.731   4.375   0.000   6.105
   24        1.732   4.369   0.000   6.101
   25        1.730   4.390   0.000   6.120
   26        1.730   4.389   0.000   6.119
   27        1.730   4.390   0.000   6.120
   28        1.730   4.389   0.000   6.119
   29        1.731   4.395   0.000   6.126
   30        1.731   4.395   0.000   6.126
   31        1.731   4.389   0.000   6.121
   32        1.731   4.389   0.000   6.121
--------------------------------------------------
tot         42.695 149.338  13.993 206.027
 


 magnetization (x)
 
# of ion       s       p       d       tot
------------------------------------------
    1        0.000   0.000   0.000   0.000
    2        0.000   0.000   0.000   0.000
    3        0.000   0.000   0.000   0.000
    4        0.000   0.000   0.000   0.000
    5        0.000  -0.000  -0.000  -0.000
    6       -0.000  -0.000  -0.000  -0.000
    7        0.000  -0.000  -0.000  -0.000
    8       -0.000  -0.000  -0.000  -0.000
    9        0.000  -0.000   0.000  -0.000
   10        0.000  -0.000   0.000  -0.000
   11        0.000   0.000   0.000   0.000
   12        0.000   0.000   0.000   0.000
   13       -0.000  -0.000   0.000  -0.000
   14       -0.000  -0.000   0.000  -0.000
   15       -0.000  -0.000   0.000  -0.000
   16       -0.000  -0.000   0.000  -0.000
   17        0.000  -0.000   0.000  -0.000
   18       -0.000  -0.000   0.000  -0.000
   19        0.000  -0.000   0.000  -0.000
   20       -0.000  -0.000   0.000  -0.000
   21        0.000  -0.000   0.000  -0.000
   22       -0.000  -0.000   0.000  -0.000
   23        0.000  -0.000   0.000  -0.000
   24       -0.000  -0.000   0.000  -0.000
   25        0.000   0.000   0.000   0.000
   26        0.000   0.000   0.000   0.000
   27        0.000   0.000   0.000   0.000
   28        0.000   0.000   0.000   0.000
   29       -0.000  -0.000   0.000  -0.000
   30       -0.000  -0.000   0.000  -0.000
   31        0.000   0.000   0.000   0.000
   32        0.000   0.000   0.000   0.000
--------------------------------------------------
tot          0.000  -0.000   0.002   0.001
 
    CHARGE:  cpu time    0.3829: real time    0.3811
    FORLOC:  cpu time    0.0100: real time    0.0101
    FORNL :  cpu time    2.0777: real time    2.0685
    STRESS:  cpu time    6.4320: real time    6.3950
    FORCOR:  cpu time    0.1660: real time    0.1659
    FORHAR:  cpu time    0.0230: real time    0.0224
    MIXING:  cpu time    0.0030: real time    0.0027
    OFIELD:  cpu time    0.0000: real time    0.0000

  FORCE on cell =-STRESS in cart. coord.  units (eV):
  Direction    XX          YY          ZZ          XY          YZ          ZX
  --------------------------------------------------------------------------------------
  Alpha Z   751.41159   751.41159   751.41159
  Ewald   -4442.62997 -4156.37863 -4082.60016    -0.00000    -0.00005    -0.00000
  Hartree  2623.55960  2837.70686  2863.38611    -0.00000    -0.00003     0.00001
  E(xc)   -1231.40440 -1231.47249 -1231.99978    -0.00000    -0.00000     0.00000
  Local   -1811.73571 -2342.15539 -2500.84719     0.00000     0.00008    -0.00000
  n-local  -974.73390  -968.14928  -957.71277     0.00000    -0.00000    -0.00000
  augment   743.20334   752.74985   773.44562     0.00000    -0.00000     0.00000
  Kinetic  4342.50399  4356.34111  4384.88170     0.00000     0.00000     0.00000
  Fock        0.00000     0.00000     0.00000     0.00000     0.00000     0.00000
  -------------------------------------------------------------------------------------
  Total       0.17453     0.05361    -0.03489     0.00000     0.00000     0.00000
  in kB       0.60006     0.18431    -0.11996     0.00000     0.00000     0.00000
  external pressure =        0.22 kB  Pullay stress =        0.00 kB


 VOLUME and BASIS-vectors are now :
 -----------------------------------------------------------------------------
  energy-cutoff  :      700.00
  volume of cell :      466.01
      direct lattice vectors                 reciprocal lattice vectors
     7.939178245 -0.000000002  0.000000008     0.125957620 -0.000000000 -0.000000000
     0.000000001  7.769330120 -0.000000009     0.000000000  0.128711225  0.000000000
     0.000000010 -0.000000011  7.555045522    -0.000000000  0.000000000  0.132361876

  length of vectors
     7.939178245  7.769330120  7.555045522     0.125957620  0.128711225  0.132361876


 FORCES acting on ions
    electron-ion (+dipol)            ewald-force                    non-local-force                 convergence-correction
 -----------------------------------------------------------------------------------------------
   -.433E-04 -.134E-02 0.367E+02   0.430E-04 0.135E-02 -.371E+02   0.247E-06 0.672E-05 0.484E+00   -.649E-09 -.214E-04 -.849E-03
   0.343E-05 0.526E-03 -.388E+02   -.355E-05 -.462E-03 0.395E+02   0.125E-06 -.169E-04 -.634E+00   -.136E-08 -.428E-04 0.131E-02
   -.432E-04 0.133E-02 0.367E+02   0.430E-04 -.135E-02 -.371E+02   0.247E-06 -.672E-05 0.484E+00   -.703E-09 0.214E-04 -.850E-03
   0.346E-05 -.524E-03 -.388E+02   -.359E-05 0.460E-03 0.395E+02   0.124E-06 0.170E-04 -.634E+00   -.145E-08 0.428E-04 0.131E-02
   0.586E-04 -.628E-02 0.149E+02   -.578E-04 0.626E-02 -.149E+02   -.735E-06 0.770E-04 -.679E-02   -.480E-09 -.535E-04 -.173E-03
   -.607E-05 -.634E-02 -.168E+02   0.580E-05 0.684E-02 0.168E+02   0.266E-06 0.221E-04 0.508E-01   0.104E-08 -.390E-03 0.171E-03
   0.584E-04 0.625E-02 0.149E+02   -.577E-04 -.623E-02 -.149E+02   -.731E-06 -.767E-04 -.678E-02   -.313E-09 0.535E-04 -.172E-03
   -.612E-05 0.514E-02 -.168E+02   0.585E-05 -.566E-02 0.168E+02   0.268E-06 -.525E-05 0.508E-01   0.181E-08 0.390E-03 0.170E-03
   0.423E-05 0.114E-02 -.797E+01   -.467E-05 -.126E-02 0.802E+01   0.466E-06 0.113E-03 -.406E-01   0.276E-09 -.115E-07 0.130E-03
   0.403E-05 0.965E-03 -.797E+01   -.447E-05 -.107E-02 0.802E+01   0.462E-06 0.110E-03 -.404E-01   0.131E-09 -.102E-07 0.130E-03
   -.324E-05 -.153E-03 0.115E+02   0.320E-05 0.153E-03 -.124E+02   0.630E-07 0.179E-04 0.952E+00   -.560E-09 -.190E-04 0.148E-02
   -.359E-05 0.152E-03 0.115E+02   0.361E-05 -.152E-03 -.124E+02   -.687E-08 -.181E-04 0.952E+00   -.658E-09 0.190E-04 0.148E-02
   0.172E-04 -.134E-02 -.554E+02   -.170E-04 0.127E-02 0.581E+02   -.247E-06 0.221E-03 -.275E+01   0.292E-09 -.105E-03 -.317E-02
   0.743E-05 -.661E-03 0.584E+02   -.749E-05 0.568E-03 -.614E+02   -.583E-08 0.240E-03 0.297E+01   0.600E-09 -.104E-03 0.315E-02
   0.170E-04 0.103E-02 -.554E+02   -.167E-04 -.944E-03 0.581E+02   -.301E-06 -.239E-03 -.275E+01   0.367E-09 0.105E-03 -.317E-02
   0.765E-05 0.363E-03 0.584E+02   -.776E-05 -.251E-03 -.614E+02   0.483E-07 -.258E-03 0.297E+01   0.640E-09 0.104E-03 0.315E-02
   -.854E+02 -.156E-02 0.195E+01   0.946E+02 0.157E-02 0.244E+00   -.914E+01 0.272E-04 -.219E+01   -.215E-01 -.244E-04 -.867E-03
   -.120E+03 -.211E-02 -.334E+01   0.131E+03 0.247E-02 0.139E+01   -.116E+02 -.300E-03 0.194E+01   -.243E-01 -.865E-04 0.703E-03
   -.854E+02 0.157E-02 0.195E+01   0.946E+02 -.157E-02 0.243E+00   -.914E+01 -.248E-04 -.219E+01   -.215E-01 0.244E-04 -.867E-03
   -.120E+03 0.188E-02 -.334E+01   0.131E+03 -.222E-02 0.139E+01   -.116E+02 0.273E-03 0.194E+01   -.243E-01 0.865E-04 0.703E-03
   0.854E+02 -.156E-02 0.195E+01   -.946E+02 0.157E-02 0.244E+00   0.914E+01 0.272E-04 -.219E+01   0.215E-01 -.244E-04 -.867E-03
   0.120E+03 -.211E-02 -.334E+01   -.131E+03 0.247E-02 0.139E+01   0.116E+02 -.300E-03 0.194E+01   0.243E-01 -.865E-04 0.703E-03
   0.854E+02 0.157E-02 0.195E+01   -.946E+02 -.157E-02 0.243E+00   0.914E+01 -.248E-04 -.219E+01   0.215E-01 0.244E-04 -.867E-03
   0.120E+03 0.188E-02 -.334E+01   -.131E+03 -.222E-02 0.139E+01   0.116E+02 0.273E-03 0.194E+01   0.243E-01 0.865E-04 0.703E-03
   -.580E-05 -.642E-04 -.235E+01   0.244E-05 0.336E-04 0.616E+01   0.327E-05 0.371E-04 -.381E+01   0.178E-08 -.869E-07 -.189E-02
   -.104E-04 0.507E-03 -.885E+00   0.120E-04 -.527E-03 -.226E+01   -.152E-05 0.200E-05 0.314E+01   -.160E-08 -.100E-05 0.167E-02
   -.557E-05 0.676E-04 -.235E+01   0.220E-05 -.373E-04 0.616E+01   0.328E-05 -.367E-04 -.381E+01   0.184E-08 0.865E-07 -.189E-02
   -.989E-05 -.498E-03 -.885E+00   0.114E-04 0.516E-03 -.226E+01   -.148E-05 0.436E-06 0.314E+01   -.160E-08 0.100E-05 0.167E-02
   0.168E-05 -.759E-05 0.852E+01   0.248E-05 0.825E-05 -.859E+01   -.400E-05 0.117E-05 0.720E-01   0.349E-08 -.560E-07 -.123E-03
   0.148E-05 0.153E-04 0.852E+01   0.270E-05 -.126E-04 -.859E+01   -.401E-05 -.350E-05 0.720E-01   0.361E-08 0.579E-07 -.124E-03
   -.161E-04 -.378E-03 -.487E+01   0.154E-04 0.386E-03 0.490E+01   0.690E-06 0.141E-04 -.224E-01   -.127E-08 -.221E-04 -.156E-02
   -.158E-04 0.376E-03 -.487E+01   0.151E-04 -.384E-03 0.490E+01   0.773E-06 -.143E-04 -.226E-01   -.119E-08 0.221E-04 -.156E-02
 -----------------------------------------------------------------------------------------------
   0.235E-05 -.158E-03 0.168E+00   0.893E-13 -.159E-12 0.906E-13   -.230E-05 0.157E-03 -.172E+00   0.751E-08 0.917E-07 -.359E-03
 
 
 POSITION                                       TOTAL-FORCE (eV/Angst)
 -----------------------------------------------------------------------------------
      7.93918      7.76933      7.46721        -0.000000      0.000003     -0.005320
      0.00000      0.00000      3.85128        -0.000000      0.000005      0.006562
      7.93918      3.88467      7.46722        -0.000000     -0.000002     -0.005596
      0.00000      3.88466      3.85128        -0.000000     -0.000005      0.006732
      3.96959      7.76933      0.00283        -0.000000      0.000010      0.003833
      3.96959      7.76932      3.77432        -0.000000      0.000126      0.005984
      3.96959      3.88467      0.00283        -0.000000     -0.000009      0.003804
      3.96959      3.88467      3.77432        -0.000000     -0.000140      0.006002
      3.96959      1.94233      3.78018         0.000000     -0.000001      0.004669
      3.96959      5.82700      3.78017         0.000000      0.000008      0.004705
      7.93918      7.76933      5.67302         0.000000     -0.000001      0.005155
      7.93918      3.88467      5.67302         0.000000      0.000001      0.005292
      3.96959      7.76932      1.83517        -0.000000      0.000047     -0.004324
      3.96959      7.76932      5.72426        -0.000000      0.000043      0.006643
      3.96959      3.88468      1.83517        -0.000000     -0.000045     -0.004324
      3.96959      3.88468      5.72426        -0.000000     -0.000041      0.006656
      1.89336      7.76933      0.03938        -0.000109      0.000006     -0.002482
      1.87208      0.00000      3.73772        -0.000298     -0.000025     -0.005543
      1.89336      3.88467      0.03938        -0.000111     -0.000005     -0.002465
      1.87208      3.88466      3.73772        -0.000274      0.000026     -0.005551
      6.04582      7.76933      0.03938         0.000109      0.000006     -0.002482
      6.06710      0.00000      3.73772         0.000299     -0.000025     -0.005543
      6.04582      3.88467      0.03938         0.000111     -0.000005     -0.002465
      6.06710      3.88466      3.73772         0.000274      0.000026     -0.005551
      7.93918      1.94233      0.06206        -0.000000      0.000006     -0.001943
      0.00000      1.94233      3.72373         0.000000     -0.000019     -0.008996
      7.93918      5.82700      0.06206        -0.000000     -0.000006     -0.001941
      0.00000      5.82700      3.72373         0.000000      0.000020     -0.008995
      3.96959      1.94233      0.00007         0.000000      0.000002      0.004723
      3.96959      5.82700      0.00007         0.000000     -0.000001      0.004732
      7.93918      7.76933      1.88195        -0.000000      0.000000     -0.000971
      7.93918      3.88467      1.88195        -0.000000     -0.000000     -0.001002
 -----------------------------------------------------------------------------------
    total drift:                                0.000000     -0.000001     -0.003613


--------------------------------------------------------------------------------------------------------



  FREE ENERGIE OF THE ION-ELECTRON SYSTEM (eV)
  ---------------------------------------------------
  free  energy   TOTEN  =      -209.26189560 eV

  energy  without entropy=     -209.25696350  energy(sigma->0) =     -209.25942955
 


--------------------------------------------------------------------------------------------------------


    POTLOK:  cpu time    1.0138: real time    1.0128


--------------------------------------------------------------------------------------------------------


 stress matrix after NEB project (eV)
      0.17453      0.00000      0.00000
      0.00000      0.05361      0.00000
      0.00000      0.00000     -0.03489
  FORCES: max atom, RMS     0.008996    0.005115
  FORCE total and by dimension    0.028937    0.008996
  Stress total and by dimension    0.185886    0.174535
 Quasi-Newton relaxation of ions (Broydens 2nd method)
  g(Force)  = 0.404E-04   g(Stress)= 0.521E-04

 Reset! Starting new Quasi-Newton update for ions 


--------------------------------------------------------------------------------------------------------


  
 reached required accuracy - stopping structural energy minimisation
 writing wavefunctions
     LOOP+:  cpu time   97.7001: real time   98.7573
    4ORBIT:  cpu time    0.0000: real time    0.0000
 


 total charge     
 
# of ion       s       p       d       tot
------------------------------------------
    1        0.318   6.481   1.759   8.557
    2        0.319   6.484   1.751   8.553
    3        0.318   6.481   1.759   8.557
    4        0.319   6.484   1.751   8.553
    5        0.296   6.473   1.793   8.561
    6        0.292   6.427   1.694   8.414
    7        0.296   6.473   1.793   8.561
    8        0.292   6.427   1.694   8.414
    9        1.564   3.401   0.000   4.965
   10        1.564   3.401   0.000   4.965
   11        1.573   3.481   0.000   5.054
   12        1.573   3.481   0.000   5.054
   13        1.569   3.438   0.000   5.007
   14        1.569   3.435   0.000   5.004
   15        1.569   3.438   0.000   5.007
   16        1.569   3.435   0.000   5.004
   17        1.731   4.375   0.000   6.105
   18        1.732   4.369   0.000   6.101
   19        1.731   4.375   0.000   6.105
   20        1.732   4.369   0.000   6.101
   21        1.731   4.375   0.000   6.105
   22        1.732   4.369   0.000   6.101
   23        1.731   4.375   0.000   6.105
   24        1.732   4.369   0.000   6.101
   25        1.730   4.390   0.000   6.120
   26        1.730   4.389   0.000   6.119
   27        1.730   4.390   0.000   6.120
   28        1.730   4.389   0.000   6.119
   29        1.731   4.395   0.000   6.126
   30        1.731   4.395   0.000   6.126
   31        1.731   4.389   0.000   6.121
   32        1.731   4.389   0.000   6.121
--------------------------------------------------
tot         42.695 149.338  13.993 206.027
 


 magnetization (x)
 
# of ion       s       p       d       tot
------------------------------------------
    1        0.000   0.000   0.000   0.000
    2        0.000   0.000   0.000   0.000
    3        0.000   0.000   0.000   0.000
    4        0.000   0.000   0.000   0.000
    5        0.000  -0.000  -0.000  -0.000
    6       -0.000  -0.000  -0.000  -0.000
    7        0.000  -0.000  -0.000  -0.000
    8       -0.000  -0.000  -0.000  -0.000
    9        0.000  -0.000   0.000  -0.000
   10        0.000  -0.000   0.000  -0.000
   11        0.000   0.000   0.000   0.000
   12        0.000   0.000   0.000   0.000
   13       -0.000  -0.000   0.000  -0.000
   14       -0.000  -0.000   0.000  -0.000
   15       -0.000  -0.000   0.000  -0.000
   16       -0.000  -0.000   0.000  -0.000
   17        0.000  -0.000   0.000  -0.000
   18       -0.000  -0.000   0.000  -0.000
   19        0.000  -0.000   0.000  -0.000
   20       -0.000  -0.000   0.000  -0.000
   21        0.000  -0.000   0.000  -0.000
   22       -0.000  -0.000   0.000  -0.000
   23        0.000  -0.000   0.000  -0.000
   24       -0.000  -0.000   0.000  -0.000
   25        0.000   0.000   0.000   0.000
   26        0.000   0.000   0.000   0.000
   27        0.000   0.000   0.000   0.000
   28        0.000   0.000   0.000   0.000
   29       -0.000  -0.000   0.000  -0.000
   30       -0.000  -0.000   0.000  -0.000
   31        0.000   0.000   0.000   0.000
   32        0.000   0.000   0.000   0.000
--------------------------------------------------
tot          0.000  -0.000   0.002   0.001
 

 total amount of memory used by VASP MPI-rank0    62249. kBytes
=======================================================================

   base      :      30000. kBytes
   nonlr-proj:       8510. kBytes
   fftplans  :       8422. kBytes
   grid      :       8783. kBytes
   one-center:        124. kBytes
   wavefun   :       6410. kBytes
 
  
  
 General timing and accounting informations for this job:
 ========================================================
  
                  Total CPU time used (sec):      117.236
                            User time (sec):      100.412
                          System time (sec):       16.824
                         Elapsed time (sec):      122.809
  
                   Maximum memory used (kb):      175044.
                   Average memory used (kb):           0.
  
                          Minor page faults:       150343
                          Major page faults:           74
                 Voluntary context switches:        22531
