 vasp.5.4.4.18Apr17-6-g9f103f2a35 (build Apr 30 2017 20:10:35) complex          
  
 executed on             LinuxIFC date 2017.08.19  20:44:45
 running on  128 total cores
 distrk:  each k-point on  128 cores,    1 groups
 distr:  one band on NCORES_PER_BAND=   8 cores,   16 groups


--------------------------------------------------------------------------------------------------------


 INCAR:
 POTCAR:   PAW_PBE Ti_pv 07Sep2000                
 POTCAR:   PAW_PBE O 08Apr2002                    
 POTCAR:    PAW_PBE F 08Apr2002                   
 POTCAR:   PAW_PBE Ti_pv 07Sep2000                
   VRHFIN =Ti: d3 s1                                                            
   LEXCH  = PE                                                                  
   EATOM  =  1042.3781 eV,   76.6126 Ry                                         
                                                                                
   TITEL  = PAW_PBE Ti_pv 07Sep2000                                             
   LULTRA =        F    use ultrasoft PP ?                                      
   IUNSCR =        1    unscreen: 0-lin 1-nonlin 2-no                           
   RPACOR =    2.200    partial core radius                                     
   POMASS =   47.880; ZVAL   =   10.000    mass and valenz                      
   RCORE  =    2.500    outmost cutoff radius                                   
   RWIGS  =    2.500; RWIGS  =    1.323    wigner-seitz radius (au A)           
   ENMAX  =  222.338; ENMIN  =  166.753 eV                                      
   RCLOC  =    1.701    cutoff for local pot                                    
   LCOR   =        T    correct aug charges                                     
   LPAW   =        T    paw PP                                                  
   EAUG   =  482.848                                                            
   DEXC   =    -.008                                                            
   RMAX   =    3.092    core radius for proj-oper                               
   RAUG   =    1.300    factor for augmentation sphere                          
   RDEP   =    2.538    radius for radial grids                                 
   QCUT   =   -4.042; QGAM   =    8.085    optimization parameters              
                                                                                
   Description                                                                  
     l     E      TYP  RCUT    TYP  RCUT                                        
     1   .000     23  2.300                                                     
     1  -.100     23  2.300                                                     
     2   .000     23  2.500                                                     
     2   .000     23  2.500                                                     
     0   .000     23  2.500                                                     
     0  1.500     23  2.500                                                     
     3   .000      7   .000                                                     
  local pseudopotential read in
  partial core-charges read in
  atomic valenz-charges read in
  non local Contribution for L=           1  read in
    real space projection operators read in
  non local Contribution for L=           1  read in
    real space projection operators read in
  non local Contribution for L=           2  read in
    real space projection operators read in
  non local Contribution for L=           2  read in
    real space projection operators read in
  non local Contribution for L=           0  read in
    real space projection operators read in
  non local Contribution for L=           0  read in
    real space projection operators read in
    PAW grid and wavefunctions read in
 
   number of l-projection  operators is LMAX  =           6
   number of lm-projection operators is LMMAX =          18
 
 POTCAR:   PAW_PBE O 08Apr2002                    
   VRHFIN =O: s2p4                                                              
   LEXCH  = PE                                                                  
   EATOM  =   432.3788 eV,   31.7789 Ry                                         
                                                                                
   TITEL  = PAW_PBE O 08Apr2002                                                 
   LULTRA =        F    use ultrasoft PP ?                                      
   IUNSCR =        0    unscreen: 0-lin 1-nonlin 2-no                           
   RPACOR =     .000    partial core radius                                     
   POMASS =   16.000; ZVAL   =    6.000    mass and valenz                      
   RCORE  =    1.520    outmost cutoff radius                                   
   RWIGS  =    1.550; RWIGS  =     .820    wigner-seitz radius (au A)           
   ENMAX  =  400.000; ENMIN  =  300.000 eV                                      
   ICORE  =        2    local potential                                         
   LCOR   =        T    correct aug charges                                     
   LPAW   =        T    paw PP                                                  
   EAUG   =  605.392                                                            
   DEXC   =     .000                                                            
   RMAX   =    2.264    core radius for proj-oper                               
   RAUG   =    1.300    factor for augmentation sphere                          
   RDEP   =    1.550    radius for radial grids                                 
   QCUT   =   -5.520; QGAM   =   11.041    optimization parameters              
                                                                                
   Description                                                                  
     l     E      TYP  RCUT    TYP  RCUT                                        
     0   .000     23  1.200                                                     
     0  -.700     23  1.200                                                     
     1   .000     23  1.520                                                     
     1   .600     23  1.520                                                     
     2   .000      7  1.500                                                     
  local pseudopotential read in
  atomic valenz-charges read in
  non local Contribution for L=           0  read in
    real space projection operators read in
  non local Contribution for L=           0  read in
    real space projection operators read in
  non local Contribution for L=           1  read in
    real space projection operators read in
  non local Contribution for L=           1  read in
    real space projection operators read in
    PAW grid and wavefunctions read in
 
   number of l-projection  operators is LMAX  =           4
   number of lm-projection operators is LMMAX =           8
 
 POTCAR:    PAW_PBE F 08Apr2002                   
   VRHFIN =F: s2p5                                                              
   LEXCH  = PE                                                                  
   EATOM  =   659.6475 eV,   48.4827 Ry                                         
                                                                                
   TITEL  = PAW_PBE F 08Apr2002                                                 
   LULTRA =        F    use ultrasoft PP ?                                      
   IUNSCR =        1    unscreen: 0-lin 1-nonlin 2-no                           
   RPACOR =    1.200    partial core radius                                     
   POMASS =   18.998; ZVAL   =    7.000    mass and valenz                      
   RCORE  =    1.520    outmost cutoff radius                                   
   RWIGS  =    1.500; RWIGS  =    0.794    wigner-seitz radius (au A)           
   ENMAX  =  400.000; ENMIN  =  300.000 eV                                      
   ICORE  =        2    local potential                                         
   LCOR   =        T    correct aug charges                                     
   LPAW   =        T    paw PP                                                  
   EAUG   =  613.614                                                            
   RMAX   =    1.555    core radius for proj-oper                               
   RAUG   =    1.300    factor for augmentation sphere                          
   RDEP   =    1.539    radius for radial grids                                 
   RDEPT  =    1.299    core radius for aug-charge                              
                                                                                
   Atomic configuration                                                         
    4 entries                                                                   
     n  l   j            E        occ.                                          
     1  0  0.50      -663.3661   2.0000                                         
     2  0  0.50       -29.8995   2.0000                                         
     2  1  0.50       -11.1114   5.0000                                         
     3  2  1.50       -10.8847   0.0000                                         
   Description                                                                  
     l       E           TYP  RCUT    TYP  RCUT                                 
     0    -29.8995018     23  1.200                                             
     0     -9.5240782     23  1.200                                             
     1    -11.1113914     23  1.520                                             
     1      1.3605826     23  1.520                                             
     2    -10.8846608      7  1.500                                             
  local pseudopotential read in
  partial core-charges read in
  partial kinetic energy density read in
  atomic valenz-charges read in
  non local Contribution for L=           0  read in
    real space projection operators read in
  non local Contribution for L=           0  read in
    real space projection operators read in
  non local Contribution for L=           1  read in
    real space projection operators read in
  non local Contribution for L=           1  read in
    real space projection operators read in
    PAW grid and wavefunctions read in
 
   number of l-projection  operators is LMAX  =           4
   number of lm-projection operators is LMMAX =           8
 
 Optimization of the real space projectors (new method)

 maximal supplied QI-value         = 15.12
 optimisation between [QCUT,QGAM] = [ 13.45, 27.06] = [ 50.69,205.06] Ry 
 Optimized for a Real-space Cutoff    1.49 Angstroem

   l    n(q)    QCUT    max X(q) W(low)/X(q) W(high)/X(q)  e(spline) 
   1     12    13.455     4.841    0.13E-05    0.83E-06    0.56E-07
   1     12    13.455     5.701    0.32E-04    0.25E-04    0.17E-06
   2     11    13.455     4.569    0.64E-05    0.34E-05    0.50E-07
   2     11    13.455    32.276    0.49E-04    0.38E-04    0.46E-06
   0     12    13.455    30.046    0.17E-04    0.41E-05    0.51E-07
   0     12    13.455    45.433    0.12E-04    0.27E-04    0.38E-06
 Optimization of the real space projectors (new method)

 maximal supplied QI-value         = 24.76
 optimisation between [QCUT,QGAM] = [ 13.37, 26.98] = [ 50.04,203.89] Ry 
 Optimized for a Real-space Cutoff    1.17 Angstroem

   l    n(q)    QCUT    max X(q) W(low)/X(q) W(high)/X(q)  e(spline) 
   0      9    13.368     4.192    0.20E-04    0.58E-05    0.56E-07
   0      9    13.368     8.473    0.60E-04    0.52E-04    0.21E-06
   1      9    13.368     2.474    0.22E-04    0.17E-04    0.28E-07
   1      9    13.368     3.912    0.94E-04    0.97E-04    0.20E-06
 Optimization of the real space projectors (new method)

 maximal supplied QI-value         = 24.76
 optimisation between [QCUT,QGAM] = [ 13.37, 26.98] = [ 50.04,203.89] Ry 
 Optimized for a Real-space Cutoff    1.17 Angstroem

   l    n(q)    QCUT    max X(q) W(low)/X(q) W(high)/X(q)  e(spline) 
   0      9    13.368    14.049    0.39E-04    0.34E-04    0.16E-06
   0      9    13.368     8.945    0.54E-04    0.47E-04    0.20E-06
   1      9    13.368     7.086    0.99E-04    0.10E-03    0.23E-06
   1      9    13.368     6.747    0.86E-04    0.89E-04    0.21E-06

 ----------------------------------------------------------------------------- 
|                                                                             |
|  ADVICE TO THIS USER RUNNING 'VASP/VAMP'   (HEAR YOUR MASTER'S VOICE ...):  |
|                                                                             |
|      You enforced a specific xc-type in the INCAR file,                     |
|      a different type was found on the POTCAR file                          |
|          I HOPE YOU KNOW, WHAT YOU ARE  DOING                               |
|                                                                             |
 ----------------------------------------------------------------------------- 

 PAW_PBE Ti_pv 07Sep2000                :
 energy of atom  1       EATOM=-1042.3781
 kinetic energy error for atom=    0.0006 (will be added to EATOM!!)
 PAW_PBE O 08Apr2002                    :
 energy of atom  2       EATOM= -432.3788
 kinetic energy error for atom=    0.0091 (will be added to EATOM!!)
  PAW_PBE F 08Apr2002                   :
 energy of atom  3       EATOM= -659.6475
 kinetic energy error for atom=    0.0140 (will be added to EATOM!!)
 
 
 POSCAR: Ti64 O64 F128                           
  positions in direct lattice
  velocities in cartesian coordinates
 exchange correlation table for  LEXCH =       14
   RHO(1)=    0.500       N(1)  =     2000
   RHO(2)=  100.500       N(2)  =     4000

 VTST: version 3.1, (03/28/14)

 CHAIN: initializing optimizer
 
 OPT: Using VASP QUASI-newton optimizer
 CHAIN: Read ICHAIN            0
 
 POSCAR: Ti64 O64 F128                           
  positions in direct lattice
  velocities in cartesian coordinates
 


--------------------------------------------------------------------------------------------------------


 ion  position               nearest neighbor table
   1  0.007  0.002  0.007-  65 1.82  88 1.82 216 1.95 229 1.96 196 2.02 132 2.04
   2  0.008  0.002  0.507-  66 1.82  89 1.83 217 1.94 230 1.96 197 2.02 131 2.04
   3  0.001  0.493  0.005- 109 1.82  67 1.88 198 1.93 170 1.93 134 1.99 218 1.99
   4  0.001  0.493  0.506- 110 1.83  68 1.83 171 1.93 199 1.97 219 2.00 133 2.06
   5  0.498  0.006  0.006-  69 1.84 106 1.84 193 1.95 172 1.97 233 2.02 136 2.03
   6  0.498  0.007  0.506-  70 1.83 107 1.84 194 1.94 173 1.96 234 2.01 135 2.03
   7  0.500  0.507  0.994- 108 1.83  72 1.83 174 1.95 195 1.96 129 2.03 231 2.04
   8  0.492  0.497  0.494-  97 1.82  71 1.84 232 1.94 220 1.96 130 2.02 175 2.05
   9  0.993  0.000  0.244- 100 1.82  65 1.84 237 1.92 221 1.96 131 2.02 176 2.05
  10  1.000  0.991  0.744- 111 1.77  66 1.84 202 1.93 177 1.98 132 2.02 222 2.07
  11  0.002  0.500  0.243-  67 1.79 178 1.89 223 1.90 203 1.94 235 1.94 133 2.00
  12  0.008  0.502  0.743-  90 1.82  68 1.82 224 1.91 236 1.99 204 2.02 134 2.06
  13  0.494  1.000  0.244-  69 1.83  98 1.84 239 1.94 225 1.96 135 2.02 179 2.04
  14  0.500  0.994  0.744- 113 1.82  70 1.84 180 1.94 200 1.98 136 2.02 226 2.03
  15  0.492  0.499  0.256-  99 1.80  71 1.84 227 1.94 238 1.95 129 2.02 181 2.07
  16  0.498  0.494  0.756- 112 1.83  72 1.84 201 1.95 182 1.97 130 2.02 228 2.03
  17  0.001  0.257  0.994- 109 1.82  75 1.85 183 1.91 208 1.95 216 1.99 137 2.03
  18  0.992  0.257  0.502- 102 1.81 110 1.81 138 1.95 143 1.98 217 2.01 184 2.04
  19  0.007  0.748  0.993-  77 1.80  91 1.84 218 1.95 229 1.98 209 2.03 139 2.04
  20  0.007  0.749  0.494-  92 1.82  76 1.85 219 1.95 230 1.98 140 2.02 210 2.05
  21  0.493  0.244  0.002- 106 1.82 101 1.84 141 1.94 144 1.96 231 2.02 185 2.04
  22  0.501  0.243  0.492- 107 1.80  78 1.83 186 1.94 205 1.98 142 2.02 232 2.03
  23  0.498  0.744  0.005- 108 1.84  73 1.85 206 1.94 187 1.97 146 2.02 233 2.04
  24  0.507  0.752  0.505-  93 1.84  74 1.85 234 1.95 220 1.97 145 2.02 207 2.03
  25  0.992  0.249  0.250- 104 1.77 221 1.91 137 1.93 143 1.93 235 1.94 188 2.02
  26  0.998  0.248  0.758-  75 1.78 214 1.89 222 1.89 236 1.94 189 1.95 138 2.02
  27  0.007  0.751  0.256-  76 1.82  94 1.83 237 1.93 223 1.97 139 2.03 215 2.04
  28  0.993  0.756  0.756- 105 1.83 111 1.86  77 1.87 224 2.02 140 2.02 190 2.06
  29  0.492  0.251  0.258-  78 1.81 103 1.83 238 1.94 225 1.94 141 2.02 191 2.08
  30  0.508  0.256  0.748-  95 1.80 112 1.84 142 1.94 144 1.97 226 2.03 211 2.06
  31  0.507  0.750  0.243-  73 1.83  96 1.84 239 1.94 227 1.95 145 2.02 212 2.03
  32  0.502  0.756  0.743-  74 1.83 113 1.86 192 1.93 213 1.99 228 2.01 146 2.03
  33  0.242  0.993  1.000- 119 1.82  88 1.82 147 1.93 155 1.96 193 2.03 240 2.04
  34  0.242  0.006  0.499-  89 1.81 114 1.84 154 1.93 148 1.97 253 2.00 194 2.03
  35  0.249  0.493  0.009-  79 1.79 118 1.85 195 1.95 170 1.98 241 2.03 157 2.05
  36  0.258  0.507  0.498- 115 1.81  97 1.83 156 1.93 149 1.98 171 2.05 252 2.05
  37  0.752  0.994  0.994-  81 1.84 122 1.84 196 1.95 172 1.97 150 2.03 242 2.03
  38  0.752  0.994  0.494- 123 1.83  80 1.84 197 1.95 173 1.98 151 2.02 243 2.04
  39  0.750  0.493  0.993-  83 1.82 120 1.84 174 1.94 198 1.97 244 2.02 152 2.05
  40  0.747  0.494  0.494- 121 1.85  82 1.85 175 1.93 199 1.98 153 2.01 245 2.01
  41  0.256  0.006  0.250-  98 1.83 116 1.85 154 1.94 147 1.94 255 2.01 176 2.04
  42  0.250  0.992  0.751- 125 1.76 200 1.92 155 1.92 148 1.93 177 1.93 246 2.04
  43  0.258  0.505  0.244-  99 1.84 117 1.86  79 1.86 156 2.02 254 2.04 178 2.09
  44  0.243  0.492  0.753-  90 1.83 124 1.83 157 1.93 149 1.97 201 2.02 247 2.03
  45  0.756  0.003  0.257-  80 1.82 100 1.86 248 1.94 256 1.96 179 2.03 150 2.03
  46  0.750  0.994  0.757- 128 1.83  81 1.83 180 1.95 202 1.96 249 2.03 151 2.04
  47  0.747  0.494  0.256-  82 1.82 126 1.85 181 1.92 250 2.00 203 2.01 152 2.02
  48  0.752  0.493  0.756- 127 1.81  83 1.85 204 1.96 182 1.98 251 2.03 153 2.04
  49  0.258  0.256  0.998- 101 1.81 118 1.83 164 1.94 158 1.97 240 2.03 183 2.08
  50  0.248  0.244  0.508-  84 1.82 114 1.84 184 1.94 205 1.97 252 2.01 163 2.02
  51  0.242  0.755  0.998-  91 1.81 119 1.85 166 1.93 159 1.96 241 2.02 206 2.04
  52  0.245  0.745  0.505-  92 1.87 115 1.87  85 1.88 165 2.01 207 2.04 253 2.04
  53  0.749  0.256  0.991-  87 1.79 120 1.84 185 1.94 208 2.01 242 2.02 160 2.05
  54  0.757  0.256  0.502- 121 1.83 102 1.84 161 1.91 167 1.98 243 2.01 186 2.04
  55  0.752  0.756  0.007-  86 1.82 122 1.83 209 1.94 187 1.97 169 2.02 244 2.03
  56  0.745  0.756  0.498-  93 1.84 123 1.84 168 1.94 162 1.96 245 2.03 210 2.03
  57  0.254  0.244  0.252- 116 1.83 103 1.86 163 1.94 158 1.97 254 2.00 188 2.06
  58  0.253  0.255  0.743-  84 1.81 124 1.83 211 1.91 189 2.01 246 2.02 164 2.03
  59  0.245  0.743  0.251- 117 1.82  94 1.86 165 1.93 159 1.97 212 2.04 255 2.05
  60  0.249  0.752  0.741-  85 1.76 190 1.93 125 1.94 213 1.96 247 1.98 166 2.05
  61  0.753  0.258  0.248- 126 1.79 160 1.91 104 1.94 167 1.97 191 1.97 248 2.01
  62  0.742  0.255  0.756-  95 1.84  87 1.85 127 1.87 249 2.02 161 2.03 214 2.10
  63  0.744  0.748  0.243-  86 1.81  96 1.84 250 1.94 256 1.96 168 2.03 215 2.03
  64  0.758  0.755  0.751- 105 1.81 128 1.86 169 1.94 162 1.96 251 2.02 192 2.05
  65  0.003  0.003  0.125-   1 1.82   9 1.84
  66  0.001  0.003  0.625-   2 1.82  10 1.84
  67  0.004  0.497  0.126-  11 1.79   3 1.88
  68  0.001  0.499  0.625-  12 1.82   4 1.83
  69  0.499  0.996  0.125-  13 1.83   5 1.84
  70  0.496  1.000  0.624-   6 1.83  14 1.84
  71  0.505  0.494  0.375-  15 1.84   8 1.84
  72  0.501  0.498  0.875-   7 1.83  16 1.84
  73  0.500  0.756  0.125-  31 1.83  23 1.85
  74  0.500  0.752  0.624-  32 1.83  24 1.85
  75  0.996  0.250  0.874-  26 1.78  17 1.85
  76  0.998  0.750  0.374-  27 1.82  20 1.85
  77  0.003  0.748  0.877-  19 1.80  28 1.87
  78  0.502  0.257  0.375-  29 1.81  22 1.83
  79  0.243  0.499  0.124-  35 1.79  43 1.86
  80  0.749  0.002  0.375-  45 1.82  38 1.84
  81  0.750  0.005  0.875-  46 1.83  37 1.84
  82  0.745  0.499  0.374-  47 1.82  40 1.85
  83  0.748  0.500  0.876-  39 1.82  48 1.85
  84  0.251  0.249  0.626-  58 1.81  50 1.82
  85  0.254  0.751  0.626-  60 1.76  52 1.88
  86  0.748  0.749  0.125-  63 1.81  55 1.82
  87  0.756  0.247  0.876-  53 1.79  62 1.85
  88  0.124  0.000  0.994-  33 1.82   1 1.82
  89  0.126  0.998  0.501-  34 1.81   2 1.83
  90  0.125  0.497  0.756-  12 1.82  44 1.83
  91  0.125  0.749  0.006-  51 1.81  19 1.84
  92  0.125  0.753  0.500-  20 1.82  52 1.87
  93  0.626  0.751  0.495-  24 1.84  56 1.84
  94  0.125  0.750  0.247-  27 1.83  59 1.86
  95  0.624  0.248  0.749-  30 1.80  62 1.84
  96  0.626  0.747  0.254-  63 1.84  31 1.84
  97  0.375  0.494  0.498-   8 1.82  36 1.83
  98  0.375  0.003  0.251-  41 1.83  13 1.84
  99  0.376  0.493  0.251-  15 1.80  43 1.84
 100  0.876  0.006  0.249-   9 1.82  45 1.86
 101  0.374  0.253  0.002-  49 1.81  21 1.84
 102  0.876  0.246  0.498-  18 1.81  54 1.84
 103  0.374  0.252  0.249-  29 1.83  57 1.86
 104  0.877  0.247  0.251-  25 1.77  61 1.94
 105  0.875  0.751  0.750-  64 1.81  28 1.83
 106  0.500  0.126  0.001-  21 1.82   5 1.84
 107  0.496  0.126  0.496-  22 1.80   6 1.84
 108  0.499  0.625  0.002-   7 1.83  23 1.84
 109  0.002  0.375  0.000-  17 1.82   3 1.82
 110  0.999  0.375  0.498-  18 1.81   4 1.83
 111  0.005  0.876  0.750-  10 1.77  28 1.86
 112  0.496  0.375  0.746-  16 1.83  30 1.84
 113  0.501  0.876  0.753-  14 1.82  32 1.86
 114  0.252  0.125  0.496-  34 1.84  50 1.84
 115  0.252  0.624  0.496-  36 1.81  52 1.87
 116  0.245  0.126  0.254-  57 1.83  41 1.85
 117  0.252  0.625  0.255-  59 1.82  43 1.86
 118  0.243  0.374  0.995-  49 1.83  35 1.85
 119  0.251  0.876  0.996-  33 1.82  51 1.85
 120  0.753  0.375  0.004-  39 1.84  53 1.84
 121  0.750  0.374  0.501-  54 1.83  40 1.85
 122  0.755  0.875  0.998-  55 1.83  37 1.84
 123  0.754  0.875  0.501-  38 1.83  56 1.84
 124  0.253  0.373  0.756-  44 1.83  58 1.83
 125  0.248  0.878  0.754-  42 1.76  60 1.94
 126  0.750  0.374  0.247-  61 1.79  47 1.85
 127  0.753  0.375  0.746-  48 1.81  62 1.87
 128  0.747  0.875  0.750-  46 1.83  64 1.86
 129  0.499  0.499  0.125-  15 2.02   7 2.03
 130  0.499  0.505  0.625-   8 2.02  16 2.02
 131  0.000  0.999  0.375-   9 2.02   2 2.04
 132  0.996  0.005  0.875-  10 2.02   1 2.04
 133  0.998  0.501  0.373-  11 2.00   4 2.06
 134  0.995  0.500  0.876-   3 1.99  12 2.06
 135  0.503  0.002  0.374-  13 2.02   6 2.03
 136  0.500  0.003  0.875-  14 2.02   5 2.03
 137  0.003  0.249  0.125-  25 1.93  17 2.03
 138  0.004  0.248  0.627-  18 1.95  26 2.02
 139  0.995  0.750  0.125-  27 2.03  19 2.04
 140  0.001  0.747  0.625-  28 2.02  20 2.02
 141  0.505  0.249  0.127-  21 1.94  29 2.02
 142  0.493  0.246  0.623-  30 1.94  22 2.02
 143  0.005  0.248  0.374-  25 1.93  18 1.98
 144  0.500  0.253  0.876-  21 1.96  30 1.97
 145  0.496  0.746  0.374-  24 2.02  31 2.02
 146  0.501  0.748  0.875-  23 2.02  32 2.03
 147  0.247  0.001  0.125-  33 1.93  41 1.94
 148  0.254  0.002  0.627-  42 1.93  34 1.97
 149  0.247  0.499  0.626-  44 1.97  36 1.98
 150  0.748  1.000  0.125-  45 2.03  37 2.03
 151  0.751  0.003  0.625-  38 2.02  46 2.04
 152  0.755  0.505  0.126-  47 2.02  39 2.05
 153  0.755  0.504  0.624-  40 2.01  48 2.04
 154  0.249  0.991  0.375-  34 1.93  41 1.94
 155  0.254  0.010  0.874-  42 1.92  33 1.96
 156  0.245  0.492  0.374-  36 1.93  43 2.02
 157  0.257  0.506  0.877-  44 1.93  35 2.05
 158  0.243  0.250  0.125-  49 1.97  57 1.97
 159  0.259  0.749  0.124-  51 1.96  59 1.97
 160  0.749  0.245  0.124-  61 1.91  53 2.05
 161  0.752  0.246  0.626-  54 1.91  62 2.03
 162  0.746  0.746  0.625-  64 1.96  56 1.96
 163  0.246  0.256  0.377-  57 1.94  50 2.02
 164  0.246  0.240  0.874-  49 1.94  58 2.03
 165  0.253  0.761  0.375-  59 1.93  52 2.01
 166  0.247  0.745  0.873-  51 1.93  60 2.05
 167  0.746  0.246  0.374-  61 1.97  54 1.98
 168  0.759  0.748  0.373-  56 1.94  63 2.03
 169  0.749  0.744  0.876-  64 1.94  55 2.02
 170  0.124  0.508  0.989-   3 1.93  35 1.98
 171  0.125  0.500  0.497-   4 1.93  36 2.05
 172  0.625  0.998  0.999-   5 1.97  37 1.97
 173  0.624  0.999  0.503-   6 1.96  38 1.98
 174  0.625  0.499  0.007-  39 1.94   7 1.95
 175  0.624  0.503  0.507-  40 1.93   8 2.05
 176  0.125  0.995  0.253-  41 2.04   9 2.05
 177  0.126  0.007  0.755-  42 1.93  10 1.98
 178  0.123  0.500  0.256-  11 1.89  43 2.09
 179  0.625  0.999  0.249-  45 2.03  13 2.04
 180  0.625  0.009  0.748-  14 1.94  46 1.95
 181  0.624  0.506  0.242-  47 1.92  15 2.07
 182  0.625  0.503  0.745-  16 1.97  48 1.98
 183  0.124  0.243  0.999-  17 1.91  49 2.08
 184  0.123  0.248  0.501-  50 1.94  18 2.04
 185  0.624  0.252  0.999-  53 1.94  21 2.04
 186  0.626  0.248  0.505-  22 1.94  54 2.04
 187  0.625  0.752  0.995-  55 1.97  23 1.97
 188  0.122  0.255  0.250-  25 2.02  57 2.06
 189  0.123  0.250  0.751-  26 1.95  58 2.01
 190  0.125  0.745  0.748-  60 1.93  28 2.06
 191  0.626  0.248  0.248-  61 1.97  29 2.08
 192  0.626  0.746  0.753-  32 1.93  64 2.05
 193  0.372  0.002  0.999-   5 1.95  33 2.03
 194  0.373  0.997  0.496-   6 1.94  34 2.03
 195  0.375  0.495  0.004-  35 1.95   7 1.96
 196  0.877  0.005  0.001-  37 1.95   1 2.02
 197  0.877  0.008  0.499-  38 1.95   2 2.02
 198  0.877  0.504  0.002-   3 1.93  39 1.97
 199  0.875  0.503  0.497-   4 1.97  40 1.98
 200  0.374  0.004  0.753-  42 1.92  14 1.98
 201  0.373  0.505  0.747-  16 1.95  44 2.02
 202  0.876  0.003  0.749-  10 1.93  46 1.96
 203  0.876  0.498  0.251-  11 1.94  47 2.01
 204  0.878  0.503  0.752-  48 1.96  12 2.02
 205  0.374  0.259  0.497-  50 1.97  22 1.98
 206  0.374  0.750  0.995-  23 1.94  51 2.04
 207  0.376  0.752  0.497-  24 2.03  52 2.04
 208  0.877  0.247  0.008-  17 1.95  53 2.01
 209  0.876  0.745  0.999-  55 1.94  19 2.03
 210  0.875  0.745  0.505-  56 2.03  20 2.05
 211  0.376  0.243  0.755-  58 1.91  30 2.06
 212  0.376  0.753  0.251-  31 2.03  59 2.04
 213  0.375  0.749  0.756-  60 1.96  32 1.99
 214  0.877  0.247  0.743-  26 1.89  62 2.10
 215  0.875  0.750  0.247-  63 2.03  27 2.04
 216  0.998  0.128  0.001-   1 1.95  17 1.99
 217  0.004  0.127  0.496-   2 1.94  18 2.01
 218  0.998  0.622  0.003-  19 1.95   3 1.99
 219  0.001  0.622  0.498-  20 1.95   4 2.00
 220  0.498  0.624  0.498-   8 1.96  24 1.97
 221  0.010  0.126  0.254-  25 1.91   9 1.96
 222  0.002  0.125  0.751-  26 1.89  10 2.07
 223  0.996  0.624  0.248-  11 1.90  27 1.97
 224  0.002  0.625  0.750-  12 1.91  28 2.02
 225  0.506  0.126  0.250-  29 1.94  13 1.96
 226  0.496  0.125  0.752-  30 2.03  14 2.03
 227  0.496  0.624  0.248-  15 1.94  31 1.95
 228  0.499  0.625  0.750-  32 2.01  16 2.03
 229  0.993  0.876  1.000-   1 1.96  19 1.98
 230  0.991  0.876  0.501-   2 1.96  20 1.98
 231  0.503  0.375  0.004-  21 2.02   7 2.04
 232  0.507  0.373  0.510-   8 1.94  22 2.03
 233  0.498  0.876  0.993-   5 2.02  23 2.04
 234  0.499  0.877  0.492-  24 1.95   6 2.01
 235  0.999  0.375  0.254-  25 1.94  11 1.94
 236  0.996  0.373  0.750-  26 1.94  12 1.99
 237  0.997  0.876  0.249-   9 1.92  27 1.93
 238  0.511  0.374  0.241-  29 1.94  15 1.95
 239  0.501  0.875  0.260-  13 1.94  31 1.94
 240  0.250  0.125  0.004-  49 2.03  33 2.04
 241  0.254  0.625  1.000-  51 2.02  35 2.03
 242  0.748  0.125  0.006-  53 2.02  37 2.03
 243  0.746  0.126  0.501-  54 2.01  38 2.04
 244  0.748  0.625  0.001-  39 2.02  55 2.03
 245  0.751  0.625  0.499-  40 2.01  56 2.03
 246  0.248  0.124  0.748-  58 2.02  42 2.04
 247  0.250  0.624  0.750-  60 1.98  44 2.03
 248  0.745  0.127  0.248-  45 1.94  61 2.01
 249  0.754  0.125  0.745-  62 2.02  46 2.03
 250  0.756  0.623  0.251-  63 1.94  47 2.00
 251  0.749  0.625  0.748-  64 2.02  48 2.03
 252  0.243  0.374  0.502-  50 2.01  36 2.05
 253  0.254  0.877  0.504-  34 2.00  52 2.04
 254  0.244  0.374  0.249-  57 2.00  43 2.04
 255  0.251  0.876  0.244-  41 2.01  59 2.05
 256  0.752  0.875  0.251-  45 1.96  63 1.96
 

IMPORTANT INFORMATION: All symmetrisations will be switched off!
NOSYMM: (Re-)initialisation of all symmetry stuff for point group C_1.

 
 
 KPOINTS: Title                                   

Automatic generation of k-mesh.
Space group operators:
 irot       det(A)        alpha          n_x          n_y          n_z        tau_x        tau_y        tau_z
    1     1.000000     0.000000     1.000000     0.000000     0.000000     0.000000     0.000000     0.000000
 
 Subroutine IBZKPT returns following result:
 ===========================================
 
 Found      4 irreducible k-points:
 
 Following reciprocal coordinates:
            Coordinates               Weight
  0.250000  0.250000  0.250000      2.000000
 -0.250000  0.250000  0.250000      2.000000
  0.250000 -0.250000  0.250000      2.000000
 -0.250000 -0.250000  0.250000      2.000000
 
 Following cartesian coordinates:
            Coordinates               Weight
  0.016153  0.016231  0.016238      2.000000
 -0.016147  0.016240  0.016223      2.000000
  0.016162 -0.016234  0.016232      2.000000
 -0.016138 -0.016225  0.016217      2.000000
 


--------------------------------------------------------------------------------------------------------




 Dimension of arrays:
   k-points           NKPTS =      4   k-points in BZ     NKDIM =      4   number of bands    NBANDS=   1280
   number of dos      NEDOS =   3001   number of ions     NIONS =    256
   non local maximal  LDIM  =      6   non local SUM 2l+1 LMDIM =     18
   total plane-waves  NPLWV = ******
   max r-space proj   IRMAX =  10358   max aug-charges    IRDMAX= 232213
   dimension x,y,z NGX =   140 NGY =  140 NGZ =  140
   dimension x,y,z NGXF=   280 NGYF=  280 NGZF=  280
   support grid    NGXF=   560 NGYF=  560 NGZF=  560
   ions per type =              64  64 128
   NGX,Y,Z   is equivalent  to a cutoff of  15.04, 15.11, 15.11 a.u.
   NGXF,Y,Z  is equivalent  to a cutoff of  30.07, 30.22, 30.21 a.u.

 SYSTEM =  LTO                                     
 POSCAR =  Ti64 O64 F128                           

 Startparameter for this run:
   NWRITE =      2    write-flag & timer
   PREC   = accura    normal or accurate (medium, high low for compatibility)
   ISTART =      1    job   : 0-new  1-cont  2-samecut
   ICHARG =      0    charge: 1-file 2-atom 10-const
   ISPIN  =      2    spin polarized calculation?
   LNONCOLLINEAR =      F non collinear calculations
   LSORBIT =      F    spin-orbit coupling
   INIWAV =      1    electr: 0-lowe 1-rand  2-diag
   LASPH  =      T    aspherical Exc in radial PAW
   METAGGA=      F    non-selfconsistent MetaGGA calc.

 Electronic Relaxation 1
   ENCUT  =  700.0 eV  51.45 Ry    7.17 a.u.  33.39 33.22 33.23*2*pi/ulx,y,z
   ENINI  =  700.0     initial cutoff
   ENAUG  =  613.6 eV  augmentation charge cutoff
   NELM   =     60;   NELMIN=  2; NELMDL=  0     # of ELM steps 
   EDIFF  = 0.1E-05   stopping-criterion for ELM
   LREAL  =      T    real-space projection
   NLSPLINE    = F    spline interpolate recip. space projectors
   LCOMPAT=      F    compatible to vasp.4.4
   GGA_COMPAT  = T    GGA compatible to vasp.4.4-vasp.4.6
   LMAXPAW     = -100 max onsite density
   LMAXMIX     =    4 max onsite mixed and CHGCAR
   VOSKOWN=      0    Vosko Wilk Nusair interpolation
   ROPT   =   -0.00010  -0.00010  -0.00010
 Ionic relaxation
   EDIFFG = -.1E-01   stopping-criterion for IOM
   NSW    =    100    number of steps for IOM
   NBLOCK =      1;   KBLOCK =    100    inner block; outer block 
   IBRION =      1    ionic relax: 0-MD 1-quasi-New 2-CG
   NFREE  =      0    steps in history (QN), initial steepest desc. (CG)
   ISIF   =      3    stress and relaxation
   IWAVPR =     11    prediction:  0-non 1-charg 2-wave 3-comb
   ISYM   =      0    0-nonsym 1-usesym 2-fastsym
   LCORR  =      T    Harris-Foulkes like correction to forces

   POTIM  = 0.5000    time-step for ionic-motion
   TEIN   =    0.0    initial temperature
   TEBEG  =    0.0;   TEEND  =   0.0 temperature during run
   SMASS  =  -3.00    Nose mass-parameter (am)
   estimated Nose-frequenzy (Omega)   =  0.10E-29 period in steps =****** mass=  -0.548E-26a.u.
   SCALEE = 1.0000    scale energy and forces
   NPACO  =    256;   APACO  = 16.0  distance and # of slots for P.C.
   PSTRESS=    0.0 pullay stress

  Mass of Ions in am
   POMASS =  47.88 16.00 19.00
  Ionic Valenz
   ZVAL   =  10.00  6.00  7.00
  Atomic Wigner-Seitz radii
   RWIGS  =  -1.00 -1.00 -1.00
  virtual crystal weights 
   VCA    =   1.00  1.00  1.00
   NELECT =    1920.0000    total number of electrons
   NUPDOWN=      -1.0000    fix difference up-down

 DOS related values:
   EMIN   =  10.00;   EMAX   =-10.00  energy-range for DOS
   EFERMI =   0.00
   ISMEAR =     0;   SIGMA  =   0.01  broadening in eV -4-tet -1-fermi 0-gaus

 Electronic relaxation 2 (details)
   IALGO  =     38    algorithm
   LDIAG  =      T    sub-space diagonalisation (order eigenvalues)
   LSUBROT=      F    optimize rotation matrix (better conditioning)
   TURBO    =      0    0=normal 1=particle mesh
   IRESTART =      0    0=no restart 2=restart with 2 vectors
   NREBOOT  =      0    no. of reboots
   NMIN     =      0    reboot dimension
   EREF     =   0.00    reference energy to select bands
   IMIX   =      4    mixing-type and parameters
     AMIX     =   0.40;   BMIX     =  1.00
     AMIX_MAG =   1.60;   BMIX_MAG =  1.00
     AMIN     =   0.10
     WC   =   100.;   INIMIX=   1;  MIXPRE=   1;  MAXMIX= -45

 Intra band minimization:
   WEIMIN = 0.0010     energy-eigenvalue tresh-hold
   EBREAK =  0.20E-09  absolut break condition
   DEPER  =   0.30     relativ break condition  

   TIME   =   0.40     timestep for ELM

  volume/ion in A,a.u.               =      14.35        96.82
  Fermi-wavevector in a.u.,A,eV,Ry     =   1.318775  2.492124 23.662820  1.739168
  Thomas-Fermi vector in A             =   2.448721
 
 Write flags
   LWAVE        =      T    write WAVECAR
   LDOWNSAMPLE  =      F    k-point downsampling of WAVECAR
   LCHARG       =      T    write CHGCAR
   LVTOT        =      F    write LOCPOT, total local potential
   LVHAR        =      F    write LOCPOT, Hartree potential only
   LELF         =      F    write electronic localiz. function (ELF)
   LORBIT       =     11    0 simple, 1 ext, 2 COOP (PROOUT), +10 PAW based schemes


 Dipole corrections
   LMONO  =      F    monopole corrections only (constant potential shift)
   LDIPOL =      F    correct potential (dipole corrections)
   IDIPOL =      0    1-x, 2-y, 3-z, 4-all directions 
   EPSILON=  1.0000000 bulk dielectric constant

 LDA+U is selected, type is set to LDAUTYPE =  2
   angular momentum for each species LDAUL =     2   -1   -1
   U (eV)           for each species LDAUU =   4.2  0.0  0.0
   J (eV)           for each species LDAUJ =   0.0  0.0  0.0
 Exchange correlation treatment:
   GGA     =    PS    GGA type
   LEXCH   =    14    internal setting for exchange type
   VOSKOWN=      0    Vosko Wilk Nusair interpolation
   LHFCALC =     F    Hartree Fock is set to
   LHFONE  =     F    Hartree Fock one center treatment
   AEXX    =    0.0000 exact exchange contribution

 Linear response parameters
   LEPSILON=     F    determine dielectric tensor
   LRPA    =     F    only Hartree local field effects (RPA)
   LNABLA  =     F    use nabla operator in PAW spheres
   LVEL    =     F    velocity operator in full k-point grid
   LINTERFAST=   F  fast interpolation
   KINTER  =     0    interpolate to denser k-point grid
   CSHIFT  =0.1000    complex shift for real part using Kramers Kronig
   OMEGAMAX=  -1.0    maximum frequency
   DEG_THRESHOLD= 0.2000000E-02 threshold for treating states as degnerate
   RTIME   =   -0.100 relaxation time in fs
  (WPLASMAI=    0.000 imaginary part of plasma frequency in eV, 0.658/RTIME)
   DFIELD  = 0.0000000 0.0000000 0.0000000 field for delta impulse in time
 
 Orbital magnetization related:
   ORBITALMAG=     F  switch on orbital magnetization
   LCHIMAG   =     F  perturbation theory with respect to B field
   DQ        =  0.001000  dq finite difference perturbation B field
   LLRAUG    =     F  two centre corrections for induced B field



--------------------------------------------------------------------------------------------------------


 quasi-Newton-method for relaxation of ions
 charge density and potential will be updated during run
 spin polarized calculation
 Variant of blocked Davidson
 Davidson routine will perform the subspace rotation
 perform sub-space diagonalisation
    after iterative eigenvector-optimisation
 modified Broyden-mixing scheme, WC =      100.0
 initial mixing is a Kerker type mixing with AMIX =  0.4000 and BMIX =      1.0000
 Hartree-type preconditioning will be used
 using additional bands          320
 real space projection scheme for non local part
 use partial core corrections
 calculate Harris-corrections to forces 
   (improved forces if not selfconsistent)
 use gradient corrections 
 use of overlap-Matrix (Vanderbilt PP)
 Gauss-broadening in eV      SIGMA  =   0.01


--------------------------------------------------------------------------------------------------------


  energy-cutoff  :      700.00
  volume of cell :     3672.94
      direct lattice vectors                 reciprocal lattice vectors
    15.479969857  0.004424907 -0.007162348     0.064599628 -0.000018476  0.000029912
     0.004406246 15.401237048 -0.002813911    -0.000018555  0.064929857  0.000011854
    -0.007134216 -0.002814680 15.405924266     0.000030030  0.000011851  0.064910111

  length of vectors
    15.479972146 15.401237935 15.405926175     0.064599638  0.064929860  0.064910119


 
 old parameters found on file WAVECAR:
  energy-cutoff  :      700.00
  volume of cell :     3673.11
      direct lattice vectors                 reciprocal lattice vectors
    15.429243920  0.000000000  0.000000000     0.064811990  0.000000000  0.000000000
     0.000000000 15.429243920  0.000000000     0.000000000  0.064811990  0.000000000
     0.000000000  0.000000000 15.429243920     0.000000000  0.000000000  0.064811990

  length of vectors

 
 k-points in units of 2pi/SCALE and weight: Title                                   
   0.01615278  0.01623081  0.01623797       0.250
  -0.01614704  0.01624005  0.01622301       0.250
   0.01616205 -0.01623412  0.01623204       0.250
  -0.01613776 -0.01622488  0.01621709       0.250
 
 k-points in reciprocal lattice and weights: Title                                   
   0.25000000  0.25000000  0.25000000       0.250
  -0.25000000  0.25000000  0.25000000       0.250
   0.25000000 -0.25000000  0.25000000       0.250
  -0.25000000 -0.25000000  0.25000000       0.250
 
 position of ions in fractional coordinates (direct lattice) 
   0.00708682  0.00171626  0.00691402
   0.00750025  0.00159041  0.50722950
   0.00056076  0.49295163  0.00451468
   0.00139684  0.49291997  0.50598009
   0.49799475  0.00601564  0.00612473
   0.49781955  0.00714730  0.50598943
   0.50020888  0.50659842  0.99383760
   0.49220924  0.49731365  0.49381988
   0.99299543  0.00014593  0.24415500
   0.99980233  0.99079055  0.74420281
   0.00157662  0.50029578  0.24276054
   0.00795116  0.50203819  0.74292633
   0.49355642  0.99974030  0.24360399
   0.50043920  0.99370055  0.74376138
   0.49158258  0.49863991  0.25639743
   0.49819627  0.49383456  0.75557731
   0.00125098  0.25686355  0.99361795
   0.99172167  0.25733134  0.50206584
   0.00736009  0.74821174  0.99332005
   0.00741088  0.74863331  0.49380611
   0.49256685  0.24364691  0.00217691
   0.50127435  0.24275295  0.49246216
   0.49811136  0.74415206  0.00544533
   0.50706966  0.75164385  0.50471556
   0.99170739  0.24870045  0.24976590
   0.99780716  0.24770061  0.75848660
   0.00708442  0.75072362  0.25644509
   0.99286008  0.75597922  0.75579277
   0.49177079  0.25105916  0.25760965
   0.50786845  0.25636812  0.74803724
   0.50714522  0.75030201  0.24343153
   0.50236501  0.75592916  0.74314141
   0.24150122  0.99310498  0.99959045
   0.24225172  0.00617591  0.49907633
   0.24923324  0.49316949  0.00885930
   0.25759631  0.50687620  0.49786098
   0.75157723  0.99405497  0.99364399
   0.75195466  0.99379708  0.49409096
   0.74979424  0.49342667  0.99348502
   0.74748962  0.49425969  0.49440419
   0.25636989  0.00612487  0.25046259
   0.25004015  0.99173651  0.75109799
   0.25753763  0.50539010  0.24438312
   0.24293482  0.49194738  0.75327553
   0.75580784  0.00250610  0.25682627
   0.74966682  0.99396342  0.75667623
   0.74669256  0.49385063  0.25629253
   0.75176006  0.49287153  0.75566787
   0.25755227  0.25619874  0.99837611
   0.24816262  0.24433125  0.50758038
   0.24208459  0.75545373  0.99797310
   0.24505285  0.74496949  0.50475827
   0.74857687  0.25594915  0.99141258
   0.75710162  0.25587348  0.50196405
   0.75164556  0.75633493  0.00721998
   0.74459442  0.75613062  0.49803886
   0.25435827  0.24416999  0.25201687
   0.25302998  0.25495957  0.74337616
   0.24479296  0.74325272  0.25115400
   0.24905871  0.75225281  0.74067001
   0.75254158  0.25771492  0.24753278
   0.74214126  0.25512991  0.75632819
   0.74406469  0.74833545  0.24252508
   0.75808544  0.75544722  0.75149160
   0.00336943  0.00276601  0.12509328
   0.00127077  0.00344285  0.62535130
   0.00442414  0.49733957  0.12649948
   0.00136056  0.49923654  0.62468586
   0.49879545  0.99581666  0.12506717
   0.49601351  0.99995251  0.62436617
   0.50549156  0.49428091  0.37487000
   0.50090650  0.49837528  0.87513752
   0.50044353  0.75566596  0.12473365
   0.50014465  0.75194074  0.62429010
   0.99574456  0.24976529  0.87416121
   0.99810334  0.74996208  0.37418510
   0.00252660  0.74815911  0.87650655
   0.50199645  0.25711312  0.37464012
   0.24252941  0.49929107  0.12442536
   0.74907345  0.00217808  0.37490952
   0.75021225  0.00461914  0.87495635
   0.74538339  0.49937438  0.37416508
   0.74849532  0.50048204  0.87569851
   0.25080046  0.24948974  0.62578039
   0.25410979  0.75076317  0.62635007
   0.74817891  0.74935579  0.12488295
   0.75556840  0.24688972  0.87563082
   0.12417581  0.00017020  0.99418544
   0.12558624  0.99755297  0.50091542
   0.12476345  0.49699636  0.75572375
   0.12538784  0.74888324  0.00561890
   0.12474547  0.75313271  0.49984889
   0.62567295  0.75073378  0.49522313
   0.12506098  0.74970734  0.24708954
   0.62382744  0.24841529  0.74876542
   0.62581785  0.74721334  0.25398034
   0.37504962  0.49352409  0.49837779
   0.37481017  0.00303547  0.25106232
   0.37565559  0.49279986  0.25067212
   0.87573156  0.00632535  0.24938223
   0.37433408  0.25295657  0.00221700
   0.87553842  0.24647290  0.49840558
   0.37410299  0.25169340  0.24900059
   0.87712720  0.24680963  0.25054885
   0.87459658  0.75069644  0.74984006
   0.50028462  0.12550536  0.00129016
   0.49594656  0.12590748  0.49640126
   0.49910318  0.62487050  0.00219550
   0.00243625  0.37476523  0.00033746
   0.99938305  0.37460811  0.49798302
   0.00524815  0.87606362  0.75021371
   0.49630689  0.37511712  0.74589722
   0.50148934  0.87607766  0.75255929
   0.25235264  0.12519412  0.49612676
   0.25158781  0.62413935  0.49603348
   0.24539867  0.12558434  0.25406125
   0.25212192  0.62532947  0.25457494
   0.24275023  0.37422347  0.99487486
   0.25062458  0.87553935  0.99574931
   0.75344683  0.37477965  0.00422527
   0.74959447  0.37446060  0.50119512
   0.75451907  0.87496964  0.99830301
   0.75427592  0.87542382  0.50078808
   0.25308353  0.37341023  0.75579054
   0.24766480  0.87750407  0.75404567
   0.74977087  0.37405861  0.24737737
   0.75257088  0.37549646  0.74642129
   0.74690229  0.87542351  0.75035910
   0.49949918  0.49891620  0.12535156
   0.49906663  0.50487619  0.62461158
   0.00044199  0.99937851  0.37530865
   0.99604001  0.00452136  0.87474438
   0.99833806  0.50131961  0.37281800
   0.99459775  0.50010763  0.87581706
   0.50326384  0.00208083  0.37445847
   0.49955821  0.00301691  0.87464157
   0.00335811  0.24857300  0.12535505
   0.00379899  0.24830545  0.62748526
   0.99504060  0.74990332  0.12492702
   0.00106797  0.74679423  0.62503454
   0.50451667  0.24942671  0.12715901
   0.49304434  0.24600593  0.62331380
   0.00453699  0.24848594  0.37444969
   0.49978203  0.25289669  0.87580041
   0.49555862  0.74556638  0.37409286
   0.50090608  0.74790326  0.87460744
   0.24749338  0.00127618  0.12463223
   0.25362537  0.00168670  0.62652200
   0.24654862  0.49862305  0.62571033
   0.74801579  0.99991693  0.12527917
   0.75141638  0.00290568  0.62490280
   0.75455504  0.50472267  0.12619562
   0.75496594  0.50449358  0.62406093
   0.24909864  0.99052627  0.37488196
   0.25426637  0.01020019  0.87439957
   0.24479381  0.49177624  0.37382531
   0.25683829  0.50634219  0.87686055
   0.24274297  0.25016397  0.12498877
   0.25876702  0.74908889  0.12388379
   0.74915882  0.24536698  0.12432281
   0.75220807  0.24559645  0.62550124
   0.74637509  0.74575235  0.62512317
   0.24647063  0.25646577  0.37677941
   0.24584514  0.23982613  0.87393021
   0.25342045  0.76056343  0.37521978
   0.24696979  0.74473884  0.87318268
   0.74570176  0.24578856  0.37435381
   0.75908404  0.74830148  0.37320893
   0.74949363  0.74356622  0.87649240
   0.12373326  0.50798736  0.98947423
   0.12527206  0.50035466  0.49703769
   0.62459135  0.99776577  0.99922784
   0.62435282  0.99949150  0.50286342
   0.62534481  0.49908761  0.00727428
   0.62396624  0.50343723  0.50744627
   0.12492214  0.99535852  0.25314356
   0.12623239  0.00728626  0.75465828
   0.12303687  0.49995701  0.25627989
   0.62506936  0.99859999  0.24881942
   0.62463772  0.00886389  0.74807847
   0.62422135  0.50609210  0.24216874
   0.62490375  0.50255512  0.74457650
   0.12403246  0.24321366  0.99916853
   0.12297986  0.24809846  0.50056285
   0.62386035  0.25180110  0.99909236
   0.62588599  0.24777619  0.50481851
   0.62488709  0.75210775  0.99489545
   0.12188978  0.25460616  0.25015749
   0.12324841  0.25019061  0.75110526
   0.12508515  0.74535032  0.74797609
   0.62569158  0.24846906  0.24843180
   0.62629049  0.74564605  0.75254679
   0.37245708  0.00206001  0.99863960
   0.37331272  0.99680799  0.49592436
   0.37481632  0.49482651  0.00353160
   0.87659297  0.00541903  0.00091146
   0.87711060  0.00848035  0.49922318
   0.87657584  0.50389060  0.00233420
   0.87520441  0.50337343  0.49674837
   0.37356583  0.00372323  0.75293621
   0.37282211  0.50500147  0.74668224
   0.87561581  0.00316122  0.74948265
   0.87648115  0.49775406  0.25054655
   0.87786301  0.50273335  0.75156263
   0.37435103  0.25904413  0.49707606
   0.37351797  0.74992199  0.99474570
   0.37636084  0.75215425  0.49721762
   0.87686739  0.24682749  0.00836314
   0.87625750  0.74470601  0.99949061
   0.87536446  0.74530786  0.50526976
   0.37560671  0.24348923  0.75535647
   0.37605363  0.75342767  0.25073341
   0.37484006  0.74889136  0.75649558
   0.87672827  0.24706492  0.74253704
   0.87530061  0.75022101  0.24734876
   0.99806658  0.12786208  0.00083686
   0.00446758  0.12732418  0.49635637
   0.99839421  0.62201875  0.00287974
   0.00089578  0.62239332  0.49767158
   0.49781706  0.62413886  0.49791968
   0.01027887  0.12608982  0.25371661
   0.00163362  0.12514926  0.75055478
   0.99598480  0.62354567  0.24844491
   0.00190960  0.62544464  0.75036950
   0.50590250  0.12595501  0.25037799
   0.49643089  0.12544278  0.75222991
   0.49607209  0.62424857  0.24832966
   0.49891374  0.62543988  0.74989899
   0.99280895  0.87562040  0.99995710
   0.99107518  0.87584657  0.50109404
   0.50333836  0.37460826  0.00371793
   0.50740646  0.37308448  0.50974007
   0.49756766  0.87577699  0.99278141
   0.49945470  0.87722768  0.49194283
   0.99923070  0.37452298  0.25374184
   0.99633912  0.37324669  0.74973871
   0.99661618  0.87561791  0.24865681
   0.51076276  0.37449117  0.24131497
   0.50148277  0.87531029  0.25982975
   0.25004223  0.12491566  0.00420111
   0.25403402  0.62462247  0.99974109
   0.74822336  0.12539624  0.00597381
   0.74555167  0.12565494  0.50097251
   0.74839055  0.62460032  0.00131755
   0.75094938  0.62457493  0.49909206
   0.24781482  0.12382871  0.74806045
   0.25024623  0.62374512  0.74959855
   0.74509535  0.12736230  0.24767934
   0.75420950  0.12508318  0.74532109
   0.75630804  0.62302893  0.25064401
   0.74947558  0.62475238  0.74833372
   0.24318470  0.37447173  0.50167363
   0.25432382  0.87722987  0.50426095
   0.24350330  0.37380192  0.24883809
   0.25070590  0.87603386  0.24393166
   0.75192627  0.87531369  0.25078984
 
 position of ions in cartesian coordinates  (Angst):
   0.10966199  0.02644439  0.10646131
   0.11249194  0.02309972  7.81428102
   0.01082035  7.59205473  0.06816162
   0.02018517  7.59015930  7.79369389
   7.70892653  0.09483457  0.09077344
   7.70265329  0.11085583  7.79164911
   7.73836034  7.80165845 15.30597854
   7.61805248  7.66003345  7.60282692
  15.36979813  0.00595424  3.75432091
  15.47596635 15.26172945 11.45518319
   0.02487859  7.70449759  3.73853137
   0.11999563  7.72995332 11.44399713
   7.64290563 15.39873568  3.74659644
   7.74585612 15.30433863 11.45195093
   7.61005153  7.68112492  3.94511535
   7.70884877  7.60574087 11.63540899
   0.01340828  3.95322522 15.30687113
  15.34937365  3.96619615  7.72696119
   0.11014416 11.52062309 15.30085535
   0.11449599 11.52852195  7.60537980
   7.62597803  3.75463731  0.02932371
   7.75726808  3.73952765  7.58256142
   7.71398894 11.46305109  0.07822879
   7.84913427 11.57706825  7.76986281
  15.35091440  3.83397973  3.84007174
  15.44170495  3.81717616 11.67734349
   0.11114496 11.56138193  3.94861043
  15.36738315 11.64528111 11.63444765
   7.61186545  3.86807257  3.96448609
   7.85758127  3.94852802 11.51984613
   7.85216212 11.55713806  3.74454410
   7.77462434 11.64237545 11.44305500
   3.73567618 15.29330028 15.39509061
   3.74651603  0.09478385  7.68697960
   3.86023293  7.59649810  0.13331289
   3.98626471  7.80625904  7.66673725
  11.63168411 15.31020516 15.29982384
  11.64108942 15.30764108  7.60374567
  11.60187866  7.59990250 15.29879626
  11.56976746  7.61412669  7.61000896
   3.96683823  0.09476004  3.85675425
   3.86962534 15.27296146 11.56677715
   3.98715814  7.78408451  3.76168119
   3.75741733  7.57555295 11.60178147
  11.69806130  0.04121852  3.95122559
  11.60380107 15.30945360 11.64913037
  11.55912595  7.60849335  3.94168553
  11.63400370  7.59203074 11.63499064
   3.98090764  3.94410702 15.37834108
   3.83900534  3.76267288  7.81727993
   3.74367116 11.63318419 15.37083825
   3.79309213 11.47311528  7.77241625
  11.58200220  3.94245545 15.26754538
  11.71745652  3.94270529  7.72707750
  11.63873172 11.65179916  0.10371859
  11.52607779 11.64723978  7.66528819
   3.93673636  3.76093613  3.88004388
   3.91271647  3.92572001 11.44986709
   3.79087088 11.44738754  3.86541469
   3.85345186 11.58464120 11.40680553
  11.64869056  3.97176177  3.80735616
  11.48405272  3.93047137 11.64590148
  11.51966603 11.52790145  3.72888794
  11.73310711 11.63606092 11.56986722
   0.05127838  0.04226275  1.92714566
   0.01522533  0.05126954  9.63409593
   0.06977447  7.65930812  1.94741031
   0.01880449  7.68710810  9.62244852
   7.72483414 15.33866349  1.92040072
   7.67822588 15.40094307  9.61257156
   7.82449764  7.61371901  5.77020751
   7.74997004  7.67534905 13.47731236
   7.74929059 11.64005385  1.91592637
   7.74108352 11.58127353  9.61206785
  15.40895980  3.84863998 13.45942669
  15.45124457 11.55370713  5.75540830
   0.03615513 11.52011985 13.50127023
   7.76935000  3.96102697  5.76735833
   3.75566029  7.69042307  1.91374565
  11.59296929  0.03580445  5.77045649
  11.60704120  0.07199736 13.47412500
  11.53804340  7.69322828  5.75761500
  11.58264285  7.70888977 13.48417565
   3.87901848  3.84179896  9.63822689
   3.93245148 11.56204300  9.64556916
  11.58419787 11.54396531  1.91646999
  11.69101693  3.80328574 13.48379567
   1.91514587  0.00037241 15.31545568
   1.94489310 15.36269555  7.71335856
   1.92813286  7.65278376 11.64033075
   1.94425967 11.53426735  0.08355894
   1.93080860 11.59832054  7.69762136
   9.68517322 11.56360360  7.62277620
   1.93748081 11.54627839  3.80363745
   9.65258262  3.82655556 11.53025626
   9.68912196 11.51006402  3.90621691
   5.80437584  7.60113828  7.67389552
   5.80027235  0.04770189  3.86515398
   5.81552030  7.59068413  3.85775846
  13.55454694  0.10059125  3.83567368
   5.79577899  3.89749421  0.03076209
  13.55083862  3.79845885  7.67143422
   5.79043556  3.87734430  3.83269656
  13.57720264  3.80434959  3.85295979
  13.53668686 11.56341320 11.54360256
   7.74493461  1.93514792  0.01593974
   7.67425119  1.93992829  7.64361384
   7.72883984  9.62598097  0.02849063
   0.03936194  5.77185796  0.00412692
  15.46851739  5.77244883  7.66367658
   0.07974915 13.49037510 11.55523285
   7.67914713  5.77736428 11.48662582
   7.76153109 13.49278062 11.58781443
   3.90342346  1.92786450  7.64113152
   3.89378302  9.61223515  7.63829593
   3.79750478  1.93452492  3.91193735
   3.90377895  9.63124650  3.91839687
   3.75231755  5.76177827 15.32417506
   3.87641492 13.48269533 15.33617974
  11.66495538  5.77539232  0.05864313
  11.60177418  5.76906269  7.71495153
  11.67666572 13.47614357 15.37191430
  11.67645308 13.48453782  7.70723755
   3.91397885  5.74997209 11.64078839
   3.83233061 13.51362165 11.61252746
  11.60631381  5.76358676  3.80465428
  11.64610390  5.78433910 11.49286315
  11.56052903 13.48379793 11.55216249
   7.73353627  7.68578413  1.92617521
   7.72330493  7.77616807  9.61772353
   0.00856795 15.39061096  5.77916132
  15.41244856  0.07157985 13.46909890
  15.45379231  7.72431035  5.73504480
  15.39229844  7.70421208 13.48424043
   7.78784684  0.03322028  5.76526844
   7.72691945  0.04621274 13.47107532
   0.05218435  3.82799377  1.93048689
   0.05542577  3.82246171  9.66626451
  15.40561153 11.55349006  1.91537917
   0.01536356 11.49980047  9.62712566
   7.81009469  3.84335447  1.95468676
   7.62894858  3.78922282  9.59850166
   0.06865597  3.82595694  5.76801181
   7.73147687  3.89466819 13.48822347
   7.67184879 11.48378441  5.75759890
   7.75106678 11.51839018 13.46844377
   3.83030649  0.02039907  1.91829841
   3.92165081  0.02533611  9.65032914
   3.81429829  7.67874155  9.63647695
  11.58277395 15.40291498  1.92187024
  11.62745755  0.04631718  9.62181514
  11.68181283  7.77633706  1.93733553
  11.68462067  7.77140940  9.60740846
   3.85772944 15.25537688  5.77083171
   3.92984251  0.15575943 13.46908366
   3.78890066  7.57399342  5.75598723
   3.97182433  7.79696443 13.50558279
   3.75786451  3.85355696  1.92312505
   4.00812251 11.53769189  1.90458301
  11.59715013  3.78191999  1.90925163
  11.64077788  3.78405694  9.63034600
  11.55269017 11.48705179  9.62315594
   3.81379992  3.94992027  5.80214812
   3.80049721  3.69224708 13.46126694
   3.92361530 11.71368298  5.77665231
   3.82013694 11.46853448 13.44832178
  11.54185310  3.78769385  5.76123385
  11.75123277 11.52707695  5.74208600
  11.59916211 11.45268908 13.49571513
   1.91056630  7.82139617 15.24144937
   1.93786649  7.70523611  7.65501986
   9.66592295 15.36677840 15.38674727
   9.66577931 15.39475286  7.73979144
   9.68246595  7.68931315  0.10618368
   9.65757669  7.75488883  7.81179319
   1.93637077 15.32959270  3.89621495
   1.94872183  0.11065190 11.62528369
   1.90498163  7.69977944  3.94594057
   9.67867977 15.38174073  3.82600624
   9.66407519  0.13717321 11.52034144
   9.66342991  7.79652487  3.72493832
   9.67039368  7.74063994 11.46499924
   1.91396204  3.74352765 15.39154194
   1.90124665  3.82015841  7.71005448
   9.65132120  3.87799680 15.38676439
   9.68618646  3.81740844  7.77201576
   9.66944956 11.58335445 15.32069194
   1.88618731  3.92108507  3.85231787
   1.90362554  3.85167618 11.56988397
   1.93426235 11.47776518 11.52026978
   9.68500925  3.82880021  3.82214086
   9.69287453 11.48452462 11.58709496
   5.75850892  0.03056393 15.38229258
   5.77972373 15.35233211  7.63469440
   5.80430049  7.62258904  0.05033065
  13.56965019  0.08733598  0.00774812
  13.57412146  0.13308389  7.68468845
  13.57157122  7.76441080  0.02826420
  13.54681197  7.75504806  7.64518282
   5.77743251  0.05687608 11.59699210
   5.76817320  7.77719534 11.49923880
  13.54917329  0.05045173 11.54019259
  13.56830763  7.66920145  3.85222282
  13.58614634  7.74448452 11.57081468
   5.79253775  3.98985736  7.65450600
   5.77825445 11.54857923 15.32019150
   5.82582135 11.58437175  7.65528492
  13.57490866  3.80530526  0.12186693
  13.56059046 11.47045783 15.38970510
  13.55029475 11.48111421  7.77578077
   5.81006450  3.74957132 11.63358923
   5.82282988 11.60467641  3.85796646
   5.80041558 11.53338268 11.64972158
  13.56751844  3.80689486 11.43249476
  13.55116814 11.55750852  3.80225593
  15.45059805  1.97364819  0.00538428
   0.06617790  1.95957255  7.64643830
  15.45783252  9.58426797  0.03546398
   0.01305853  9.58423025  7.66533293
   7.70539096  9.61331178  7.66559104
   0.15786216  1.94127049  3.90831042
   0.02048517  1.92534804 11.56262631
  15.41878970  9.60708257  3.81863524
   0.02696312  9.63051755 11.55836211
   7.83012425  1.94139675  3.85332648
   7.67992139  1.93205332 11.58488839
   7.68015998  9.61569632  3.82043831
   7.72057559  9.63264485 11.54755369
  15.36537696 13.48721584 15.39568859
  15.34209825 13.49209560  7.71025378
   7.79328677  5.77164744  0.05261891
   7.85264407  5.74677306  7.84833280
   7.69910850 13.48745630 15.28868716
   7.73189929 13.51121681  7.57278820
  15.46790113  5.77182449  3.90091693
  15.41959537  5.75075915 11.54223142
  15.42967267 13.48930900  3.82118597
   7.90652063  5.76920813  3.71296811
   7.76494131 13.48234893  3.99686257
   3.87116659  1.92495031  0.06257952
   3.92805888  9.61826879 15.39835843
  11.58298491  1.93455128  0.08632020
  11.53809706  1.93713037  7.71225102
  11.58780589  9.62292545  0.01318032
  11.62386520  9.62114460  7.68183847
   3.83137477  1.90610636 11.52243925
   3.87120473  9.60544386 11.54471091
  11.53284780  1.96413686  3.81003410
  11.67037422  1.92767523 11.47660646
  11.70858272  9.59805736  3.85423249
  11.59927346  9.62316948 11.52164659
   3.76256272  5.76699195  7.72595047
   3.93719290 13.51013115  7.76431603
   3.76929554  5.75738906  3.83078492
   3.88303947 13.49242783  3.75373194
  11.64186360 13.48353500  3.85580062
 


--------------------------------------------------------------------------------------------------------


 k-point  1 :   0.2500 0.2500 0.2500  plane waves:  154423
 k-point  2 :  -0.2500 0.2500 0.2500  plane waves:  154426
 k-point  3 :   0.2500-0.2500 0.2500  plane waves:  154428
 k-point  4 :  -0.2500-0.2500 0.2500  plane waves:  154408

 maximum and minimum number of plane-waves per node :     19329    19256

 maximum number of plane-waves:    154428
 maximum index in each direction: 
   IXMAX=   33   IYMAX=   33   IZMAX=   32
   IXMIN=  -33   IYMIN=  -33   IZMIN=  -33


 real space projection operators:
  total allocation   :     149035.52 KBytes
  max/ min on nodes  :      19736.56      17527.36


 parallel 3D FFT for wavefunctions:
    minimum data exchange during FFTs selected (reduces bandwidth)
 parallel 3D FFT for charge:
    minimum data exchange during FFTs selected (reduces bandwidth)


 total amount of memory used by VASP MPI-rank0   389452. kBytes
=======================================================================

   base      :      30000. kBytes
   nonlr-proj:      69241. kBytes
   fftplans  :      38734. kBytes
   grid      :      49123. kBytes
   one-center:        995. kBytes
   wavefun   :     201359. kBytes
 
     INWAV:  cpu time  123.3263: real time  154.4460
 Broyden mixing: mesh for mixing (old mesh)
   NGX = 67   NGY = 67   NGZ = 67
  (NGX  =280   NGY  =280   NGZ  =280)
  gives a total of 300763 points

 charge density for first step will be calculated from the start-wavefunctions


--------------------------------------------------------------------------------------------------------


 Maximum index for non-local projection operator         1587
 Maximum index for augmentation-charges         4488 (set IRDMAX)


--------------------------------------------------------------------------------------------------------


 initial charge from wavefunction
 First call to EWALD:  gamma=   0.115
 Maximum number of real-space cells 3x 3x 3
 Maximum number of reciprocal cells 3x 3x 3

    FEWALD:  cpu time    0.0250: real time    0.0239


--------------------------------------- Iteration      1(   1)  ---------------------------------------


    POTLOK:  cpu time    0.7079: real time    0.7090
    SETDIJ:  cpu time    2.3396: real time    2.3395
     EDDAV:  cpu time  181.1815: real time  180.5687
       DOS:  cpu time    0.0070: real time    0.0067
    CHARGE:  cpu time    8.2697: real time    8.2675
    MIXING:  cpu time    0.0070: real time    0.0076
    --------------------------------------------
      LOOP:  cpu time  192.5127: real time  191.8991

 eigenvalue-minimisations  : 20480
 total energy-change (2. order) :-0.1708869E+04  (-0.1881954E-01)
 number of electron    1920.0000025 magnetization      -0.0000000
 augmentation part      495.6318139 magnetization       0.0000000

 Broyden mixing:
  rms(total) = 0.11351E-02    rms(broyden)= 0.10281E-02
  rms(prec ) = 0.11090E-02
  weight for this iteration     100.00

 Free energy of the ion-electron system (eV)
  ---------------------------------------------------
  alpha Z        PSCENC =      6101.55803182
  Ewald energy   TEWEN  =   -102789.98651360
  -Hartree energ DENC   =    -65613.00433768
  -exchange      EXHF   =         0.00000000
  -V(xc)+E(xc)   XCENC  =      8959.00655868
  PAW double counting   =    144219.43238344  -145208.37652237
  entropy T*S    EENTRO =        -0.00000000
  eigenvalues    EBANDS =    -25796.32389254
  atomic energy  EATOM  =    178418.82573015
  Solvation  Ediel_sol  =         0.00000000
  ---------------------------------------------------
  free energy    TOTEN  =     -1708.86856210 eV

  energy without entropy =    -1708.86856210  energy(sigma->0) =    -1708.86856210


--------------------------------------------------------------------------------------------------------




--------------------------------------- Iteration      1(   2)  ---------------------------------------


    POTLOK:  cpu time    0.8259: real time    0.8281
    SETDIJ:  cpu time    2.3946: real time    2.3915
     EDDAV:  cpu time  199.6237: real time  198.7562
       DOS:  cpu time    0.0060: real time    0.0064
    CHARGE:  cpu time    8.2637: real time    8.2606
    MIXING:  cpu time    0.0090: real time    0.0089
    --------------------------------------------
      LOOP:  cpu time  211.1229: real time  210.2517

 eigenvalue-minimisations  : 23360
 total energy-change (2. order) :-0.3587018E-05  (-0.1468280E-05)
 number of electron    1920.0000025 magnetization      -0.0000000
 augmentation part      495.6319527 magnetization       0.0000000

 Broyden mixing:
  rms(total) = 0.69507E-03    rms(broyden)= 0.68404E-03
  rms(prec ) = 0.73607E-03
  weight for this iteration     100.00

 eigenvalues of (default mixing * dielectric matrix)
  average eigenvalue GAMMA=   0.9950
  0.9950

 Free energy of the ion-electron system (eV)
  ---------------------------------------------------
  alpha Z        PSCENC =      6101.55803182
  Ewald energy   TEWEN  =   -102789.98651360
  -Hartree energ DENC   =    -65612.96348240
  -exchange      EXHF   =         0.00000000
  -V(xc)+E(xc)   XCENC  =      8959.00403092
  PAW double counting   =    144219.46483377  -145208.40660781
  entropy T*S    EENTRO =        -0.00000000
  eigenvalues    EBANDS =    -25796.36458855
  atomic energy  EATOM  =    178418.82573015
  Solvation  Ediel_sol  =         0.00000000
  ---------------------------------------------------
  free energy    TOTEN  =     -1708.86856569 eV

  energy without entropy =    -1708.86856569  energy(sigma->0) =    -1708.86856569


--------------------------------------------------------------------------------------------------------




--------------------------------------- Iteration      1(   3)  ---------------------------------------


    POTLOK:  cpu time    0.6779: real time    0.6850
    SETDIJ:  cpu time    2.3676: real time    2.3651
     EDDAV:  cpu time  134.4056: real time  133.8709
       DOS:  cpu time    0.0050: real time    0.0049
    --------------------------------------------
      LOOP:  cpu time  137.4561: real time  136.9258

 eigenvalue-minimisations  : 13312
 total energy-change (2. order) :-0.8508505E-06  (-0.1232942E-06)
 number of electron    1920.0000025 magnetization      -0.0000000
 augmentation part      495.6319527 magnetization       0.0000000

 Free energy of the ion-electron system (eV)
  ---------------------------------------------------
  alpha Z        PSCENC =      6101.55803182
  Ewald energy   TEWEN  =   -102789.98651360
  -Hartree energ DENC   =    -65612.95516263
  -exchange      EXHF   =         0.00000000
  -V(xc)+E(xc)   XCENC  =      8959.00364842
  PAW double counting   =    144219.50369034  -145208.44480435
  entropy T*S    EENTRO =        -0.00000000
  eigenvalues    EBANDS =    -25796.37318669
  atomic energy  EATOM  =    178418.82573015
  Solvation  Ediel_sol  =         0.00000000
  ---------------------------------------------------
  free energy    TOTEN  =     -1708.86856654 eV

  energy without entropy =    -1708.86856654  energy(sigma->0) =    -1708.86856654


--------------------------------------------------------------------------------------------------------




 average (electrostatic) potential at core
  the test charge radii are     1.0397  0.7215  0.7167
  (the norm of the test charge is              1.0000)
       1 -58.8933       2 -58.8903       3 -59.3956       4 -58.9806       5 -58.8528
       6 -58.8602       7 -58.7714       8 -58.7827       9 -58.8846      10 -58.7594
      11 -59.6520      12 -58.9515      13 -58.8516      14 -58.8154      15 -58.7401
      16 -58.7871      17 -59.3421      18 -58.9487      19 -58.7187      20 -58.6867
      21 -58.8633      22 -58.8608      23 -58.7797      24 -58.7273      25 -59.5752
      26 -59.6670      27 -58.7093      28 -58.4693      29 -58.8817      30 -58.6933
      31 -58.7714      32 -58.7801      33 -58.8703      34 -58.8942      35 -58.7673
      36 -58.6850      37 -58.7756      38 -58.7466      39 -58.7619      40 -58.9444
      41 -58.9098      42 -59.4162      43 -58.4652      44 -58.9477      45 -58.8269
      46 -58.7247      47 -58.9753      48 -58.7124      49 -58.8431      50 -58.9587
      51 -58.8481      52 -58.4981      53 -58.7120      54 -58.9280      55 -58.7237
      56 -58.7293      57 -58.9639      58 -58.9518      59 -58.7181      60 -58.8804
      61 -59.1637      62 -58.4198      63 -58.7383      64 -58.6841      65 -74.1223
      66 -74.1023      67 -74.6161      68 -74.2444      69 -74.0436      70 -74.0328
      71 -73.9738      72 -73.9633      73 -73.9306      74 -73.9062      75 -74.7999
      76 -73.9195      77 -73.9124      78 -74.2455      79 -74.0911      80 -73.9697
      81 -73.9438      82 -74.1006      83 -73.9505      84 -74.2950      85 -74.1367
      86 -74.0700      87 -74.0445      88 -74.2277      89 -74.2339      90 -74.2509
      91 -74.1181      92 -73.7999      93 -73.8539      94 -73.9056      95 -74.0699
      96 -73.9254      97 -74.0939      98 -74.0569      99 -74.1042     100 -74.0346
     101 -74.2263     102 -74.2880     103 -74.1681     104 -74.5343     105 -74.0020
     106 -74.0298     107 -74.1885     108 -73.9726     109 -74.6352     110 -74.3122
     111 -74.1946     112 -73.9401     113 -73.9782     114 -74.0979     115 -73.8970
     116 -74.0793     117 -73.8960     118 -74.0513     119 -74.0920     120 -73.9369
     121 -74.0638     122 -73.9465     123 -73.9392     124 -74.1849     125 -74.4541
     126 -74.3747     127 -73.8257     128 -73.9015     129 -78.4088     130 -78.4261
     131 -78.5874     132 -78.6212     133 -78.7977     134 -78.8697     135 -78.4636
     136 -78.5028     137 -79.6146     138 -79.4137     139 -78.3986     140 -78.4115
     141 -79.0829     142 -79.0389     143 -79.6650     144 -79.2040     145 -78.3458
     146 -78.3346     147 -79.5643     148 -79.7198     149 -79.1823     150 -78.4033
     151 -78.4314     152 -78.4510     153 -78.4837     154 -79.5415     155 -79.7225
     156 -78.9570     157 -79.0175     158 -79.2869     159 -79.1283     160 -79.1138
     161 -79.0529     162 -79.0451     163 -79.1165     164 -79.1388     165 -78.9171
     166 -78.9628     167 -79.3295     168 -78.8818     169 -78.8780     170 -79.5877
     171 -79.0046     172 -79.1256     173 -79.1142     174 -79.3871     175 -78.9474
     176 -78.3890     177 -79.6687     178 -79.3258     179 -78.4333     180 -79.4137
     181 -79.0725     182 -79.0439     183 -79.2529     184 -79.0813     185 -79.0248
     186 -79.0682     187 -79.0440     188 -78.6305     189 -79.5254     190 -78.9170
     191 -78.7012     192 -78.8499     193 -78.9744     194 -79.0008     195 -79.3955
     196 -78.9893     197 -78.9512     198 -79.5782     199 -79.1776     200 -79.6337
     201 -78.9452     202 -79.4290     203 -79.4844     204 -78.9632     205 -79.2327
     206 -78.8872     207 -78.2127     208 -79.3769     209 -78.9088     210 -78.1998
     211 -79.0940     212 -78.2960     213 -79.1149     214 -79.3346     215 -78.2958
     216 -79.2879     217 -79.1333     218 -79.2158     219 -79.0442     220 -79.1021
     221 -79.8362     222 -79.4436     223 -79.8008     224 -79.2070     225 -79.4458
     226 -78.4149     227 -79.3924     228 -78.4151     229 -79.3002     230 -79.2023
     231 -78.4432     232 -79.0045     233 -78.4590     234 -78.9288     235 -79.9938
     236 -79.6085     237 -79.5897     238 -79.4450     239 -79.3833     240 -78.5292
     241 -78.5442     242 -78.4392     243 -78.4489     244 -78.4075     245 -78.4471
     246 -78.6623     247 -78.7369     248 -79.0773     249 -78.3383     250 -79.1002
     251 -78.3131     252 -78.4496     253 -78.4553     254 -78.4751     255 -78.4233
     256 -79.1952
 
 
 
 E-fermi :  -0.6634     XC(G=0):  -9.0167     alpha+bet : -7.6964


 spin component 1

 k-point     1 :       0.2500    0.2500    0.2500
  band No.  band energies     occupation 
      1     -35.6635      1.00000
      2     -35.6279      1.00000
      3     -35.6244      1.00000
      4     -35.6133      1.00000
      5     -35.5800      1.00000
      6     -35.5731      1.00000
      7     -35.5041      1.00000
      8     -35.4397      1.00000
      9     -35.4355      1.00000
     10     -35.4246      1.00000
     11     -35.3917      1.00000
     12     -35.3340      1.00000
     13     -35.3215      1.00000
     14     -35.2703      1.00000
     15     -35.2320      1.00000
     16     -35.2168      1.00000
     17     -35.1992      1.00000
     18     -35.1900      1.00000
     19     -35.1383      1.00000
     20     -35.0281      1.00000
     21     -35.0064      1.00000
     22     -34.9832      1.00000
     23     -34.9751      1.00000
     24     -34.9721      1.00000
     25     -34.9651      1.00000
     26     -34.9642      1.00000
     27     -34.9626      1.00000
     28     -34.9599      1.00000
     29     -34.9561      1.00000
     30     -34.9518      1.00000
     31     -34.9306      1.00000
     32     -34.9279      1.00000
     33     -34.9264      1.00000
     34     -34.9246      1.00000
     35     -34.9052      1.00000
     36     -34.9046      1.00000
     37     -34.8986      1.00000
     38     -34.8914      1.00000
     39     -34.8789      1.00000
     40     -34.8754      1.00000
     41     -34.8743      1.00000
     42     -34.8737      1.00000
     43     -34.8700      1.00000
     44     -34.8696      1.00000
     45     -34.8688      1.00000
     46     -34.8656      1.00000
     47     -34.8598      1.00000
     48     -34.8598      1.00000
     49     -34.8508      1.00000
     50     -34.8493      1.00000
     51     -34.8447      1.00000
     52     -34.8429      1.00000
     53     -34.8420      1.00000
     54     -34.8405      1.00000
     55     -34.8279      1.00000
     56     -34.8252      1.00000
     57     -34.8230      1.00000
     58     -34.8128      1.00000
     59     -34.8106      1.00000
     60     -34.8091      1.00000
     61     -34.8083      1.00000
     62     -34.8078      1.00000
     63     -34.8058      1.00000
     64     -34.8052      1.00000
     65     -34.8009      1.00000
     66     -34.8000      1.00000
     67     -34.7984      1.00000
     68     -34.7924      1.00000
     69     -34.7862      1.00000
     70     -34.7850      1.00000
     71     -34.7824      1.00000
     72     -34.7819      1.00000
     73     -34.7797      1.00000
     74     -34.7763      1.00000
     75     -34.7743      1.00000
     76     -34.7735      1.00000
     77     -34.7703      1.00000
     78     -34.7688      1.00000
     79     -34.7687      1.00000
     80     -34.7637      1.00000
     81     -34.7625      1.00000
     82     -34.7602      1.00000
     83     -34.7574      1.00000
     84     -34.7563      1.00000
     85     -34.7546      1.00000
     86     -34.7484      1.00000
     87     -34.7483      1.00000
     88     -34.7462      1.00000
     89     -34.7436      1.00000
     90     -34.7421      1.00000
     91     -34.7401      1.00000
     92     -34.7377      1.00000
     93     -34.7358      1.00000
     94     -34.7342      1.00000
     95     -34.7328      1.00000
     96     -34.7303      1.00000
     97     -34.7263      1.00000
     98     -34.7234      1.00000
     99     -34.7229      1.00000
    100     -34.7200      1.00000
    101     -34.7184      1.00000
    102     -34.7169      1.00000
    103     -34.7165      1.00000
    104     -34.7150      1.00000
    105     -34.7146      1.00000
    106     -34.7112      1.00000
    107     -34.7101      1.00000
    108     -34.7062      1.00000
    109     -34.7051      1.00000
    110     -34.7010      1.00000
    111     -34.6986      1.00000
    112     -34.6963      1.00000
    113     -34.6956      1.00000
    114     -34.6919      1.00000
    115     -34.6914      1.00000
    116     -34.6902      1.00000
    117     -34.6862      1.00000
    118     -34.6861      1.00000
    119     -34.6839      1.00000
    120     -34.6790      1.00000
    121     -34.6743      1.00000
    122     -34.6683      1.00000
    123     -34.6679      1.00000
    124     -34.6654      1.00000
    125     -34.6645      1.00000
    126     -34.6619      1.00000
    127     -34.6589      1.00000
    128     -34.6582      1.00000
    129     -34.6497      1.00000
    130     -34.6473      1.00000
    131     -34.6384      1.00000
    132     -34.6363      1.00000
    133     -34.6348      1.00000
    134     -34.6316      1.00000
    135     -34.6289      1.00000
    136     -34.6280      1.00000
    137     -34.6248      1.00000
    138     -34.6222      1.00000
    139     -34.6185      1.00000
    140     -34.6177      1.00000
    141     -34.6155      1.00000
    142     -34.6121      1.00000
    143     -34.6105      1.00000
    144     -34.6046      1.00000
    145     -34.6034      1.00000
    146     -34.6023      1.00000
    147     -34.6015      1.00000
    148     -34.5990      1.00000
    149     -34.5964      1.00000
    150     -34.5957      1.00000
    151     -34.5898      1.00000
    152     -34.5835      1.00000
    153     -34.5828      1.00000
    154     -34.5794      1.00000
    155     -34.5758      1.00000
    156     -34.5740      1.00000
    157     -34.5725      1.00000
    158     -34.5701      1.00000
    159     -34.5681      1.00000
    160     -34.5678      1.00000
    161     -34.5634      1.00000
    162     -34.5594      1.00000
    163     -34.5545      1.00000
    164     -34.5528      1.00000
    165     -34.5506      1.00000
    166     -34.5492      1.00000
    167     -34.5458      1.00000
    168     -34.5440      1.00000
    169     -34.5409      1.00000
    170     -34.5392      1.00000
    171     -34.5311      1.00000
    172     -34.5282      1.00000
    173     -34.5217      1.00000
    174     -34.5215      1.00000
    175     -34.5191      1.00000
    176     -34.5187      1.00000
    177     -34.5089      1.00000
    178     -34.5000      1.00000
    179     -34.4940      1.00000
    180     -34.4846      1.00000
    181     -34.4163      1.00000
    182     -34.4092      1.00000
    183     -34.4076      1.00000
    184     -34.3723      1.00000
    185     -34.3713      1.00000
    186     -34.3696      1.00000
    187     -34.3597      1.00000
    188     -34.3359      1.00000
    189     -34.3342      1.00000
    190     -34.3326      1.00000
    191     -34.3254      1.00000
    192     -34.2779      1.00000
    193     -23.8133      1.00000
    194     -23.6255      1.00000
    195     -23.5519      1.00000
    196     -23.4768      1.00000
    197     -23.4380      1.00000
    198     -23.4262      1.00000
    199     -23.4149      1.00000
    200     -23.3659      1.00000
    201     -23.3600      1.00000
    202     -23.3197      1.00000
    203     -23.2694      1.00000
    204     -23.2611      1.00000
    205     -23.2365      1.00000
    206     -23.2341      1.00000
    207     -23.2162      1.00000
    208     -23.1903      1.00000
    209     -23.1705      1.00000
    210     -23.1376      1.00000
    211     -23.1181      1.00000
    212     -23.1101      1.00000
    213     -23.0976      1.00000
    214     -23.0909      1.00000
    215     -23.0672      1.00000
    216     -23.0474      1.00000
    217     -23.0332      1.00000
    218     -23.0231      1.00000
    219     -23.0143      1.00000
    220     -23.0101      1.00000
    221     -22.9970      1.00000
    222     -22.9884      1.00000
    223     -22.9847      1.00000
    224     -22.9776      1.00000
    225     -22.9683      1.00000
    226     -22.9479      1.00000
    227     -22.9333      1.00000
    228     -22.9185      1.00000
    229     -22.9142      1.00000
    230     -22.9095      1.00000
    231     -22.8980      1.00000
    232     -22.8959      1.00000
    233     -22.8891      1.00000
    234     -22.8752      1.00000
    235     -22.8681      1.00000
    236     -22.8631      1.00000
    237     -22.8481      1.00000
    238     -22.8357      1.00000
    239     -22.8298      1.00000
    240     -22.8249      1.00000
    241     -22.8046      1.00000
    242     -22.7979      1.00000
    243     -22.7924      1.00000
    244     -22.7760      1.00000
    245     -22.7631      1.00000
    246     -22.7524      1.00000
    247     -22.7454      1.00000
    248     -22.7245      1.00000
    249     -22.7043      1.00000
    250     -22.6896      1.00000
    251     -22.6700      1.00000
    252     -22.6626      1.00000
    253     -22.6595      1.00000
    254     -22.6430      1.00000
    255     -22.6400      1.00000
    256     -22.6337      1.00000
    257     -22.6283      1.00000
    258     -22.6233      1.00000
    259     -22.6133      1.00000
    260     -22.6108      1.00000
    261     -22.6024      1.00000
    262     -22.5960      1.00000
    263     -22.5941      1.00000
    264     -22.5795      1.00000
    265     -22.5652      1.00000
    266     -22.5638      1.00000
    267     -22.5510      1.00000
    268     -22.5302      1.00000
    269     -22.5197      1.00000
    270     -22.5169      1.00000
    271     -22.5090      1.00000
    272     -22.5042      1.00000
    273     -22.4979      1.00000
    274     -22.4813      1.00000
    275     -22.4779      1.00000
    276     -22.4556      1.00000
    277     -22.4349      1.00000
    278     -22.4310      1.00000
    279     -22.4187      1.00000
    280     -22.4109      1.00000
    281     -22.3496      1.00000
    282     -22.3303      1.00000
    283     -22.3248      1.00000
[...]
   79        1.570   3.474   0.000   5.045
   80        1.570   3.468   0.000   5.037
   81        1.569   3.468   0.000   5.038
   82        1.569   3.466   0.000   5.035
   83        1.568   3.468   0.000   5.036
   84        1.570   3.478   0.000   5.049
   85        1.572   3.472   0.000   5.044
   86        1.571   3.479   0.000   5.050
   87        1.570   3.476   0.000   5.046
   88        1.570   3.476   0.000   5.046
   89        1.570   3.476   0.000   5.046
   90        1.570   3.474   0.000   5.043
   91        1.570   3.474   0.000   5.043
   92        1.568   3.461   0.000   5.028
   93        1.568   3.461   0.000   5.029
   94        1.567   3.461   0.000   5.029
   95        1.570   3.478   0.000   5.048
   96        1.568   3.464   0.000   5.032
   97        1.570   3.474   0.000   5.044
   98        1.568   3.464   0.000   5.033
   99        1.570   3.476   0.000   5.046
  100        1.568   3.464   0.000   5.032
  101        1.570   3.475   0.000   5.045
  102        1.570   3.476   0.000   5.045
  103        1.567   3.463   0.000   5.030
  104        1.569   3.454   0.000   5.024
  105        1.570   3.476   0.000   5.046
  106        1.569   3.468   0.000   5.037
  107        1.571   3.478   0.000   5.048
  108        1.569   3.468   0.000   5.037
  109        1.571   3.476   0.000   5.047
  110        1.570   3.479   0.000   5.050
  111        1.571   3.480   0.000   5.051
  112        1.569   3.467   0.000   5.036
  113        1.569   3.466   0.000   5.035
  114        1.568   3.464   0.000   5.032
  115        1.569   3.464   0.000   5.033
  116        1.569   3.464   0.000   5.033
  117        1.568   3.465   0.000   5.034
  118        1.568   3.467   0.000   5.034
  119        1.569   3.468   0.000   5.037
  120        1.568   3.469   0.000   5.037
  121        1.568   3.465   0.000   5.033
  122        1.569   3.468   0.000   5.037
  123        1.569   3.466   0.000   5.035
  124        1.569   3.468   0.000   5.037
  125        1.570   3.457   0.000   5.028
  126        1.571   3.475   0.000   5.046
  127        1.568   3.466   0.000   5.034
  128        1.568   3.464   0.000   5.032
  129        1.729   4.376   0.000   6.105
  130        1.729   4.374   0.000   6.103
  131        1.728   4.374   0.000   6.102
  132        1.728   4.374   0.000   6.102
  133        1.729   4.373   0.000   6.102
  134        1.729   4.374   0.000   6.103
  135        1.729   4.374   0.000   6.103
  136        1.729   4.374   0.000   6.103
  137        1.730   4.383   0.000   6.114
  138        1.730   4.384   0.000   6.114
  139        1.729   4.373   0.000   6.101
  140        1.729   4.374   0.000   6.103
  141        1.730   4.385   0.000   6.116
  142        1.730   4.384   0.000   6.114
  143        1.730   4.389   0.000   6.120
  144        1.729   4.387   0.000   6.117
  145        1.729   4.375   0.000   6.104
  146        1.729   4.374   0.000   6.103
  147        1.730   4.394   0.000   6.124
  148        1.730   4.391   0.000   6.121
  149        1.729   4.384   0.000   6.113
  150        1.729   4.372   0.000   6.101
  151        1.729   4.374   0.000   6.102
  152        1.729   4.373   0.000   6.102
  153        1.729   4.374   0.000   6.103
  154        1.731   4.394   0.000   6.125
  155        1.731   4.393   0.000   6.125
  156        1.730   4.385   0.000   6.115
  157        1.730   4.381   0.000   6.112
  158        1.730   4.386   0.000   6.115
  159        1.730   4.385   0.000   6.115
  160        1.731   4.382   0.000   6.114
  161        1.731   4.385   0.000   6.116
  162        1.730   4.386   0.000   6.116
  163        1.730   4.383   0.000   6.113
  164        1.730   4.383   0.000   6.113
  165        1.730   4.383   0.000   6.113
  166        1.730   4.382   0.000   6.112
  167        1.730   4.384   0.000   6.114
  168        1.730   4.382   0.000   6.112
  169        1.730   4.384   0.000   6.114
  170        1.731   4.387   0.000   6.117
  171        1.730   4.381   0.000   6.111
  172        1.729   4.385   0.000   6.114
  173        1.729   4.384   0.000   6.113
  174        1.730   4.391   0.000   6.121
  175        1.730   4.379   0.000   6.109
  176        1.728   4.369   0.000   6.098
  177        1.730   4.389   0.000   6.120
  178        1.732   4.376   0.000   6.108
  179        1.728   4.372   0.000   6.100
  180        1.730   4.390   0.000   6.121
  181        1.730   4.379   0.000   6.109
  182        1.729   4.382   0.000   6.111
  183        1.731   4.378   0.000   6.109
  184        1.730   4.382   0.000   6.112
  185        1.730   4.382   0.000   6.112
  186        1.730   4.381   0.000   6.111
  187        1.729   4.384   0.000   6.113
  188        1.729   4.372   0.000   6.101
  189        1.729   4.383   0.000   6.112
  190        1.730   4.380   0.000   6.110
  191        1.729   4.374   0.000   6.103
  192        1.730   4.381   0.000   6.111
  193        1.729   4.382   0.000   6.111
  194        1.730   4.382   0.000   6.112
  195        1.730   4.390   0.000   6.120
  196        1.730   4.383   0.000   6.112
  197        1.729   4.381   0.000   6.110
  198        1.731   4.389   0.000   6.120
  199        1.729   4.384   0.000   6.113
  200        1.731   4.391   0.000   6.122
  201        1.730   4.381   0.000   6.110
  202        1.730   4.392   0.000   6.122
  203        1.730   4.383   0.000   6.113
  204        1.729   4.382   0.000   6.111
  205        1.729   4.382   0.000   6.112
  206        1.730   4.381   0.000   6.111
  207        1.729   4.371   0.000   6.099
  208        1.730   4.383   0.000   6.113
  209        1.730   4.382   0.000   6.112
  210        1.728   4.369   0.000   6.097
  211        1.731   4.381   0.000   6.111
  212        1.728   4.371   0.000   6.100
  213        1.729   4.383   0.000   6.112
  214        1.732   4.376   0.000   6.108
  215        1.728   4.372   0.000   6.100
  216        1.730   4.388   0.000   6.118
  217        1.730   4.386   0.000   6.116
  218        1.730   4.387   0.000   6.117
  219        1.730   4.386   0.000   6.116
  220        1.730   4.386   0.000   6.115
  221        1.732   4.392   0.000   6.124
  222        1.732   4.383   0.000   6.114
  223        1.731   4.393   0.000   6.124
  224        1.731   4.387   0.000   6.118
  225        1.730   4.391   0.000   6.121
  226        1.729   4.374   0.000   6.103
  227        1.730   4.392   0.000   6.122
  228        1.729   4.374   0.000   6.103
  229        1.729   4.386   0.000   6.115
  230        1.730   4.384   0.000   6.114
  231        1.729   4.373   0.000   6.102
  232        1.730   4.382   0.000   6.112
  233        1.729   4.372   0.000   6.101
  234        1.730   4.383   0.000   6.113
  235        1.731   4.393   0.000   6.124
  236        1.730   4.387   0.000   6.117
  237        1.731   4.397   0.000   6.128
  238        1.731   4.391   0.000   6.123
  239        1.731   4.392   0.000   6.123
  240        1.729   4.375   0.000   6.103
  241        1.728   4.374   0.000   6.103
  242        1.729   4.374   0.000   6.102
  243        1.729   4.374   0.000   6.103
  244        1.729   4.374   0.000   6.103
  245        1.729   4.375   0.000   6.104
  246        1.729   4.377   0.000   6.106
  247        1.729   4.378   0.000   6.107
  248        1.731   4.385   0.000   6.116
  249        1.729   4.375   0.000   6.104
  250        1.730   4.386   0.000   6.117
  251        1.729   4.374   0.000   6.103
  252        1.729   4.374   0.000   6.103
  253        1.729   4.375   0.000   6.105
  254        1.729   4.375   0.000   6.104
  255        1.729   4.373   0.000   6.102
  256        1.729   4.387   0.000   6.116
--------------------------------------------------
tot        342.2551196.441 112.9231651.619
 


 magnetization (x)
 
# of ion       s       p       d       tot
------------------------------------------
    1        0.000  -0.000  -0.000   0.000
    2       -0.000  -0.000  -0.000  -0.000
    3       -0.000   0.000   0.000   0.000
    4       -0.000  -0.000   0.000   0.000
    5        0.000   0.000   0.000   0.000
    6       -0.000   0.000   0.000   0.000
    7       -0.000   0.000   0.000   0.000
    8       -0.000  -0.000  -0.000  -0.000
    9        0.000  -0.000  -0.000  -0.000
   10        0.000   0.000  -0.000   0.000
   11        0.000   0.000   0.000   0.000
   12        0.000   0.000  -0.000  -0.000
   13        0.000   0.000   0.000   0.000
   14        0.000   0.000   0.000   0.000
   15        0.000  -0.000   0.000   0.000
   16       -0.000  -0.000  -0.000  -0.000
   17        0.000  -0.000   0.000   0.000
   18        0.000  -0.000   0.000   0.000
   19        0.000   0.000  -0.000   0.000
   20        0.000  -0.000  -0.000  -0.000
   21       -0.000   0.000   0.000   0.000
   22       -0.000  -0.000   0.000   0.000
   23        0.000   0.000   0.000   0.000
   24        0.000  -0.000  -0.000  -0.000
   25        0.000   0.000   0.000   0.000
   26       -0.000  -0.000   0.000  -0.000
   27        0.000   0.000   0.000   0.000
   28       -0.000  -0.000  -0.000  -0.000
   29       -0.000  -0.000   0.000  -0.000
   30        0.000  -0.000  -0.000  -0.000
   31        0.000  -0.000  -0.000  -0.000
   32       -0.000   0.000   0.000   0.000
   33        0.000  -0.000  -0.000   0.000
   34       -0.000  -0.000  -0.000  -0.000
   35        0.000   0.000   0.000   0.000
   36       -0.000  -0.000   0.000   0.000
   37        0.000   0.000   0.000   0.000
   38        0.000  -0.000  -0.000  -0.000
   39       -0.000  -0.000   0.000   0.000
   40        0.000  -0.000  -0.000  -0.000
   41        0.000   0.000  -0.000  -0.000
   42        0.000  -0.000  -0.000   0.000
   43       -0.000   0.000   0.000   0.000
   44        0.000   0.000  -0.000  -0.000
   45       -0.000   0.000   0.000   0.000
   46        0.000   0.000   0.000   0.000
   47        0.000   0.000   0.000   0.000
   48       -0.000   0.000   0.000   0.000
   49        0.000   0.000   0.000   0.000
   50       -0.000  -0.000  -0.000  -0.000
   51       -0.000  -0.000  -0.000  -0.000
   52        0.000   0.000   0.000   0.000
   53       -0.000   0.000   0.000  -0.000
   54        0.000  -0.000  -0.000  -0.000
   55       -0.000   0.000   0.000   0.000
   56       -0.000  -0.000  -0.000  -0.000
   57        0.000  -0.000  -0.000  -0.000
   58        0.000  -0.000  -0.000  -0.000
   59       -0.000  -0.000  -0.000  -0.000
   60        0.000  -0.000  -0.000  -0.000
   61       -0.000   0.000   0.000   0.000
   62        0.000  -0.000   0.000   0.000
   63        0.000  -0.000   0.000   0.000
   64        0.000   0.000  -0.000   0.000
   65       -0.000   0.000   0.000   0.000
   66        0.000   0.000   0.000   0.000
   67       -0.000  -0.000   0.000  -0.000
   68       -0.000  -0.000   0.000  -0.000
   69       -0.000  -0.000   0.000  -0.000
   70       -0.000   0.000   0.000  -0.000
   71        0.000   0.000   0.000   0.000
   72       -0.000  -0.000   0.000  -0.000
   73       -0.000   0.000   0.000   0.000
   74       -0.000   0.000   0.000  -0.000
   75        0.000  -0.000   0.000   0.000
   76       -0.000  -0.000   0.000  -0.000
   77        0.000  -0.000   0.000   0.000
   78       -0.000  -0.000   0.000  -0.000
   79       -0.000   0.000   0.000  -0.000
   80        0.000  -0.000   0.000  -0.000
   81       -0.000  -0.000   0.000  -0.000
   82        0.000  -0.000   0.000  -0.000
   83       -0.000   0.000   0.000   0.000
   84       -0.000   0.000   0.000   0.000
   85        0.000   0.000   0.000   0.000
   86       -0.000  -0.000   0.000  -0.000
   87        0.000  -0.000   0.000  -0.000
   88       -0.000   0.000   0.000   0.000
   89       -0.000   0.000   0.000   0.000
   90       -0.000   0.000   0.000  -0.000
   91       -0.000   0.000   0.000  -0.000
   92       -0.000  -0.000   0.000  -0.000
   93       -0.000   0.000   0.000   0.000
   94        0.000   0.000   0.000   0.000
   95        0.000   0.000   0.000   0.000
   96       -0.000  -0.000   0.000  -0.000
   97        0.000   0.000   0.000   0.000
   98       -0.000   0.000   0.000   0.000
   99        0.000  -0.000   0.000  -0.000
  100        0.000  -0.000   0.000  -0.000
  101        0.000  -0.000   0.000  -0.000
  102       -0.000   0.000   0.000  -0.000
  103       -0.000  -0.000   0.000  -0.000
  104        0.000  -0.000   0.000  -0.000
  105       -0.000  -0.000   0.000  -0.000
  106        0.000  -0.000   0.000  -0.000
  107        0.000   0.000   0.000   0.000
  108        0.000  -0.000   0.000  -0.000
  109       -0.000  -0.000   0.000  -0.000
  110        0.000  -0.000   0.000  -0.000
  111       -0.000  -0.000   0.000  -0.000
  112        0.000   0.000   0.000   0.000
  113       -0.000  -0.000   0.000  -0.000
  114       -0.000  -0.000   0.000  -0.000
  115        0.000  -0.000   0.000  -0.000
  116        0.000  -0.000   0.000   0.000
  117       -0.000   0.000   0.000   0.000
  118       -0.000  -0.000   0.000  -0.000
  119        0.000  -0.000   0.000  -0.000
  120        0.000   0.000   0.000   0.000
  121        0.000   0.000   0.000   0.000
  122       -0.000   0.000   0.000  -0.000
  123        0.000   0.000   0.000   0.000
  124        0.000  -0.000   0.000   0.000
  125       -0.000   0.000   0.000   0.000
  126        0.000   0.000   0.000   0.000
  127       -0.000  -0.000   0.000  -0.000
  128        0.000  -0.000   0.000  -0.000
  129        0.000   0.000   0.000   0.000
  130        0.000   0.000   0.000   0.000
  131        0.000   0.000   0.000   0.000
  132        0.000   0.000   0.000   0.000
  133       -0.000   0.000   0.000   0.000
  134       -0.000   0.000   0.000   0.000
  135        0.000   0.000   0.000   0.000
  136       -0.000   0.000   0.000   0.000
  137       -0.000   0.000   0.000  -0.000
  138        0.000  -0.000   0.000  -0.000
  139       -0.000   0.000   0.000   0.000
  140       -0.000   0.000   0.000  -0.000
  141        0.000   0.000   0.000   0.000
  142        0.000  -0.000   0.000   0.000
  143        0.000   0.000   0.000   0.000
  144        0.000  -0.000   0.000  -0.000
  145       -0.000   0.000   0.000  -0.000
  146        0.000   0.000   0.000   0.000
  147       -0.000   0.000   0.000  -0.000
  148        0.000   0.000   0.000   0.000
  149       -0.000  -0.000   0.000  -0.000
  150       -0.000   0.000   0.000   0.000
  151       -0.000   0.000   0.000   0.000
  152        0.000  -0.000   0.000  -0.000
  153       -0.000   0.000   0.000   0.000
  154        0.000  -0.000   0.000   0.000
  155        0.000  -0.000   0.000  -0.000
  156        0.000  -0.000   0.000   0.000
  157       -0.000  -0.000   0.000  -0.000
  158       -0.000  -0.000   0.000  -0.000
  159        0.000  -0.000   0.000   0.000
  160        0.000  -0.000   0.000  -0.000
  161       -0.000  -0.000   0.000  -0.000
  162       -0.000   0.000   0.000   0.000
  163        0.000  -0.000   0.000   0.000
  164        0.000  -0.000   0.000   0.000
  165       -0.000  -0.000   0.000  -0.000
  166        0.000  -0.000   0.000   0.000
  167        0.000   0.000   0.000   0.000
  168       -0.000  -0.000   0.000  -0.000
  169        0.000   0.000   0.000   0.000
  170        0.000   0.000   0.000   0.000
  171        0.000   0.000   0.000   0.000
  172        0.000   0.000   0.000   0.000
  173       -0.000  -0.000   0.000  -0.000
  174       -0.000   0.000   0.000   0.000
  175       -0.000   0.000   0.000   0.000
  176       -0.000   0.000   0.000   0.000
  177        0.000   0.000   0.000   0.000
  178       -0.000  -0.000   0.000  -0.000
  179        0.000   0.000   0.000   0.000
  180       -0.000  -0.000   0.000  -0.000
  181        0.000  -0.000   0.000   0.000
  182        0.000   0.000   0.000   0.000
  183        0.000  -0.000   0.000  -0.000
  184        0.000   0.000   0.000   0.000
  185        0.000  -0.000   0.000   0.000
  186        0.000   0.000   0.000   0.000
  187        0.000  -0.000   0.000  -0.000
  188       -0.000  -0.000   0.000  -0.000
  189        0.000   0.000   0.000   0.000
  190        0.000   0.000   0.000   0.000
  191        0.000   0.000   0.000   0.000
  192       -0.000  -0.000   0.000  -0.000
  193       -0.000   0.000   0.000   0.000
  194       -0.000   0.000   0.000   0.000
  195        0.000  -0.000   0.000  -0.000
  196        0.000   0.000   0.000   0.000
  197        0.000   0.000   0.000   0.000
  198       -0.000  -0.000   0.000  -0.000
  199       -0.000  -0.000   0.000  -0.000
  200        0.000   0.000   0.000   0.000
  201        0.000  -0.000   0.000   0.000
  202       -0.000   0.000   0.000   0.000
  203       -0.000   0.000   0.000   0.000
  204        0.000  -0.000   0.000   0.000
  205       -0.000   0.000   0.000  -0.000
  206       -0.000   0.000   0.000  -0.000
  207       -0.000   0.000   0.000   0.000
  208       -0.000   0.000   0.000  -0.000
  209       -0.000   0.000   0.000   0.000
  210        0.000   0.000   0.000   0.000
  211        0.000   0.000   0.000   0.000
  212        0.000   0.000   0.000   0.000
  213        0.000   0.000   0.000   0.000
  214        0.000  -0.000   0.000   0.000
  215        0.000   0.000   0.000   0.000
  216        0.000  -0.000   0.000  -0.000
  217        0.000  -0.000   0.000  -0.000
  218       -0.000  -0.000   0.000  -0.000
  219       -0.000  -0.000   0.000  -0.000
  220        0.000  -0.000   0.000  -0.000
  221       -0.000   0.000   0.000   0.000
  222        0.000   0.000   0.000   0.000
  223        0.000  -0.000   0.000  -0.000
  224        0.000  -0.000   0.000  -0.000
  225       -0.000  -0.000   0.000  -0.000
  226        0.000   0.000   0.000   0.000
  227        0.000   0.000   0.000   0.000
  228        0.000   0.000   0.000   0.000
  229        0.000  -0.000   0.000  -0.000
  230        0.000  -0.000   0.000   0.000
  231        0.000  -0.000   0.000  -0.000
  232        0.000   0.000   0.000   0.000
  233        0.000  -0.000   0.000  -0.000
  234       -0.000  -0.000   0.000  -0.000
  235        0.000   0.000   0.000   0.000
  236        0.000  -0.000   0.000  -0.000
  237        0.000  -0.000   0.000  -0.000
  238        0.000  -0.000   0.000  -0.000
  239        0.000  -0.000   0.000  -0.000
  240        0.000   0.000   0.000   0.000
  241       -0.000  -0.000   0.000  -0.000
  242        0.000  -0.000   0.000   0.000
  243       -0.000   0.000   0.000   0.000
  244        0.000  -0.000   0.000  -0.000
  245       -0.000   0.000   0.000   0.000
  246        0.000  -0.000   0.000  -0.000
  247        0.000   0.000   0.000   0.000
  248       -0.000  -0.000   0.000  -0.000
  249       -0.000   0.000   0.000   0.000
  250       -0.000   0.000   0.000   0.000
  251        0.000  -0.000   0.000  -0.000
  252        0.000  -0.000   0.000   0.000
  253       -0.000  -0.000   0.000  -0.000
  254        0.000   0.000   0.000   0.000
  255       -0.000  -0.000   0.000  -0.000
  256        0.000  -0.000   0.000  -0.000
--------------------------------------------------
tot          0.000  -0.000   0.000  -0.000
 

 total amount of memory used by VASP MPI-rank0   389452. kBytes
=======================================================================

   base      :      30000. kBytes
   nonlr-proj:      69241. kBytes
   fftplans  :      38734. kBytes
   grid      :      49123. kBytes
   one-center:        995. kBytes
   wavefun   :     201359. kBytes
 
  
  
 General timing and accounting informations for this job:
 ========================================================
  
                  Total CPU time used (sec):     1251.573
                            User time (sec):     1174.191
                          System time (sec):       77.381
                         Elapsed time (sec):     1292.093
  
                   Maximum memory used (kb):      704036.
                   Average memory used (kb):           0.
  
                          Minor page faults:        36148
                          Major page faults:            2
                 Voluntary context switches:       721498
