       N       E                     dE             d eps       ncg     rms          rms(c)
DAV:   1    -0.211505528425E+03   -0.21151E+03   -0.44135E-03  2560   0.427E-01    0.519E-03
DAV:   2    -0.211505528222E+03    0.20309E-06   -0.24657E-06  2368   0.945E-03
   1 F= -.21150553E+03 E0= -.21150553E+03  d E =-.211506E+03  mag=    -0.0000
