 vasp.5.4.4.18Apr17-6-g9f103f2a35 (build Jul 16 2019 12:12:28) complex          
  
 executed on             LinuxIFC date 2020.01.06  12:06:05
 running on   96 total cores
 distrk:  each k-point on   96 cores,    1 groups
 distr:  one band on NCORES_PER_BAND=   8 cores,   12 groups


--------------------------------------------------------------------------------------------------------


 INCAR:
 POTCAR:    PAW_PBE Li_sv 10Sep2004               
 POTCAR:    PAW_PBE Ti_pv 07Sep2000               
 POTCAR:    PAW_PBE O 08Apr2002                   
 POTCAR:    PAW_PBE F 08Apr2002                   
 POTCAR:    PAW_PBE Li_sv 10Sep2004               
   VRHFIN =Li: 1s2s2p                                                           
   LEXCH  = PE                                                                  
   EATOM  =   202.7858 eV,   14.9043 Ry                                         
                                                                                
   TITEL  = PAW_PBE Li_sv 10Sep2004                                             
   LULTRA =        F    use ultrasoft PP ?                                      
   IUNSCR =        0    unscreen: 0-lin 1-nonlin 2-no                           
   RPACOR =    0.000    partial core radius                                     
   POMASS =    7.010; ZVAL   =    3.000    mass and valenz                      
   RCORE  =    1.700    outmost cutoff radius                                   
   RWIGS  =    2.050; RWIGS  =    1.085    wigner-seitz radius (au A)           
   ENMAX  =  499.034; ENMIN  =  374.276 eV                                      
   ICORE  =        2    local potential                                         
   LCOR   =        T    correct aug charges                                     
   LPAW   =        T    paw PP                                                  
   EAUG   =  628.945                                                            
   RMAX   =    1.732    core radius for proj-oper                               
   RAUG   =    1.300    factor for augmentation sphere                          
   RDEP   =    1.728    radius for radial grids                                 
   RDEPT  =    1.329    core radius for aug-charge                              
                                                                                
   Atomic configuration                                                         
    4 entries                                                                   
     n  l   j            E        occ.                                          
     1  0  0.50       -51.8549   2.0000                                         
     2  0  0.50        -2.8742   1.0000                                         
     2  1  0.50        -1.3606   0.0000                                         
     3  2  1.50        -1.3606   0.0000                                         
   Description                                                                  
     l       E           TYP  RCUT    TYP  RCUT                                 
     0    -51.8548813     23  1.400                                             
     0     -2.8742052     23  1.700                                             
     1     -1.3605826     23  1.400                                             
     2     -1.3605826     23  1.400                                             
  local pseudopotential read in
  atomic valenz-charges read in
  non local Contribution for L=           0  read in
    real space projection operators read in
  non local Contribution for L=           0  read in
    real space projection operators read in
  non local Contribution for L=           1  read in
    real space projection operators read in
    PAW grid and wavefunctions read in
 
   number of l-projection  operators is LMAX  =           3
   number of lm-projection operators is LMMAX =           5
 
 POTCAR:    PAW_PBE Ti_pv 07Sep2000               
   VRHFIN =Ti: d3 s1                                                            
   LEXCH  = PE                                                                  
   EATOM  =  1042.5995 eV,   76.6289 Ry                                         
                                                                                
   TITEL  = PAW_PBE Ti_pv 07Sep2000                                             
   LULTRA =        F    use ultrasoft PP ?                                      
   IUNSCR =        1    unscreen: 0-lin 1-nonlin 2-no                           
   RPACOR =    2.200    partial core radius                                     
   POMASS =   47.880; ZVAL   =   10.000    mass and valenz                      
   RCORE  =    2.500    outmost cutoff radius                                   
   RWIGS  =    2.500; RWIGS  =    1.323    wigner-seitz radius (au A)           
   ENMAX  =  222.335; ENMIN  =  166.751 eV                                      
   RCLOC  =    1.701    cutoff for local pot                                    
   LCOR   =        T    correct aug charges                                     
   LPAW   =        T    paw PP                                                  
   EAUG   =  482.848                                                            
   DEXC   =    0.000                                                            
   RMAX   =    2.564    core radius for proj-oper                               
   RAUG   =    1.300    factor for augmentation sphere                          
   RDEP   =    2.538    radius for radial grids                                 
   RDEPT  =    1.952    core radius for aug-charge                              
                                                                                
   Atomic configuration                                                         
    8 entries                                                                   
     n  l   j            E        occ.                                          
     1  0  0.50     -4865.3608   2.0000                                         
     2  0  0.50      -533.1368   2.0000                                         
     2  1  1.50      -440.5031   6.0000                                         
     3  0  0.50       -59.3186   2.0000                                         
     3  1  1.50       -35.7012   6.0000                                         
     3  2  2.50        -1.9157   3.0000                                         
     4  0  0.50        -3.7291   1.0000                                         
     4  3  2.50        -1.3606   0.0000                                         
   Description                                                                  
     l       E           TYP  RCUT    TYP  RCUT                                 
     1    -35.7012140     23  2.300                                             
     1     -1.3605826     23  2.300                                             
     2     -1.9156996     23  2.500                                             
     2     -0.4063033     23  2.500                                             
     0     -3.7290856     23  2.500                                             
     0     20.4087390     23  2.500                                             
  local pseudopotential read in
  partial core-charges read in
  partial kinetic energy density read in
  atomic valenz-charges read in
  non local Contribution for L=           1  read in
    real space projection operators read in
  non local Contribution for L=           1  read in
    real space projection operators read in
  non local Contribution for L=           2  read in
    real space projection operators read in
  non local Contribution for L=           2  read in
    real space projection operators read in
  non local Contribution for L=           0  read in
    real space projection operators read in
  non local Contribution for L=           0  read in
    real space projection operators read in
    PAW grid and wavefunctions read in
 
   number of l-projection  operators is LMAX  =           6
   number of lm-projection operators is LMMAX =          18
 
 POTCAR:    PAW_PBE O 08Apr2002                   
   VRHFIN =O: s2p4                                                              
   LEXCH  = PE                                                                  
   EATOM  =   432.3788 eV,   31.7789 Ry                                         
                                                                                
   TITEL  = PAW_PBE O 08Apr2002                                                 
   LULTRA =        F    use ultrasoft PP ?                                      
   IUNSCR =        1    unscreen: 0-lin 1-nonlin 2-no                           
   RPACOR =    1.200    partial core radius                                     
   POMASS =   16.000; ZVAL   =    6.000    mass and valenz                      
   RCORE  =    1.520    outmost cutoff radius                                   
   RWIGS  =    1.550; RWIGS  =    0.820    wigner-seitz radius (au A)           
   ENMAX  =  400.000; ENMIN  =  300.000 eV                                      
   ICORE  =        2    local potential                                         
   LCOR   =        T    correct aug charges                                     
   LPAW   =        T    paw PP                                                  
   EAUG   =  605.392                                                            
   DEXC   =    0.000                                                            
   RMAX   =    1.553    core radius for proj-oper                               
   RAUG   =    1.300    factor for augmentation sphere                          
   RDEP   =    1.550    radius for radial grids                                 
   RDEPT  =    1.329    core radius for aug-charge                              
                                                                                
   Atomic configuration                                                         
    4 entries                                                                   
     n  l   j            E        occ.                                          
     1  0  0.50      -514.6923   2.0000                                         
     2  0  0.50       -23.9615   2.0000                                         
     2  1  0.50        -9.0305   4.0000                                         
     3  2  1.50        -9.5241   0.0000                                         
   Description                                                                  
     l       E           TYP  RCUT    TYP  RCUT                                 
     0    -23.9615318     23  1.200                                             
     0     -9.5240782     23  1.200                                             
     1     -9.0304911     23  1.520                                             
     1      8.1634956     23  1.520                                             
     2     -9.5240782      7  1.500                                             
  local pseudopotential read in
  partial core-charges read in
  partial kinetic energy density read in
  kinetic energy density of atom read in
  atomic valenz-charges read in
  non local Contribution for L=           0  read in
    real space projection operators read in
  non local Contribution for L=           0  read in
    real space projection operators read in
  non local Contribution for L=           1  read in
    real space projection operators read in
  non local Contribution for L=           1  read in
    real space projection operators read in
    PAW grid and wavefunctions read in
 
   number of l-projection  operators is LMAX  =           4
   number of lm-projection operators is LMMAX =           8
 
 POTCAR:    PAW_PBE F 08Apr2002                   
   VRHFIN =F: s2p5                                                              
   LEXCH  = PE                                                                  
   EATOM  =   659.6475 eV,   48.4827 Ry                                         
                                                                                
   TITEL  = PAW_PBE F 08Apr2002                                                 
   LULTRA =        F    use ultrasoft PP ?                                      
   IUNSCR =        1    unscreen: 0-lin 1-nonlin 2-no                           
   RPACOR =    1.200    partial core radius                                     
   POMASS =   18.998; ZVAL   =    7.000    mass and valenz                      
   RCORE  =    1.520    outmost cutoff radius                                   
   RWIGS  =    1.500; RWIGS  =    0.794    wigner-seitz radius (au A)           
   ENMAX  =  400.000; ENMIN  =  300.000 eV                                      
   ICORE  =        2    local potential                                         
   LCOR   =        T    correct aug charges                                     
   LPAW   =        T    paw PP                                                  
   EAUG   =  613.614                                                            
   RMAX   =    1.555    core radius for proj-oper                               
   RAUG   =    1.300    factor for augmentation sphere                          
   RDEP   =    1.539    radius for radial grids                                 
   RDEPT  =    1.299    core radius for aug-charge                              
                                                                                
   Atomic configuration                                                         
    4 entries                                                                   
     n  l   j            E        occ.                                          
     1  0  0.50      -663.3661   2.0000                                         
     2  0  0.50       -29.8995   2.0000                                         
     2  1  0.50       -11.1114   5.0000                                         
     3  2  1.50       -10.8847   0.0000                                         
   Description                                                                  
     l       E           TYP  RCUT    TYP  RCUT                                 
     0    -29.8995018     23  1.200                                             
     0     -9.5240782     23  1.200                                             
     1    -11.1113914     23  1.520                                             
     1      1.3605826     23  1.520                                             
     2    -10.8846608      7  1.500                                             
  local pseudopotential read in
  partial core-charges read in
  partial kinetic energy density read in
  atomic valenz-charges read in
  non local Contribution for L=           0  read in
    real space projection operators read in
  non local Contribution for L=           0  read in
    real space projection operators read in
  non local Contribution for L=           1  read in
    real space projection operators read in
  non local Contribution for L=           1  read in
    real space projection operators read in
    PAW grid and wavefunctions read in
 
   number of l-projection  operators is LMAX  =           4
   number of lm-projection operators is LMMAX =           8
 
 Optimization of the real space projectors (new method)

 maximal supplied QI-value         = 22.11
 optimisation between [QCUT,QGAM] = [ 11.28, 22.77] = [ 35.61,145.23] Ry 
 Optimized for a Real-space Cutoff    1.31 Angstroem

   l    n(q)    QCUT    max X(q) W(low)/X(q) W(high)/X(q)  e(spline) 
   0      9    11.276    10.506    0.19E-04    0.17E-04    0.32E-07
   0      9    11.276     8.367    0.38E-04    0.40E-04    0.65E-07
   1      8    11.276     8.983    0.55E-04    0.98E-04    0.20E-06
 Optimization of the real space projectors (new method)

 maximal supplied QI-value         = 15.12
 optimisation between [QCUT,QGAM] = [ 11.34, 22.83] = [ 36.00,145.93] Ry 
 Optimized for a Real-space Cutoff    1.56 Angstroem

   l    n(q)    QCUT    max X(q) W(low)/X(q) W(high)/X(q)  e(spline) 
   1     10    11.338     4.216    0.27E-04    0.12E-04    0.66E-07
   1     10    11.338     5.422    0.81E-04    0.24E-04    0.19E-06
   2     10    11.338    72.084    0.64E-04    0.21E-03    0.51E-06
   2     10    11.338    65.965    0.63E-04    0.21E-03    0.50E-06
   0     11    11.338    41.531    0.33E-04    0.54E-04    0.13E-06
   0     11    11.338    16.290    0.26E-04    0.41E-04    0.11E-06
 Optimization of the real space projectors (new method)

 maximal supplied QI-value         = 24.76
 optimisation between [QCUT,QGAM] = [ 11.39, 22.77] = [ 36.31,145.25] Ry 
 Optimized for a Real-space Cutoff    1.20 Angstroem

   l    n(q)    QCUT    max X(q) W(low)/X(q) W(high)/X(q)  e(spline) 
   0      8    11.387    20.381    0.89E-04    0.31E-03    0.27E-06
   0      8    11.387    15.268    0.93E-04    0.32E-03    0.29E-06
   1      8    11.387     5.964    0.53E-04    0.28E-03    0.29E-06
   1      8    11.387     5.382    0.37E-04    0.22E-03    0.26E-06
 Optimization of the real space projectors (new method)

 maximal supplied QI-value         = 24.76
 optimisation between [QCUT,QGAM] = [ 11.39, 22.77] = [ 36.31,145.25] Ry 
 Optimized for a Real-space Cutoff    1.20 Angstroem

   l    n(q)    QCUT    max X(q) W(low)/X(q) W(high)/X(q)  e(spline) 
   0      8    11.387    14.049    0.69E-04    0.23E-03    0.18E-06
   0      8    11.387     8.945    0.88E-04    0.30E-03    0.26E-06
   1      8    11.387     7.086    0.62E-04    0.27E-03    0.27E-06
   1      8    11.387     6.747    0.46E-04    0.23E-03    0.25E-06

 ----------------------------------------------------------------------------- 
|                                                                             |
|  ADVICE TO THIS USER RUNNING 'VASP/VAMP'   (HEAR YOUR MASTER'S VOICE ...):  |
|                                                                             |
|      You enforced a specific xc-type in the INCAR file,                     |
|      a different type was found on the POTCAR file                          |
|          I HOPE YOU KNOW, WHAT YOU ARE  DOING                               |
|                                                                             |
 ----------------------------------------------------------------------------- 

  PAW_PBE Li_sv 10Sep2004               :
 energy of atom  1       EATOM= -202.7858
 kinetic energy error for atom=    0.0143 (will be added to EATOM!!)
  PAW_PBE Ti_pv 07Sep2000               :
 energy of atom  2       EATOM=-1042.5995
 kinetic energy error for atom=    0.0024 (will be added to EATOM!!)
  PAW_PBE O 08Apr2002                   :
 energy of atom  3       EATOM= -432.3788
 kinetic energy error for atom=    0.0224 (will be added to EATOM!!)
  PAW_PBE F 08Apr2002                   :
 energy of atom  4       EATOM= -659.6475
 kinetic energy error for atom=    0.0354 (will be added to EATOM!!)
 
 
 POSCAR: config 37                               
  positions in direct lattice
  velocities in cartesian coordinates
 exchange correlation table for  LEXCH =       14
   RHO(1)=    0.500       N(1)  =     2000
   RHO(2)=  100.500       N(2)  =     4000

 VTST: version 3.2, (02/03/18)

 CHAIN: initializing optimizer
 
 OPT: Using VASP QUASI-newton optimizer
 CHAIN: Read ICHAIN            0
 
 POSCAR: config 37                               
  positions in direct lattice
  velocities in cartesian coordinates
 


--------------------------------------------------------------------------------------------------------


 ion  position               nearest neighbor table
   1  0.631  0.388  0.105-  84 2.16 120 2.17  78 2.22
   2  0.995  0.995  0.995- 118 1.87  68 1.88 103 1.89 171 2.03 212 2.04 130 2.04
   3  0.999  0.992  0.494- 119 1.81  67 1.82 172 1.95 193 1.96 131 2.01 213 2.08
   4  0.008  0.496  0.997- 117 1.84  89 1.84 138 1.93 132 1.98 214 2.03 194 2.05
   5  0.994  0.503  0.507-  66 1.83 104 1.84 215 1.93 223 2.00 173 2.01 137 2.04
   6  0.494  0.993  0.001- 101 1.83 121 1.85 140 1.96 133 1.97 174 2.02 216 2.05
   7  0.501  0.008  0.498- 112 1.78 191 1.91 134 1.93 139 1.93 175 1.93 225 2.04
   8  0.504  0.493  0.995-  70 1.86  90 1.90 120 1.92 192 2.00 217 2.04 135 2.06
   9  0.492  0.498  0.496- 102 1.80  69 1.87 224 1.98 218 2.00 136 2.02 176 2.06
  10  0.006  0.003  0.256-  91 1.84  67 1.86 219 1.95 227 1.97 130 2.00 197 2.05
  11  0.001  0.008  0.757-  68 1.79 113 1.84 177 1.95 198 1.99 228 2.05 131 2.06
  12  0.995  0.494  0.250- 107 1.84 122 1.86 137 1.93 132 1.96 220 2.00 178 2.01
  13  0.993  0.500  0.742- 108 1.82  66 1.83 226 1.93 221 1.96 138 2.02 179 2.05
  14  0.505  0.009  0.251- 114 1.81  92 1.84 133 1.94 139 1.99 195 2.00 231 2.08
  15  0.493  0.006  0.753- 105 1.81 115 1.84 140 1.94 134 2.01 232 2.03 180 2.03
  16  0.492  0.495  0.258-  69 1.82 106 1.83 229 1.98 222 2.00 135 2.04 181 2.05
  17  0.501  0.503  0.759-  70 1.82 116 1.87 182 1.95 196 1.97 230 2.03 136 2.07
  18  0.993  0.258  0.003- 110 1.84 117 1.84 141 1.97 146 1.98 212 2.01 183 2.07
  19  0.998  0.249  0.491-  74 1.78 213 1.91 202 1.94 184 1.94 223 1.94 142 2.03
  20  0.999  0.758  0.006- 118 1.81  71 1.85 203 1.95 185 1.98 148 2.04 214 2.06
  21  0.997  0.757  0.506- 119 1.83  72 1.83 204 1.95 186 1.97 147 2.02 215 2.03
  22  0.494  0.257  0.003- 109 1.83 120 1.85 150 1.97 143 1.99 216 2.04 187 2.06
  23  0.509  0.245  0.497-  93 1.80 112 1.91 144 1.94 149 1.95 224 1.98 199 2.01
  24  0.508  0.756  0.001-  94 1.82 121 1.84 152 1.94 145 1.99 200 2.02 217 2.05
  25  0.507  0.752  0.509-  73 1.80  95 1.83 225 1.97 218 1.98 201 2.01 151 2.08
  26  0.000  0.258  0.255- 122 1.80  74 1.89 209 1.95 188 1.97 141 1.99 219 2.02
  27  0.006  0.243  0.748- 113 1.80  96 1.83 142 1.97 146 1.98 226 2.05 210 2.05
  28  0.006  0.748  0.243-  71 1.82  97 1.84 220 1.95 227 1.98 147 2.05 211 2.06
  29  0.993  0.751  0.743- 111 1.83  72 1.84 228 1.93 221 1.98 148 2.02 189 2.02
  30  0.508  0.240  0.254-  98 1.77 114 1.85 143 1.97 149 1.99 229 2.06 205 2.06
  31  0.507  0.244  0.752-  99 1.84 115 1.85 150 1.95 144 2.00 206 2.02 230 2.03
  32  0.506  0.751  0.252- 100 1.79 151 1.93 231 1.93 145 1.95 222 1.96 207 2.00
  33  0.502  0.741  0.744- 116 1.82  73 1.84 190 1.93 208 1.96 152 2.04 232 2.06
  34  0.256  0.998  0.006-  75 1.84 101 1.86 246 1.94 233 1.97 171 2.01 157 2.04
  35  0.250  0.994  0.506- 128 1.83  76 1.84 172 1.95 191 1.99 156 2.02 234 2.03
  36  0.245  0.508  0.997- 123 1.82  89 1.83 159 1.94 153 1.98 245 2.03 192 2.05
  37  0.255  0.494  0.507-  77 1.86 127 1.88 102 1.88 173 2.04 235 2.05 158 2.05
  38  0.756  0.003  0.995- 103 1.79  81 1.88 236 1.97 249 1.98 154 2.05 174 2.06
  39  0.749  0.009  0.495-  80 1.83 124 1.84 193 1.94 175 1.99 155 2.01 250 2.06
  40  0.745  0.501  0.004-  90 1.82  78 1.90 237 1.95 247 1.97 194 2.01 161 2.02
  41  0.756  0.498  0.505-  79 1.85 104 1.85 248 1.96 238 1.99 176 2.01 160 2.05
  42  0.244  0.002  0.244-  75 1.84  91 1.85 239 1.94 252 1.97 156 2.04 195 2.05
  43  0.258  0.998  0.744- 105 1.84  76 1.84 253 1.93 240 1.97 177 2.02 157 2.02
  44  0.255  0.491  0.252- 129 1.83 106 1.84 158 1.93 153 1.97 178 2.04 241 2.04
  45  0.247  0.506  0.741-  77 1.79 125 1.83 179 1.95 196 1.98 251 2.02 159 2.06
  46  0.744  0.002  0.255-  92 1.85  80 1.88 242 1.92 256 1.97 154 2.01 197 2.01
  47  0.748  0.009  0.756-  81 1.82 126 1.83 180 1.95 198 1.97 257 2.06 155 2.07
  48  0.757  0.498  0.242- 107 1.84  78 1.86 254 1.92 243 1.97 181 2.04 160 2.05
  49  0.758  0.498  0.741- 108 1.83  79 1.84 255 1.94 244 1.98 182 2.03 161 2.07
  50  0.255  0.252  0.007-  82 1.85 109 1.87 245 1.93 233 1.97 183 2.02 168 2.03
  51  0.253  0.256  0.506- 127 1.81  83 1.85 199 1.97 184 2.02 234 2.04 167 2.04
  52  0.253  0.742  0.994- 123 1.82  86 1.83 200 1.94 185 1.97 162 2.03 246 2.04
  53  0.252  0.755  0.493-  85 1.83 128 1.86 201 1.95 186 1.98 235 2.00 163 2.04
  54  0.754  0.254  0.011-  84 1.79 110 1.86 236 1.97 247 1.99 187 2.05 170 2.12
  55  0.742  0.243  0.498- 124 1.82  93 1.85 169 1.92 164 1.97 248 2.04 202 2.05
  56  0.742  0.749  0.994-  94 1.82  88 1.84 249 1.95 237 1.97 203 2.01 165 2.04
  57  0.741  0.752  0.494-  95 1.82  87 1.86 250 1.95 238 1.97 166 2.02 204 2.03
  58  0.251  0.257  0.244- 129 1.82  82 1.84 205 1.95 188 2.01 167 2.03 239 2.04
  59  0.243  0.252  0.745-  83 1.84  96 1.84 251 1.94 240 1.97 168 2.04 206 2.06
  60  0.244  0.747  0.256-  97 1.83  85 1.84 241 1.94 252 1.97 162 2.03 207 2.06
  61  0.248  0.742  0.757- 125 1.81  86 1.84 189 1.93 208 1.98 163 2.04 253 2.04
  62  0.744  0.252  0.245-  98 1.92 254 2.01  84 2.02 242 2.03 209 2.05 169 2.10
  63  0.745  0.243  0.752- 126 1.82  99 1.85 170 1.93 210 2.02 164 2.03 255 2.06
  64  0.745  0.749  0.257-  87 1.82 100 1.90 256 1.94 243 1.96 211 1.98 165 2.04
  65  0.757  0.750  0.757- 111 1.82  88 1.84 257 1.94 244 1.98 190 2.03 166 2.06
  66  0.010  0.504  0.624-   5 1.83  13 1.83
  67  0.995  0.006  0.376-   3 1.82  10 1.86
  68  0.001  0.002  0.873-  11 1.79   2 1.88
  69  0.498  0.484  0.376-  16 1.82   9 1.87
  70  0.494  0.486  0.875-  17 1.82   8 1.86
  71  0.999  0.745  0.126-  28 1.82  20 1.85
  72  0.002  0.745  0.624-  21 1.83  29 1.84
  73  0.503  0.742  0.625-  25 1.80  33 1.84
  74  0.986  0.248  0.376-  19 1.78  26 1.89
  75  0.256  0.002  0.125-  42 1.84  34 1.84
  76  0.257  0.004  0.625-  43 1.84  35 1.84
  77  0.238  0.494  0.626-  45 1.79  37 1.86
  78  0.743  0.476  0.124-  48 1.86  40 1.90   1 2.22
  79  0.746  0.486  0.624-  49 1.84  41 1.85
  80  0.749  0.011  0.376-  39 1.83  46 1.88
  81  0.744  0.012  0.874-  47 1.82  38 1.88
  82  0.239  0.250  0.126-  58 1.84  50 1.85
  83  0.244  0.250  0.625-  59 1.84  51 1.85
  84  0.722  0.283  0.119-  54 1.79  62 2.02   1 2.16
  85  0.255  0.745  0.375-  53 1.83  60 1.84
  86  0.252  0.751  0.876-  52 1.83  61 1.84
  87  0.751  0.739  0.374-  64 1.82  57 1.86
  88  0.748  0.739  0.876-  56 1.84  65 1.84
  89  0.126  0.509  0.991-  36 1.83   4 1.84
  90  0.627  0.505  1.000-  40 1.82   8 1.90
  91  0.125  0.005  0.251-  10 1.84  42 1.85
  92  0.624  0.004  0.249-  14 1.84  46 1.85
  93  0.624  0.260  0.485-  23 1.80  55 1.85
  94  0.625  0.738  0.004-  56 1.82  24 1.82
  95  0.624  0.765  0.496-  57 1.82  25 1.83
  96  0.124  0.252  0.758-  27 1.83  59 1.84
  97  0.125  0.748  0.252-  60 1.83  28 1.84
  98  0.622  0.242  0.269-  30 1.77  62 1.92
  99  0.626  0.254  0.758-  31 1.84  63 1.85
 100  0.622  0.751  0.251-  32 1.79  64 1.90
 101  0.376  0.994  0.991-   6 1.83  34 1.86
 102  0.376  0.507  0.506-   9 1.80  37 1.88
 103  0.873  1.000  0.999-  38 1.79   2 1.89
 104  0.875  0.505  0.501-   5 1.84  41 1.85
 105  0.376  0.997  0.759-  15 1.81  43 1.84
 106  0.374  0.492  0.247-  16 1.83  44 1.84
 107  0.876  0.496  0.246-  12 1.84  48 1.84
 108  0.875  0.510  0.744-  13 1.82  49 1.83
 109  0.376  0.256  0.011-  22 1.83  50 1.87
 110  0.874  0.254  0.017-  18 1.84  54 1.86
 111  0.875  0.743  0.749-  65 1.82  29 1.83
 112  0.512  0.122  0.486-   7 1.78  23 1.91
 113  0.996  0.127  0.744-  27 1.80  11 1.84
 114  0.489  0.123  0.271-  14 1.81  30 1.85
 115  0.502  0.124  0.759-  15 1.84  31 1.85
 116  0.503  0.624  0.760-  33 1.82  17 1.87
 117  0.005  0.376  0.005-   4 1.84  18 1.84
 118  0.005  0.875  0.002-  20 1.81   2 1.87
 119  0.993  0.875  0.499-   3 1.81  21 1.83
 120  0.517  0.373  0.024-  22 1.85   8 1.92   1 2.17
 121  0.508  0.874  0.013-  24 1.84   6 1.85
 122  0.011  0.374  0.247-  26 1.80  12 1.86
 123  0.263  0.624  0.003-  52 1.82  36 1.82
 124  0.738  0.126  0.514-  55 1.82  39 1.84
 125  0.246  0.624  0.749-  61 1.81  45 1.83
 126  0.750  0.126  0.735-  63 1.82  47 1.83
 127  0.254  0.373  0.493-  51 1.81  37 1.88
 128  0.255  0.875  0.500-  35 1.83  53 1.86
 129  0.238  0.374  0.258-  58 1.82  44 1.83
 130  0.999  0.003  0.127-  10 2.00   2 2.04
 131  0.003  0.998  0.624-   3 2.01  11 2.06
 132  0.005  0.511  0.125-  12 1.96   4 1.98
 133  0.491  0.017  0.127-  14 1.94   6 1.97
 134  0.495  0.008  0.623-   7 1.93  15 2.01
 135  0.506  0.513  0.128-  16 2.04   8 2.06
 136  0.510  0.508  0.625-   9 2.02  17 2.07
 137  0.000  0.495  0.375-  12 1.93   5 2.04
 138  0.992  0.497  0.873-   4 1.93  13 2.02
 139  0.504  0.979  0.377-   7 1.93  14 1.99
 140  0.517  0.989  0.876-  15 1.94   6 1.96
 141  0.019  0.246  0.128-  18 1.97  26 1.99
 142  0.009  0.258  0.621-  27 1.97  19 2.03
 143  0.515  0.228  0.127-  30 1.97  22 1.99
 144  0.510  0.237  0.623-  23 1.94  31 2.00
 145  0.495  0.735  0.127-  32 1.95  24 1.99
 146  0.986  0.251  0.875-  27 1.98  18 1.98
 147  0.993  0.751  0.375-  21 2.02  28 2.05
 148  0.002  0.752  0.874-  29 2.02  20 2.04
 149  0.482  0.269  0.376-  23 1.95  30 1.99
 150  0.489  0.266  0.875-  31 1.95  22 1.97
 151  0.492  0.763  0.376-  32 1.93  25 2.08
 152  0.499  0.760  0.875-  24 1.94  33 2.04
 153  0.243  0.492  0.125-  44 1.97  36 1.98
 154  0.749  0.985  0.126-  46 2.01  38 2.05
 155  0.748  0.987  0.623-  39 2.01  47 2.07
 156  0.251  0.002  0.376-  35 2.02  42 2.04
 157  0.241  0.994  0.874-  43 2.02  34 2.04
 158  0.250  0.513  0.375-  44 1.93  37 2.05
 159  0.264  0.499  0.874-  36 1.94  45 2.06
 160  0.748  0.518  0.373-  41 2.05  48 2.05
 161  0.755  0.517  0.874-  40 2.02  49 2.07
 162  0.252  0.755  0.125-  60 2.03  52 2.03
 163  0.249  0.751  0.625-  61 2.04  53 2.04
 164  0.741  0.269  0.623-  55 1.97  63 2.03
 165  0.752  0.762  0.126-  64 2.04  56 2.04
 166  0.747  0.759  0.625-  57 2.02  65 2.06
 167  0.262  0.243  0.374-  58 2.03  51 2.04
 168  0.260  0.251  0.875-  50 2.03  59 2.04
 169  0.770  0.232  0.377-  55 1.92  62 2.10
 170  0.762  0.235  0.876-  63 1.93  54 2.12
 171  0.126  0.006  0.003-  34 2.01   2 2.03
 172  0.125  0.001  0.499-  35 1.95   3 1.95
 173  0.124  0.497  0.490-   5 2.01  37 2.04
 174  0.624  0.008  0.010-   6 2.02  38 2.06
 175  0.623  0.981  0.503-   7 1.93  39 1.99
 176  0.626  0.490  0.496-  41 2.01   9 2.06
 177  0.127  0.000  0.746-  11 1.95  43 2.02
 178  0.124  0.511  0.251-  12 2.01  44 2.04
 179  0.124  0.492  0.765-  45 1.95  13 2.05
 180  0.623  0.995  0.739-  47 1.95  15 2.03
 181  0.625  0.499  0.249-  48 2.04  16 2.05
 182  0.627  0.492  0.757-  17 1.95  49 2.03
 183  0.125  0.247  0.988-  50 2.02  18 2.07
 184  0.123  0.249  0.488-  19 1.94  51 2.02
 185  0.126  0.739  0.001-  52 1.97  20 1.98
 186  0.124  0.753  0.495-  21 1.97  53 1.98
 187  0.625  0.244  0.981-  54 2.05  22 2.06
 188  0.125  0.235  0.266-  26 1.97  58 2.01
 189  0.124  0.756  0.751-  61 1.93  29 2.02
 190  0.626  0.755  0.751-  33 1.93  65 2.03
 191  0.377  0.010  0.493-   7 1.91  35 1.99
 192  0.375  0.487  0.010-   8 2.00  36 2.05
 193  0.874  0.011  0.509-  39 1.94   3 1.96
 194  0.875  0.496  0.003-  40 2.01   4 2.05
 195  0.376  0.991  0.257-  14 2.00  42 2.05
 196  0.375  0.500  0.739-  17 1.97  45 1.98
 197  0.874  0.997  0.248-  46 2.01  10 2.05
 198  0.874  0.995  0.744-  47 1.97  11 1.99
 199  0.379  0.239  0.508-  51 1.97  23 2.01
 200  0.377  0.761  0.002-  52 1.94  24 2.02
 201  0.377  0.740  0.503-  53 1.95  25 2.01
 202  0.874  0.248  0.514-  19 1.94  55 2.05
 203  0.872  0.758  0.998-  20 1.95  56 2.01
 204  0.872  0.739  0.504-  21 1.95  57 2.03
 205  0.377  0.261  0.237-  58 1.95  30 2.06
 206  0.376  0.249  0.743-  31 2.02  59 2.06
 207  0.377  0.750  0.247-  32 2.00  60 2.06
 208  0.375  0.753  0.749-  33 1.96  61 1.98
 209  0.876  0.260  0.232-  26 1.95  62 2.05
 210  0.874  0.255  0.738-  63 2.02  27 2.05
 211  0.873  0.748  0.249-  64 1.98  28 2.06
 212  0.000  0.127  0.001-  18 2.01   2 2.04
 213  0.001  0.126  0.509-  19 1.91   3 2.08
 214  0.990  0.626  0.993-   4 2.03  20 2.06
 215  0.006  0.627  0.491-   5 1.93  21 2.03
 216  0.498  0.125  0.988-  22 2.04   6 2.05
 217  0.488  0.625  0.992-   8 2.04  24 2.05
 218  0.511  0.626  0.487-  25 1.98   9 2.00
 219  0.989  0.128  0.246-  10 1.95  26 2.02
 220  0.996  0.623  0.259-  28 1.95  12 2.00
 221  0.013  0.625  0.757-  13 1.96  29 1.98
 222  0.498  0.625  0.265-  32 1.96  16 2.00
 223  0.999  0.374  0.499-  19 1.94   5 2.00
 224  0.491  0.371  0.516-  23 1.98   9 1.98
 225  0.485  0.878  0.510-  25 1.97   7 2.04
 226  0.994  0.375  0.750-  13 1.93  27 2.05
 227  0.997  0.876  0.251-  10 1.97  28 1.98
 228  0.999  0.876  0.747-  29 1.93  11 2.05
 229  0.510  0.372  0.229-  16 1.98  30 2.06
 230  0.496  0.374  0.735-  31 2.03  17 2.03
 231  0.499  0.875  0.236-  32 1.93  14 2.08
 232  0.501  0.875  0.744-  15 2.03  33 2.06
 233  0.252  0.125  0.994-  50 1.97  34 1.97
 234  0.246  0.124  0.497-  35 2.03  51 2.04
 235  0.243  0.626  0.507-  53 2.00  37 2.05
 236  0.748  0.127  0.021-  54 1.97  38 1.97
 237  0.763  0.626  0.018-  40 1.95  56 1.97
 238  0.739  0.625  0.512-  57 1.97  41 1.99
 239  0.263  0.126  0.252-  42 1.94  58 2.04
 240  0.251  0.125  0.758-  43 1.97  59 1.97
 241  0.254  0.623  0.239-  60 1.94  44 2.04
 242  0.759  0.123  0.228-  46 1.92  62 2.03
 243  0.748  0.625  0.232-  64 1.96  48 1.97
 244  0.738  0.625  0.736-  65 1.98  49 1.98
 245  0.243  0.376  0.996-  50 1.93  36 2.03
 246  0.241  0.873  0.003-  34 1.94  52 2.04
 247  0.745  0.377  0.974-  40 1.97  54 1.99
 248  0.758  0.373  0.481-  41 1.96  55 2.04
 249  0.740  0.876  0.991-  56 1.95  38 1.98
 250  0.765  0.876  0.491-  57 1.95  39 2.06
 251  0.255  0.376  0.757-  59 1.94  45 2.02
 252  0.251  0.875  0.252-  42 1.97  60 1.97
 253  0.248  0.873  0.746-  43 1.93  61 2.04
 254  0.747  0.379  0.276-  48 1.92  62 2.01
 255  0.757  0.375  0.766-  49 1.94  63 2.06
 256  0.751  0.875  0.260-  64 1.94  46 1.97
 257  0.751  0.875  0.758-  65 1.94  47 2.06
 

IMPORTANT INFORMATION: All symmetrisations will be switched off!
NOSYMM: (Re-)initialisation of all symmetry stuff for point group C_1.

 
 
 KPOINTS: Title                                   

Automatic generation of k-mesh.
Space group operators:
 irot       det(A)        alpha          n_x          n_y          n_z        tau_x        tau_y        tau_z
    1     1.000000     0.000001     1.000000     0.000000     0.000000     0.000000     0.000000     0.000000
 
 Subroutine IBZKPT returns following result:
 ===========================================
 
 Found      4 irreducible k-points:
 
 Following reciprocal coordinates:
            Coordinates               Weight
  0.250000  0.250000  0.250000      2.000000
 -0.250000  0.250000  0.250000      2.000000
  0.250000 -0.250000  0.250000      2.000000
 -0.250000 -0.250000  0.250000      2.000000
 
 Following cartesian coordinates:
            Coordinates               Weight
  0.016206  0.016206  0.016206      2.000000
 -0.016206  0.016206  0.016206      2.000000
  0.016206 -0.016206  0.016206      2.000000
 -0.016206 -0.016206  0.016206      2.000000
 


--------------------------------------------------------------------------------------------------------




 Dimension of arrays:
   k-points           NKPTS =      4   k-points in BZ     NKDIM =      4   number of bands    NBANDS=   1164
   number of dos      NEDOS =   3001   number of ions     NIONS =    257
   non local maximal  LDIM  =      6   non local SUM 2l+1 LMDIM =     18
   total plane-waves  NPLWV = ******
   max r-space proj   IRMAX =   7595   max aug-charges    IRDMAX= 146383
   dimension x,y,z NGX =   120 NGY =  120 NGZ =  120
   dimension x,y,z NGXF=   240 NGYF=  240 NGZF=  240
   support grid    NGXF=   480 NGYF=  480 NGZF=  480
   ions per type =               1  64  64 128
   NGX,Y,Z   is equivalent  to a cutoff of  12.93, 12.93, 12.93 a.u.
   NGXF,Y,Z  is equivalent  to a cutoff of  25.86, 25.86, 25.86 a.u.

 SYSTEM =  LTO                                     
 POSCAR =  config 37                               

 Startparameter for this run:
   NWRITE =      2    write-flag & timer
   PREC   = accura    normal or accurate (medium, high low for compatibility)
   ISTART =      1    job   : 0-new  1-cont  2-samecut
   ICHARG =      0    charge: 1-file 2-atom 10-const
   ISPIN  =      2    spin polarized calculation?
   LNONCOLLINEAR =      F non collinear calculations
   LSORBIT =      F    spin-orbit coupling
   INIWAV =      1    electr: 0-lowe 1-rand  2-diag
   LASPH  =      T    aspherical Exc in radial PAW
   METAGGA=      F    non-selfconsistent MetaGGA calc.

 Electronic Relaxation 1
   ENCUT  =  500.0 eV  36.75 Ry    6.06 a.u.  28.13 28.13 28.13*2*pi/ulx,y,z
   ENINI  =  500.0     initial cutoff
   ENAUG  =  628.9 eV  augmentation charge cutoff
   NELM   =     60;   NELMIN=  2; NELMDL=  0     # of ELM steps 
   EDIFF  = 0.1E-05   stopping-criterion for ELM
   LREAL  =      T    real-space projection
   NLSPLINE    = F    spline interpolate recip. space projectors
   LCOMPAT=      F    compatible to vasp.4.4
   GGA_COMPAT  = T    GGA compatible to vasp.4.4-vasp.4.6
   LMAXPAW     = -100 max onsite density
   LMAXMIX     =    4 max onsite mixed and CHGCAR
   VOSKOWN=      0    Vosko Wilk Nusair interpolation
   ROPT   =   -0.00010  -0.00010  -0.00010  -0.00010
 Ionic relaxation
   EDIFFG = -.5E-01   stopping-criterion for IOM
   NSW    =    100    number of steps for IOM
   NBLOCK =      1;   KBLOCK =    100    inner block; outer block 
   IBRION =      1    ionic relax: 0-MD 1-quasi-New 2-CG
   NFREE  =      0    steps in history (QN), initial steepest desc. (CG)
   ISIF   =      2    stress and relaxation
   IWAVPR =     11    prediction:  0-non 1-charg 2-wave 3-comb
   ISYM   =      0    0-nonsym 1-usesym 2-fastsym
   LCORR  =      T    Harris-Foulkes like correction to forces

   POTIM  = 0.5000    time-step for ionic-motion
   TEIN   =    0.0    initial temperature
   TEBEG  =    0.0;   TEEND  =   0.0 temperature during run
   SMASS  =  -3.00    Nose mass-parameter (am)
   estimated Nose-frequenzy (Omega)   =  0.10E-29 period in steps =****** mass=  -0.544E-26a.u.
   SCALEE = 1.0000    scale energy and forces
   NPACO  =    256;   APACO  = 16.0  distance and # of slots for P.C.
   PSTRESS=    0.0 pullay stress

  Mass of Ions in am
   POMASS =   7.01 47.88 16.00 19.00
  Ionic Valenz
   ZVAL   =   3.00 10.00  6.00  7.00
  Atomic Wigner-Seitz radii
   RWIGS  =  -1.00 -1.00 -1.00 -1.00
  virtual crystal weights 
   VCA    =   1.00  1.00  1.00  1.00
   NELECT =    1923.0000    total number of electrons
   NUPDOWN=       1.0000    fix difference up-down

 DOS related values:
   EMIN   =  10.00;   EMAX   =-10.00  energy-range for DOS
   EFERMI =   0.00
   ISMEAR =     0;   SIGMA  =   0.01  broadening in eV -4-tet -1-fermi 0-gaus

 Electronic relaxation 2 (details)
   IALGO  =     38    algorithm
   LDIAG  =      T    sub-space diagonalisation (order eigenvalues)
   LSUBROT=      F    optimize rotation matrix (better conditioning)
   TURBO    =      0    0=normal 1=particle mesh
   IRESTART =      0    0=no restart 2=restart with 2 vectors
   NREBOOT  =      0    no. of reboots
   NMIN     =      0    reboot dimension
   EREF     =   0.00    reference energy to select bands
   IMIX   =      4    mixing-type and parameters
     AMIX     =   0.40;   BMIX     =  1.00
     AMIX_MAG =   1.60;   BMIX_MAG =  1.00
     AMIN     =   0.10
     WC   =   100.;   INIMIX=   1;  MIXPRE=   1;  MAXMIX= -45

 Intra band minimization:
   WEIMIN = 0.0010     energy-eigenvalue tresh-hold
   EBREAK =  0.21E-09  absolut break condition
   DEPER  =   0.30     relativ break condition  

   TIME   =   0.40     timestep for ELM

  volume/ion in A,a.u.               =      14.28        96.39
  Fermi-wavevector in a.u.,A,eV,Ry     =   1.319690  2.493853 23.695660  1.741582
  Thomas-Fermi vector in A             =   2.449570
 
 Write flags
   LWAVE        =      T    write WAVECAR
   LDOWNSAMPLE  =      F    k-point downsampling of WAVECAR
   LCHARG       =      T    write CHGCAR
   LVTOT        =      F    write LOCPOT, total local potential
   LVHAR        =      F    write LOCPOT, Hartree potential only
   LELF         =      F    write electronic localiz. function (ELF)
   LORBIT       =     11    0 simple, 1 ext, 2 COOP (PROOUT), +10 PAW based schemes


 Dipole corrections
   LMONO  =      F    monopole corrections only (constant potential shift)
   LDIPOL =      F    correct potential (dipole corrections)
   IDIPOL =      0    1-x, 2-y, 3-z, 4-all directions 
   EPSILON=  1.0000000 bulk dielectric constant

 LDA+U is selected, type is set to LDAUTYPE =  2
   angular momentum for each species LDAUL =    -1    2   -1   -1
   U (eV)           for each species LDAUU =   0.0  4.2  0.0  0.0
   J (eV)           for each species LDAUJ =   0.0  0.0  0.0  0.0
 Exchange correlation treatment:
   GGA     =    PS    GGA type
   LEXCH   =    14    internal setting for exchange type
   VOSKOWN=      0    Vosko Wilk Nusair interpolation
   LHFCALC =     F    Hartree Fock is set to
   LHFONE  =     F    Hartree Fock one center treatment
   AEXX    =    0.0000 exact exchange contribution

 Linear response parameters
   LEPSILON=     F    determine dielectric tensor
   LRPA    =     F    only Hartree local field effects (RPA)
   LNABLA  =     F    use nabla operator in PAW spheres
   LVEL    =     F    velocity operator in full k-point grid
   LINTERFAST=   F  fast interpolation
   KINTER  =     0    interpolate to denser k-point grid
   CSHIFT  =0.1000    complex shift for real part using Kramers Kronig
   OMEGAMAX=  -1.0    maximum frequency
   DEG_THRESHOLD= 0.2000000E-02 threshold for treating states as degnerate
   RTIME   =   -0.100 relaxation time in fs
  (WPLASMAI=    0.000 imaginary part of plasma frequency in eV, 0.658/RTIME)
   DFIELD  = 0.0000000 0.0000000 0.0000000 field for delta impulse in time
 
 Orbital magnetization related:
   ORBITALMAG=     F  switch on orbital magnetization
   LCHIMAG   =     F  perturbation theory with respect to B field
   DQ        =  0.001000  dq finite difference perturbation B field
   LLRAUG    =     F  two centre corrections for induced B field



--------------------------------------------------------------------------------------------------------


 quasi-Newton-method for relaxation of ions
 charge density and potential will be updated during run
 spin polarized calculation
 Variant of blocked Davidson
 Davidson routine will perform the subspace rotation
 perform sub-space diagonalisation
    after iterative eigenvector-optimisation
 modified Broyden-mixing scheme, WC =      100.0
 initial mixing is a Kerker type mixing with AMIX =  0.4000 and BMIX =      1.0000
 Hartree-type preconditioning will be used
 using additional bands          202
 real space projection scheme for non local part
 use partial core corrections
 calculate Harris-corrections to forces 
   (improved forces if not selfconsistent)
 use gradient corrections 
 use of overlap-Matrix (Vanderbilt PP)
 Gauss-broadening in eV      SIGMA  =   0.01


--------------------------------------------------------------------------------------------------------


  energy-cutoff  :      500.00
  volume of cell :     3671.03
      direct lattice vectors                 reciprocal lattice vectors
    15.426331000  0.000000000  0.000000000     0.064824228  0.000000000  0.000000000
     0.000000000 15.426331000  0.000000000     0.000000000  0.064824228  0.000000000
     0.000000000  0.000000000 15.426331000     0.000000000  0.000000000  0.064824228

  length of vectors
    15.426331000 15.426331000 15.426331000     0.064824228  0.064824228  0.064824228


 
 old parameters found on file WAVECAR:
  energy-cutoff  :      500.00
  volume of cell :     3671.03
      direct lattice vectors                 reciprocal lattice vectors
    15.426331000  0.000000000  0.000000000     0.064824228  0.000000000  0.000000000
     0.000000000 15.426331000  0.000000000     0.000000000  0.064824228  0.000000000
     0.000000000  0.000000000 15.426331000     0.000000000  0.000000000  0.064824228

  length of vectors

 
 k-points in units of 2pi/SCALE and weight: Title                                   
   0.01620606  0.01620606  0.01620606       0.250
  -0.01620606  0.01620606  0.01620606       0.250
   0.01620606 -0.01620606  0.01620606       0.250
  -0.01620606 -0.01620606  0.01620606       0.250
 
 k-points in reciprocal lattice and weights: Title                                   
   0.25000000  0.25000000  0.25000000       0.250
  -0.25000000  0.25000000  0.25000000       0.250
   0.25000000 -0.25000000  0.25000000       0.250
  -0.25000000 -0.25000000  0.25000000       0.250
 
 position of ions in fractional coordinates (direct lattice) 
   0.63090546  0.38813269  0.10528385
   0.99506680  0.99535459  0.99463571
   0.99858760  0.99225905  0.49366959
   0.00777196  0.49555122  0.99701769
   0.99443981  0.50348328  0.50702311
   0.49426815  0.99281865  0.00099622
   0.50119953  0.00826556  0.49841923
   0.50444241  0.49321862  0.99547215
   0.49219758  0.49812693  0.49563675
   0.00592490  0.00321661  0.25607098
   0.00133069  0.00812619  0.75681853
   0.99497168  0.49363760  0.25045355
   0.99300092  0.49998356  0.74156482
   0.50466446  0.00868424  0.25140813
   0.49301614  0.00560113  0.75338923
   0.49229244  0.49535548  0.25823524
   0.50133556  0.50311153  0.75865248
   0.99255205  0.25772720  0.00299254
   0.99753828  0.24868310  0.49082247
   0.99865241  0.75786168  0.00623998
   0.99705463  0.75692456  0.50597375
   0.49379017  0.25673010  0.00270484
   0.50916241  0.24531572  0.49734302
   0.50796700  0.75561974  0.00069950
   0.50712150  0.75206904  0.50925461
   0.00011670  0.25843025  0.25466981
   0.00608881  0.24317441  0.74829192
   0.00641694  0.74819780  0.24330675
   0.99286115  0.75084750  0.74320881
   0.50848831  0.24011616  0.25357239
   0.50716405  0.24366591  0.75216663
   0.50629678  0.75104450  0.25204182
   0.50208863  0.74099117  0.74449278
   0.25632086  0.99767828  0.00589644
   0.25045396  0.99350115  0.50641243
   0.24499993  0.50785904  0.99737497
   0.25452497  0.49390377  0.50671167
   0.75637933  0.00271632  0.99464363
   0.74940511  0.00861761  0.49464269
   0.74475997  0.50129723  0.00365657
   0.75567494  0.49774773  0.50477262
   0.24436653  0.00197855  0.24367058
   0.25797868  0.99788239  0.74445318
   0.25496305  0.49127952  0.25171599
   0.24696275  0.50571199  0.74111236
   0.74359256  0.00236994  0.25493493
   0.74773058  0.00884937  0.75580187
   0.75694764  0.49781351  0.24206605
   0.75758450  0.49815972  0.74133202
   0.25485742  0.25183945  0.00680120
   0.25294691  0.25632563  0.50580223
   0.25283627  0.74178402  0.99410400
   0.25205021  0.75483226  0.49305631
   0.75377106  0.25400518  0.01132145
   0.74229889  0.24281947  0.49820028
   0.74199806  0.74930591  0.99427604
   0.74145787  0.75201623  0.49373139
   0.25113380  0.25735693  0.24398144
   0.24313607  0.25157453  0.74453201
   0.24364927  0.74708227  0.25601753
   0.24792582  0.74153626  0.75685256
   0.74382125  0.25219215  0.24491594
   0.74454126  0.24274323  0.75207465
   0.74520440  0.74897504  0.25688907
   0.75734386  0.74993836  0.75725736
   0.01018999  0.50356224  0.62432064
   0.99542275  0.00629586  0.37626198
   0.00091555  0.00225203  0.87297404
   0.49823941  0.48413194  0.37559565
   0.49397795  0.48572005  0.87538833
   0.99867418  0.74499922  0.12576246
   0.00200756  0.74514702  0.62417873
   0.50312687  0.74171740  0.62517061
   0.98582798  0.24812415  0.37589428
   0.25566696  0.00246993  0.12520086
   0.25656717  0.00366283  0.62522130
   0.23776357  0.49372285  0.62580400
   0.74299826  0.47601164  0.12413175
   0.74574034  0.48583310  0.62359561
   0.74935130  0.01112200  0.37616926
   0.74447986  0.01193215  0.87396250
   0.23878294  0.24985590  0.12570668
   0.24388866  0.25033033  0.62516171
   0.72221205  0.28254862  0.11932937
   0.25499355  0.74468231  0.37491735
   0.25191292  0.75134080  0.87557923
   0.75118267  0.73888637  0.37428829
   0.74834101  0.73939802  0.87588082
   0.12622502  0.50919024  0.99132532
   0.62707917  0.50522290  0.99959686
   0.12481364  0.00493763  0.25124793
   0.62369829  0.00382271  0.24935014
   0.62422436  0.25962294  0.48453786
   0.62478150  0.73771425  0.00437227
   0.62422848  0.76531985  0.49563024
   0.12431471  0.25218145  0.75760240
   0.12513409  0.74845642  0.25236875
   0.62200600  0.24209952  0.26875631
   0.62551828  0.25433630  0.75781990
   0.62238831  0.75089751  0.25087158
   0.37607180  0.99448963  0.99122064
   0.37595089  0.50654617  0.50559426
   0.87251390  0.99959798  0.99909534
   0.87537374  0.50513456  0.50097613
   0.37623303  0.99715452  0.75932960
   0.37400264  0.49185198  0.24696426
   0.87605516  0.49649221  0.24631887
   0.87544169  0.51017431  0.74377299
   0.37576696  0.25550675  0.01114133
   0.87413139  0.25401781  0.01728111
   0.87481706  0.74295902  0.74911698
   0.51236242  0.12212764  0.48567374
   0.99638308  0.12663852  0.74430599
   0.48931725  0.12325213  0.27098509
   0.50191980  0.12431284  0.75943575
   0.50270689  0.62405557  0.75964591
   0.00488861  0.37648447  0.00467018
   0.00530172  0.87488625  0.00198055
   0.99251238  0.87514697  0.49890819
   0.51716550  0.37250308  0.02359686
   0.50834469  0.87433084  0.01301051
   0.01052707  0.37438007  0.24700010
   0.26301034  0.62449208  0.00340923
   0.73768698  0.12573297  0.51362568
   0.24636422  0.62425758  0.74931196
   0.74977280  0.12584592  0.73480213
   0.25446929  0.37296349  0.49293187
   0.25519715  0.87537718  0.49952901
   0.23839479  0.37411916  0.25786500
   0.99907581  0.00261263  0.12674303
   0.00328112  0.99801092  0.62374226
   0.00481876  0.51063061  0.12476322
   0.49106767  0.01650490  0.12650931
   0.49501860  0.00765679  0.62310983
   0.50564318  0.51276122  0.12788381
   0.51035105  0.50797224  0.62469516
   0.00022458  0.49482713  0.37532554
   0.99233355  0.49699695  0.87273080
   0.50402845  0.97858739  0.37700494
   0.51682857  0.98873594  0.87582038
   0.01870446  0.24582629  0.12766029
   0.00875073  0.25820580  0.62131296
   0.51542566  0.22828819  0.12668484
   0.50961149  0.23667574  0.62285354
   0.49537225  0.73463387  0.12727658
   0.98592263  0.25139792  0.87483321
   0.99299826  0.75146773  0.37519677
   0.00182558  0.75199407  0.87387717
   0.48192473  0.26935660  0.37611658
   0.48925304  0.26627875  0.87537490
   0.49227862  0.76305334  0.37566875
   0.49941597  0.75981956  0.87506146
   0.24284066  0.49226751  0.12452975
   0.74884049  0.98538878  0.12588836
   0.74771285  0.98662884  0.62315965
   0.25077522  0.00157657  0.37555760
   0.24130569  0.99392111  0.87447543
   0.25037307  0.51262741  0.37504239
   0.26385761  0.49878947  0.87369613
   0.74843823  0.51799278  0.37339516
   0.75458902  0.51741797  0.87428963
   0.25187460  0.75468922  0.12516776
   0.24893268  0.75115037  0.62522503
   0.74142298  0.26900122  0.62329461
   0.75230804  0.76186562  0.12579412
   0.74717189  0.75852070  0.62454402
   0.26244255  0.24302817  0.37427801
   0.25994157  0.25091245  0.87542128
   0.76989521  0.23231321  0.37731313
   0.76206290  0.23501142  0.87557486
   0.12608183  0.00599546  0.00333124
   0.12456918  0.00097281  0.49932712
   0.12368161  0.49749510  0.48967438
   0.62400198  0.00766195  0.00956711
   0.62348912  0.98096691  0.50347582
   0.62581415  0.49021939  0.49567098
   0.12691459  0.00046719  0.74567057
   0.12442623  0.51081129  0.25127136
   0.12367472  0.49190482  0.76504462
   0.62336086  0.99495125  0.73942225
   0.62471528  0.49875201  0.24868742
   0.62693782  0.49151391  0.75743412
   0.12521461  0.24684331  0.98753588
   0.12332662  0.24886176  0.48807957
   0.12560787  0.73896023  0.00111645
   0.12404213  0.75345863  0.49510695
   0.62486300  0.24375826  0.98132499
   0.12485857  0.23469896  0.26580247
   0.12358283  0.75554728  0.75131022
   0.62616812  0.75539375  0.75136209
   0.37741387  0.01041677  0.49270935
   0.37547280  0.48691369  0.01010042
   0.87405919  0.01144851  0.50898866
   0.87495867  0.49564848  0.00307901
   0.37610095  0.99084147  0.25748583
   0.37538817  0.49989590  0.73864698
   0.87355185  0.99668546  0.24755882
   0.87386246  0.99496307  0.74444234
   0.37925209  0.23905139  0.50834527
   0.37722155  0.76071069  0.00209649
   0.37741154  0.73975536  0.50293039
   0.87410711  0.24795737  0.51420226
   0.87221866  0.75828266  0.99837310
   0.87203766  0.73935386  0.50428712
   0.37736238  0.26114791  0.23736163
   0.37646047  0.24866241  0.74307980
   0.37669042  0.74984318  0.24735968
   0.37544442  0.75298132  0.74880608
   0.87560524  0.25989554  0.23231031
   0.87402459  0.25470502  0.73818723
   0.87310012  0.74790911  0.24888569
   0.00002725  0.12744165  0.00143033
   0.00086757  0.12629676  0.50883238
   0.98999247  0.62555132  0.99297926
   0.00557927  0.62673126  0.49067731
   0.49815629  0.12509210  0.98816268
   0.48841796  0.62460564  0.99183979
   0.51119983  0.62597355  0.48744355
   0.98933912  0.12809248  0.24599793
   0.99647594  0.62331314  0.25905830
   0.01263212  0.62488082  0.75673768
   0.49848152  0.62487461  0.26505973
   0.99896363  0.37440222  0.49874063
   0.49146775  0.37118896  0.51618786
   0.48469520  0.87765480  0.51017812
   0.99442114  0.37529118  0.74970041
   0.99728162  0.87579373  0.25102190
   0.99875245  0.87589425  0.74685963
   0.51044988  0.37159110  0.22908169
   0.49623012  0.37351127  0.73505697
   0.49856404  0.87491471  0.23600241
   0.50121788  0.87484365  0.74420030
   0.25237923  0.12488394  0.99354319
   0.24643208  0.12445798  0.49695682
   0.24305803  0.62603272  0.50660371
   0.74796109  0.12709641  0.02100468
   0.76310945  0.62566975  0.01818631
   0.73875551  0.62549132  0.51215911
   0.26262150  0.12608925  0.25212339
   0.25095833  0.12453695  0.75786168
   0.25437615  0.62295070  0.23930660
   0.75872714  0.12279630  0.22828158
   0.74790173  0.62456239  0.23154375
   0.73770918  0.62494268  0.73647816
   0.24337661  0.37606808  0.99627432
   0.24083454  0.87320479  0.00323273
   0.74507686  0.37691692  0.97379007
   0.75842588  0.37317947  0.48115256
   0.73964079  0.87561970  0.99139034
   0.76451917  0.87630205  0.49136110
   0.25542049  0.37584138  0.75695962
   0.25060118  0.87483029  0.25207305
   0.24781632  0.87332884  0.74589105
   0.74659546  0.37883979  0.27613228
   0.75705208  0.37516639  0.76639528
   0.75129907  0.87482073  0.26009737
   0.75136839  0.87532412  0.75760548
 
 position of ions in cartesian coordinates  (Angst):
   9.73255645  5.98746340  1.62414352
  15.35022981 15.35466943 15.34357976
  15.40454290 15.30691649  7.61551048
   0.11989287  7.64453710 15.38032486
  15.34055765  7.76689970  7.82150630
   7.62474405 15.31554912  0.01536802
   7.73166983  0.12750721  7.68877999
   7.78169562  7.60855371 15.35648282
   7.59280283  7.68427090  7.64585663
   0.09139941  0.04962053  3.95023570
   0.02052769  0.12535725 11.67493313
  15.34876242  7.61501702  3.86357937
  15.31836085  7.71291194 11.43962440
   7.78512095  0.13396599  3.87830503
   7.60543012  0.08640487 11.62203166
   7.59426617  7.64151764  3.98362233
   7.73376835  7.76116492 11.70322427
  15.31143647  3.97578506  0.04616393
  15.38835569  3.83626788  7.57158990
  15.40554261 11.69102518  0.09626004
  15.38089480 11.67656878  7.80531859
   7.61737061  3.96040357  0.04172582
   7.85450794  3.78432146  7.67217798
   7.83606700 11.65644020  0.01079075
   7.82302412 11.60166597  7.85593012
   0.00180029  3.98663065  3.92862080
   0.09392793  3.75128900 11.54339882
   0.09898980 11.54194694  3.75333039
  15.31620470 11.58282207 11.46498509
   7.84410892  3.70411133  3.91169159
   7.82368055  3.75887105 11.60317140
   7.81030175 11.58586113  3.88808048
   7.74538545 11.43077509 11.48479208
   3.95409043 15.39051538  0.09096039
   3.86358563 15.32607751  7.81208573
   3.77944995  7.83440167 15.38583636
   3.92638650  7.61912311  7.81670191
  11.66815791  0.04190278 15.34370179
  11.56057129  0.13293811  7.63052193
  11.48891384  7.73317701  0.05640745
  11.65729180  7.67842126  7.78678948
   3.76967898  0.03052179  3.75894308
   3.97966449 15.39366399 11.48418119
   3.93314446  7.57864048  3.88305416
   3.80972908  7.80128061 11.43264451
  11.47090502  0.03655944  3.93271055
  11.53473941  0.13651336 11.65924980
  11.67692491  7.67943597  3.73419105
  11.68674924  7.68477670 11.43603315
   3.93151484  3.88495874  0.10491750
   3.90204274  3.95416405  7.80267255
   3.90033596 11.44300589 15.33537739
   3.88820999 11.64429226  7.60604980
  11.62792195  3.91836804  0.17464840
  11.45094843  3.74581345  7.68540244
  11.44630775 11.55904092 15.33803129
  11.43797451 11.60085135  7.61646379
   3.87407314  3.97007311  3.76373844
   3.75069748  3.88087194 11.48539716
   3.75861432 11.52473843  3.94941113
   3.82458579 11.43918378 11.67545814
  11.47443282  3.89039962  3.77815430
  11.48553992  3.74463748 11.60175256
  11.49576968 11.55393685  3.96285588
  11.68303711 11.56879739 11.68170268
   0.15719417  7.76811785  9.63097684
  15.35572090  0.09712207  5.80434182
   0.01412360  0.03474050 13.46678652
   7.68600609  7.46837952  5.79406286
   7.62026738  7.49287823 13.50403010
  15.40587849 11.49260459  1.94005327
   0.03096932 11.49488464  9.62878774
   7.76140164 11.44197810  9.64408873
  15.20770872  3.82764523  5.79866954
   3.94400314  0.03810200  1.93138991
   3.95789013  0.05650405  9.64487065
   3.66781946  7.61633209  9.65385972
  11.46173702  7.34311314  1.91489741
  11.50403733  7.49462216  9.61979236
  11.55974117  0.17157172  5.80291151
  11.48459278  0.18406927 13.48203478
   3.68354474  3.85435977  1.93919281
   3.76230721  3.86167854  9.64395146
  11.14108220  4.35868852  1.84081438
   3.93361497 11.48771586  5.78359906
   3.88609213 11.59043184 13.50697502
  11.58799249 11.39830575  5.77389504
  11.54415609 11.40619863 13.51162743
   1.94718895  7.85493721 15.29251248
   9.67353077  7.79373570 15.42011197
   1.92541655  0.07616958  3.87583374
   9.62137627  0.05897031  3.84655785
   9.62949166  4.00502934  7.47464141
   9.63808624 11.38022422  0.06744813
   9.62955519 11.80607737  7.64575609
   1.91771991  3.89023446 11.68702542
   1.93035993 11.54593644  3.89312384
   9.59527047  3.73470738  4.14592384
   9.64945209  3.92347593 11.69038062
   9.60116810 11.58359349  3.87002807
   5.80140813 15.34132616 15.29089775
   5.79954279  7.81414887  7.79946443
  13.45968827 15.42012933 15.41237544
  13.50380501  7.79237292  7.72822353
   5.80389519 15.38243565 11.71366970
   5.76948846  7.58747141  3.80975248
  13.51431690  7.65905318  3.79979641
  13.50485329  7.87011773 11.47368838
   5.79670555  3.94153166  0.17186990
  13.48464022  3.91856286  0.26658416
  13.49521746 11.46113181 11.55612647
   7.90387236  1.88398140  7.49216392
  15.37053523  1.95356765 11.48191057
   7.54836988  1.90132819  4.18030570
   7.74278096  1.91769109 11.71530723
   7.75492291  9.62688783 11.71854928
   0.07541335  5.80777404  0.07204369
   0.08178609 13.49628490  0.03055254
  15.31082451 13.50030677  7.69632293
   7.97796614  5.74635587  0.36401298
   7.84189341 13.48771696  0.20070437
   0.16239406  5.77531084  3.81030530
   4.05728456  9.63362148  0.05259198
  11.37980350  1.93959838  7.92335981
   3.80049593  9.63000401 11.55913436
  11.56624338  1.94134086 11.33530094
   3.92552743  5.75345822  7.60413017
   3.93675574 13.50385816  7.70589982
   3.67755701  5.77128606  3.97791091
  15.41207408  0.04030326  1.95517992
   0.05061570 15.39564684  9.62205449
   0.07433579  7.87715683  1.92463869
   7.57537240  0.25461008  1.95157447
   7.63632079  0.11811612  9.61229845
   7.80021912  7.91002428  1.97277804
   7.87284425  7.83614791  9.63675433
   0.00346449  7.63336708  5.78989601
  15.30806587  7.66683950 13.46303423
   7.77530976 15.09601306  5.81580295
   7.97276854 15.25256783 13.51069507
   0.28854114  3.79219767  1.96932996
   0.13499163  3.98316811  9.58457937
   7.95112676  3.52164922  1.95428227
   7.86143555  3.65103830  9.60834482
   7.64177632 11.33270525  1.96341058
  15.20916885  3.87814760 13.49546665
  15.31831989 11.59238999  5.78790949
   0.02816206 11.60050946 13.48071854
   7.43433037  4.15518401  5.80209881
   7.54737934  4.10770412 13.50382301
   7.59405297 11.77111334  5.79519050
   7.70415598 11.72122798 13.49898773
   3.74614044  7.59388149  1.92103715
  11.55186125 15.20093351  1.94199554
  11.53446594 15.22006304  9.61306698
   3.86854159  0.02432064  5.79347587
   3.72246150 15.33255608 13.48994746
   3.86233791  7.90796018  5.78552810
   4.07035477  7.69449151 13.47792571
  11.54565588  7.99072803  5.76011740
  11.64053993  7.98186084 13.48708115
   3.88550098 11.64208577  1.93087934
   3.84011794 11.58749425  9.64492832
  11.43743627  4.14970190  9.61514892
  11.60535281 11.75279119  1.94054172
  11.52612086 11.70119145  9.63442274
   4.04852563  3.74903293  5.77373643
   4.00994463  3.87065855 13.50453846
  11.87665842  3.58374053  5.82055730
  11.75583447  3.62536389 13.50690757
   1.94498009  0.09248801  0.05138876
   1.92164542  0.01500690  7.70278550
   1.90795349  7.67452409  7.55387906
   9.62606114  0.11819572  0.14758543
   9.61814954 15.13272020  7.76678473
   9.65401625  7.56228656  7.64638457
   1.95782645  0.00720710 11.50296101
   1.91944021  7.87994405  3.87619510
   1.90784710  7.58828651 11.80183152
   9.61617100 15.34844729 11.40657232
   9.63706475  7.69391363  3.83633439
   9.67135027  7.58225630 11.68442937
   1.93160205  3.80788662 15.23405540
   1.90247719  3.83902388  7.52927703
   1.93766860 11.39944511  0.01722273
   1.91351499 11.62310217  7.63768366
   9.63934348  3.76029568 15.13824418
   1.92610970  3.62054386  4.10035687
   1.90642969 11.65532238 11.58996015
   9.65947671 11.65295402 11.59076036
   5.82211128  0.16069257  7.60069747
   5.79216763  7.51129172  0.15581242
  13.48352638  0.17660847  7.85182757
  13.49740202  7.64603748  0.04749788
   5.80185776 15.28504842  3.97206158
   5.79086219  7.71155966 11.39461288
  13.47570000 15.37519975  3.81892435
  13.48049155 15.34862967 11.48401398
   5.85046830  3.68768590  7.84190246
   5.81914450 11.73497486  0.03234116
   5.82207530 11.41171105  7.75837072
  13.48426555  3.82507239  7.93225430
  13.45513373 11.69751937 15.40123390
  13.45234166 11.40551731  7.77930000
   5.82131691  4.02855414  3.66161907
   5.80740389  3.83594869 11.46299494
   5.81095110 11.56732907  3.81585235
   5.79172984 11.61573913 11.55133047
  13.50737629  4.00923467  3.58369568
  13.48299259  3.92916396 11.38752052
  13.46873139 11.53749346  3.83939297
   0.00042031  1.96595709  0.02206475
   0.01338336  1.94829569  7.84941672
  15.27195148  9.64996174 15.31802676
   0.08606773  9.66816388  7.56935059
   7.68472379  1.92971219 15.24372464
   7.53449705  9.63537332 15.30044883
   7.88593778  9.65647514  7.51946554
  15.26187276  1.97599693  3.79484547
  15.37196765  9.61543476  3.99631905
   0.19486719  9.63961839 11.67368591
   7.68974096  9.63952255  4.08889916
  15.41034367  5.77565254  7.69373812
   7.58154418  5.72608379  7.96288478
   7.47706859 13.53899342  7.87017662
  15.34026968  5.78936599 11.56512669
  15.38439644 13.51028397  3.87234697
  15.40708593 13.51183469 11.52130381
   7.87436873  5.73228725  3.53389002
   7.65501003  5.76190854 11.33923212
   7.69101395 13.49672393  3.64065122
   7.73195294 13.49562777 11.48028010
   3.89328549  1.92650092 15.32672605
   3.80154278  1.91992993  7.66622035
   3.74949357  9.65738799  7.81503656
  11.53829533  1.96063134  0.32402521
  11.77197897  9.65178863  0.28054808
  11.39628696  9.64903617  7.90073599
   4.05128623  1.94509446  3.88933883
   3.87136631  1.92114819 11.69102508
   3.92409065  9.60984364  3.69162282
  11.70437603  1.89429641  3.52154716
  11.53737969  9.63470619  3.57187046
  11.38014592  9.64057266 11.36115586
   3.75440821  5.80135060 15.36885738
   3.71519333 13.47034616  0.04986913
  11.49380231  5.81444521 15.02200792
  11.69972865  5.75679008  7.42241866
  11.40994363 13.50759936 15.29351559
  11.79372571 13.51812544  7.57989896
   3.94020110  5.79785351 11.67710964
   3.86585678 13.49542162  3.88856233
   3.82289655 13.47225980 11.50636221
  11.51722868  5.84410794  4.25970801
  11.67853595  5.78744086 11.82266734
  11.58978821 13.49527410  4.01234809
  11.59085752 13.50303966 11.68707296
 


--------------------------------------------------------------------------------------------------------


 k-point  1 :   0.2500 0.2500 0.2500  plane waves:   93161
 k-point  2 :  -0.2500 0.2500 0.2500  plane waves:   93161
 k-point  3 :   0.2500-0.2500 0.2500  plane waves:   93161
 k-point  4 :  -0.2500-0.2500 0.2500  plane waves:   93161

 maximum and minimum number of plane-waves per node :     11686    11606

 maximum number of plane-waves:     93161
 maximum index in each direction: 
   IXMAX=   28   IYMAX=   28   IZMAX=   27
   IXMIN=  -28   IYMIN=  -28   IZMIN=  -28


 real space projection operators:
  total allocation   :     105597.66 KBytes
  max/ min on nodes  :      13237.55      13168.29


 parallel 3D FFT for wavefunctions:
    minimum data exchange during FFTs selected (reduces bandwidth)
 parallel 3D FFT for charge:
    minimum data exchange during FFTs selected (reduces bandwidth)


 total amount of memory used by VASP MPI-rank0   291517. kBytes
=======================================================================

   base      :      30000. kBytes
   nonlr-proj:      49482. kBytes
   fftplans  :      27976. kBytes
   grid      :      34041. kBytes
   one-center:       1026. kBytes
   wavefun   :     148992. kBytes
 
     INWAV:  cpu time   51.1125: real time   51.5023
 Broyden mixing: mesh for mixing (old mesh)
   NGX = 57   NGY = 57   NGZ = 57
  (NGX  =240   NGY  =240   NGZ  =240)
  gives a total of 185193 points

 charge density for first step will be calculated from the start-wavefunctions


--------------------------------------------------------------------------------------------------------


 Maximum index for non-local projection operator          967
 Maximum index for augmentation-charges         3291 (set IRDMAX)


--------------------------------------------------------------------------------------------------------


 initial charge from wavefunction
 First call to EWALD:  gamma=   0.115
 Maximum number of real-space cells 3x 3x 3
 Maximum number of reciprocal cells 3x 3x 3

    FEWALD:  cpu time    0.0234: real time    0.0234


--------------------------------------- Iteration      1(   1)  ---------------------------------------


    POTLOK:  cpu time    0.2576: real time    0.3020
    SETDIJ:  cpu time    1.3546: real time    1.4188
     EDDAV:  cpu time  130.5788: real time  131.6032
       DOS:  cpu time    0.0029: real time    0.0030
    CHARGE:  cpu time    5.2647: real time    5.2690
    MIXING:  cpu time    0.0074: real time    0.0075
    --------------------------------------------
      LOOP:  cpu time  137.4662: real time  138.6035

 eigenvalue-minimisations  : 23412
 total energy-change (2. order) :-0.1850388E+04  (-0.3645319E+03)
 number of electron    1923.0000028 magnetization       1.0000000
 augmentation part      504.3662427 magnetization       0.5632767

 Broyden mixing:
  rms(total) = 0.78938E+01    rms(broyden)= 0.78906E+01
  rms(prec ) = 0.12406E+02
  weight for this iteration     100.00

 Free energy of the ion-electron system (eV)
  ---------------------------------------------------
  alpha Z        PSCENC =      6118.73324990
  Ewald energy   TEWEN  =   -103796.55871653
  -Hartree energ DENC   =    -64842.51278376
  -exchange      EXHF   =         0.00000000
  -V(xc)+E(xc)   XCENC  =      8955.32805792
  PAW double counting   =    196928.29633262  -197921.73198124
  entropy T*S    EENTRO =        -0.00159243
  eigenvalues    EBANDS =    -25869.19294822
  atomic energy  EATOM  =    178577.25249613
  Solvation  Ediel_sol  =         0.00000000
  ---------------------------------------------------
  free energy    TOTEN  =     -1850.38788561 eV

  energy without entropy =    -1850.38629318  energy(sigma->0) =    -1850.38708939


--------------------------------------------------------------------------------------------------------




--------------------------------------- Iteration      1(   2)  ---------------------------------------


    POTLOK:  cpu time    0.2635: real time    0.2638
    SETDIJ:  cpu time    1.3828: real time    1.3839
     EDDAV:  cpu time  148.1116: real time  149.2865
       DOS:  cpu time    0.0030: real time    0.0030
    CHARGE:  cpu time    5.2579: real time    5.2632
    MIXING:  cpu time    0.0077: real time    0.0077
    --------------------------------------------
      LOOP:  cpu time  155.0266: real time  156.2081

 eigenvalue-minimisations  : 26832
 total energy-change (2. order) :-0.1573778E+02  (-0.3341359E+03)
 number of electron    1923.0000028 magnetization       1.0000000
 augmentation part      505.4808425 magnetization       0.7758823

 Broyden mixing:
  rms(total) = 0.92510E+01    rms(broyden)= 0.92467E+01
  rms(prec ) = 0.13829E+02
  weight for this iteration     100.00

 eigenvalues of (default mixing * dielectric matrix)
  average eigenvalue GAMMA=   0.4347
  0.4347

 Free energy of the ion-electron system (eV)
  ---------------------------------------------------
  alpha Z        PSCENC =      6118.73324990
  Ewald energy   TEWEN  =   -103796.55871653
  -Hartree energ DENC   =    -64909.01247058
  -exchange      EXHF   =         0.00000000
  -V(xc)+E(xc)   XCENC  =      8953.11496957
  PAW double counting   =    198363.21535000  -199329.05535996
  entropy T*S    EENTRO =        -0.00293740
  eigenvalues    EBANDS =    -25843.81224997
  atomic energy  EATOM  =    178577.25249613
  Solvation  Ediel_sol  =         0.00000000
  ---------------------------------------------------
  free energy    TOTEN  =     -1866.12566882 eV

  energy without entropy =    -1866.12273142  energy(sigma->0) =    -1866.12420012


--------------------------------------------------------------------------------------------------------




--------------------------------------- Iteration      1(   3)  ---------------------------------------


    POTLOK:  cpu time    0.2604: real time    0.2624
    SETDIJ:  cpu time    1.4002: real time    1.4188
     EDDAV:  cpu time  148.5696: real time  149.7615
       DOS:  cpu time    0.0019: real time    0.0019
    CHARGE:  cpu time    5.2448: real time    5.2499
    MIXING:  cpu time    0.0072: real time    0.0072
    --------------------------------------------
      LOOP:  cpu time  155.4840: real time  156.7017

 eigenvalue-minimisations  : 27144
 total energy-change (2. order) : 0.1027196E+02  (-0.1058112E+03)
 number of electron    1923.0000027 magnetization       1.0000000
 augmentation part      491.7284970 magnetization       0.5319109

 Broyden mixing:
  rms(total) = 0.57470E+01    rms(broyden)= 0.57448E+01
  rms(prec ) = 0.65854E+01
  weight for this iteration     100.00

 eigenvalues of (default mixing * dielectric matrix)
  average eigenvalue GAMMA=   0.4498
  0.4498  0.4498

 Free energy of the ion-electron system (eV)
  ---------------------------------------------------
  alpha Z        PSCENC =      6118.73324990
  Ewald energy   TEWEN  =   -103796.55871653
  -Hartree energ DENC   =    -64993.07359872
  -exchange      EXHF   =         0.00000000
  -V(xc)+E(xc)   XCENC  =      8955.99078980
  PAW double counting   =    198641.60921961  -199600.87127196
  entropy T*S    EENTRO =        -0.00000000
  eigenvalues    EBANDS =    -25758.93587961
  atomic energy  EATOM  =    178577.25249613
  Solvation  Ediel_sol  =         0.00000000
  ---------------------------------------------------
  free energy    TOTEN  =     -1855.85371136 eV

  energy without entropy =    -1855.85371136  energy(sigma->0) =    -1855.85371136


--------------------------------------------------------------------------------------------------------




--------------------------------------- Iteration      1(   4)  ---------------------------------------


    POTLOK:  cpu time    0.2611: real time    0.2633
    SETDIJ:  cpu time    1.3818: real time    1.3825
     EDDAV:  cpu time  143.2079: real time  144.0429
       DOS:  cpu time    0.0018: real time    0.0018
    CHARGE:  cpu time    5.1715: real time    5.2757
    MIXING:  cpu time    0.0167: real time    0.0173
    --------------------------------------------
      LOOP:  cpu time  150.0409: real time  150.9836

 eigenvalue-minimisations  : 25956
 total energy-change (2. order) : 0.4750800E+02  (-0.2562773E+02)
 number of electron    1923.0000028 magnetization       1.0000000
 augmentation part      493.3034894 magnetization       0.5617493

 Broyden mixing:
  rms(total) = 0.41856E+01    rms(broyden)= 0.41849E+01
  rms(prec ) = 0.48597E+01
  weight for this iteration     100.00

 eigenvalues of (default mixing * dielectric matrix)
  average eigenvalue GAMMA=   0.5868
  0.6412  0.6412  0.4780

 Free energy of the ion-electron system (eV)
  ---------------------------------------------------
  alpha Z        PSCENC =      6118.73324990
  Ewald energy   TEWEN  =   -103796.55871653
  -Hartree energ DENC   =    -64956.66799368
  -exchange      EXHF   =         0.00000000
  -V(xc)+E(xc)   XCENC  =      8962.21321916
  PAW double counting   =    198825.19529112  -199801.38418919
  entropy T*S    EENTRO =        -0.00000000
  eigenvalues    EBANDS =    -25737.12907192
  atomic energy  EATOM  =    178577.25249613
  Solvation  Ediel_sol  =         0.00000000
  ---------------------------------------------------
  free energy    TOTEN  =     -1808.34571500 eV

  energy without entropy =    -1808.34571500  energy(sigma->0) =    -1808.34571500


--------------------------------------------------------------------------------------------------------




--------------------------------------- Iteration      1(   5)  ---------------------------------------


    POTLOK:  cpu time    0.2751: real time    0.2906
    SETDIJ:  cpu time    1.4037: real time    1.4466
     EDDAV:  cpu time  145.8614: real time  146.7547
       DOS:  cpu time    0.0018: real time    0.0018
    CHARGE:  cpu time    5.2310: real time    5.2347
    MIXING:  cpu time    0.0533: real time    0.0533
    --------------------------------------------
      LOOP:  cpu time  152.8264: real time  153.7818

 eigenvalue-minimisations  : 26736
 total energy-change (2. order) : 0.3627678E+02  (-0.9577735E+01)
 number of electron    1923.0000028 magnetization       1.0000000
 augmentation part      493.9108003 magnetization       0.5937525

 Broyden mixing:
  rms(total) = 0.22330E+01    rms(broyden)= 0.22326E+01
  rms(prec ) = 0.26090E+01
  weight for this iteration     100.00

 eigenvalues of (default mixing * dielectric matrix)
  average eigenvalue GAMMA=   0.7100
  0.8961  0.8961  0.5239  0.5239

 Free energy of the ion-electron system (eV)
  ---------------------------------------------------
  alpha Z        PSCENC =      6118.73324990
  Ewald energy   TEWEN  =   -103796.55871653
  -Hartree energ DENC   =    -64963.81288245
  -exchange      EXHF   =         0.00000000
  -V(xc)+E(xc)   XCENC  =      8967.69857798
  PAW double counting   =    198274.02220515  -199264.81665513
  entropy T*S    EENTRO =        -0.00000000
  eigenvalues    EBANDS =    -25684.58721402
  atomic energy  EATOM  =    178577.25249613
  Solvation  Ediel_sol  =         0.00000000
  ---------------------------------------------------
  free energy    TOTEN  =     -1772.06893897 eV

  energy without entropy =    -1772.06893897  energy(sigma->0) =    -1772.06893897


--------------------------------------------------------------------------------------------------------




--------------------------------------- Iteration      1(   6)  ---------------------------------------


    POTLOK:  cpu time    0.6766: real time    0.6799
    SETDIJ:  cpu time    1.5996: real time    1.6425
     EDDAV:  cpu time  146.5517: real time  147.6121
       DOS:  cpu time    0.0019: real time    0.0019
    CHARGE:  cpu time    5.2374: real time    5.2413
    MIXING:  cpu time    0.0367: real time    0.0367
    --------------------------------------------
      LOOP:  cpu time  154.1039: real time  155.2144

 eigenvalue-minimisations  : 26964
 total energy-change (2. order) : 0.1174551E+02  (-0.6832201E+01)
 number of electron    1923.0000028 magnetization       1.0000000
 augmentation part      495.6769679 magnetization       0.5842065

 Broyden mixing:
  rms(total) = 0.14749E+01    rms(broyden)= 0.14745E+01
  rms(prec ) = 0.15804E+01
  weight for this iteration     100.00

 eigenvalues of (default mixing * dielectric matrix)
  average eigenvalue GAMMA=   0.7156
  0.9536  0.9536  0.4677  0.6016  0.6016

 Free energy of the ion-electron system (eV)
  ---------------------------------------------------
  alpha Z        PSCENC =      6118.73324990
  Ewald energy   TEWEN  =   -103796.55871653
  -Hartree energ DENC   =    -64895.94260947
  -exchange      EXHF   =         0.00000000
  -V(xc)+E(xc)   XCENC  =      8967.95981052
  PAW double counting   =    197813.80120293  -198814.78869355
  entropy T*S    EENTRO =        -0.00000000
  eigenvalues    EBANDS =    -25730.78017336
  atomic energy  EATOM  =    178577.25249613
  Solvation  Ediel_sol  =         0.00000000
  ---------------------------------------------------
  free energy    TOTEN  =     -1760.32343343 eV

  energy without entropy =    -1760.32343343  energy(sigma->0) =    -1760.32343343


--------------------------------------------------------------------------------------------------------




--------------------------------------- Iteration      1(   7)  ---------------------------------------


    POTLOK:  cpu time    0.2794: real time    0.2814
    SETDIJ:  cpu time    1.4391: real time    1.4403
     EDDAV:  cpu time  145.3804: real time  146.6574
       DOS:  cpu time    0.0019: real time    0.0019
    CHARGE:  cpu time    5.2824: real time    5.2858
    MIXING:  cpu time    0.0157: real time    0.0157
    --------------------------------------------
      LOOP:  cpu time  152.3990: real time  153.6826

 eigenvalue-minimisations  : 26748
 total energy-change (2. order) : 0.1105236E+01  (-0.1149915E+01)
 number of electron    1923.0000028 magnetization       1.0000000
 augmentation part      496.2442286 magnetization       0.5842331

 Broyden mixing:
  rms(total) = 0.96278E+00    rms(broyden)= 0.96217E+00
  rms(prec ) = 0.10299E+01
  weight for this iteration     100.00

 eigenvalues of (default mixing * dielectric matrix)
  average eigenvalue GAMMA=   0.8724
  1.3598  1.3598  0.7251  0.7251  0.5322  0.5322

 Free energy of the ion-electron system (eV)
  ---------------------------------------------------
  alpha Z        PSCENC =      6118.73324990
  Ewald energy   TEWEN  =   -103796.55871653
  -Hartree energ DENC   =    -64872.47370328
  -exchange      EXHF   =         0.00000000
  -V(xc)+E(xc)   XCENC  =      8966.98071321
  PAW double counting   =    197566.45804232  -198567.91959073
  entropy T*S    EENTRO =        -0.00000000
  eigenvalues    EBANDS =    -25751.69068887
  atomic energy  EATOM  =    178577.25249613
  Solvation  Ediel_sol  =         0.00000000
  ---------------------------------------------------
  free energy    TOTEN  =     -1759.21819785 eV

  energy without entropy =    -1759.21819785  energy(sigma->0) =    -1759.21819785


--------------------------------------------------------------------------------------------------------




--------------------------------------- Iteration      1(   8)  ---------------------------------------


    POTLOK:  cpu time    0.3096: real time    0.3103
    SETDIJ:  cpu time    1.4044: real time    1.4056
     EDDAV:  cpu time  136.0418: real time  136.9312
       DOS:  cpu time    0.0020: real time    0.0020
    CHARGE:  cpu time    5.2988: real time    5.3028
    MIXING:  cpu time    0.0108: real time    0.0108
    --------------------------------------------
      LOOP:  cpu time  143.0673: real time  143.9625

 eigenvalue-minimisations  : 24108
 total energy-change (2. order) :-0.2934486E-01  (-0.1102350E+01)
 number of electron    1923.0000028 magnetization       1.0000000
[...]
   81        1.573   3.455   0.000   5.028
   82        1.575   3.457   0.000   5.031
   83        1.574   3.458   0.000   5.031
   84        1.568   3.460   0.000   5.028
   85        1.575   3.462   0.000   5.037
   86        1.575   3.465   0.000   5.040
   87        1.575   3.458   0.000   5.034
   88        1.575   3.462   0.000   5.036
   89        1.575   3.462   0.000   5.036
   90        1.573   3.460   0.000   5.033
   91        1.574   3.459   0.000   5.033
   92        1.574   3.459   0.000   5.033
   93        1.578   3.465   0.000   5.043
   94        1.577   3.470   0.000   5.047
   95        1.576   3.471   0.000   5.047
   96        1.575   3.460   0.000   5.035
   97        1.575   3.465   0.000   5.040
   98        1.576   3.471   0.000   5.047
   99        1.575   3.460   0.000   5.035
  100        1.576   3.457   0.000   5.033
  101        1.574   3.456   0.000   5.031
  102        1.575   3.457   0.000   5.032
  103        1.575   3.457   0.000   5.032
  104        1.574   3.459   0.000   5.033
  105        1.577   3.470   0.000   5.047
  106        1.575   3.463   0.000   5.038
  107        1.575   3.462   0.000   5.037
  108        1.576   3.471   0.000   5.047
  109        1.574   3.455   0.000   5.030
  110        1.573   3.457   0.000   5.030
  111        1.576   3.471   0.000   5.047
  112        1.577   3.457   0.000   5.033
  113        1.576   3.472   0.000   5.048
  114        1.576   3.469   0.000   5.046
  115        1.574   3.461   0.000   5.035
  116        1.574   3.459   0.000   5.033
  117        1.575   3.460   0.000   5.035
  118        1.575   3.460   0.000   5.035
  119        1.576   3.475   0.000   5.051
  120        1.568   3.465   0.000   5.033
  121        1.574   3.458   0.000   5.032
  122        1.577   3.466   0.000   5.043
  123        1.577   3.471   0.000   5.048
  124        1.576   3.464   0.000   5.040
  125        1.576   3.474   0.000   5.050
  126        1.576   3.465   0.000   5.041
  127        1.575   3.458   0.000   5.032
  128        1.574   3.459   0.000   5.033
  129        1.576   3.468   0.000   5.044
  130        1.737   4.369   0.000   6.106
  131        1.737   4.370   0.000   6.107
  132        1.737   4.378   0.000   6.116
  133        1.738   4.382   0.000   6.120
  134        1.738   4.380   0.000   6.118
  135        1.737   4.365   0.000   6.101
  136        1.736   4.364   0.000   6.100
  137        1.738   4.379   0.000   6.117
  138        1.738   4.380   0.000   6.118
  139        1.739   4.380   0.000   6.119
  140        1.739   4.382   0.000   6.121
  141        1.738   4.376   0.000   6.114
  142        1.737   4.375   0.000   6.112
  143        1.737   4.377   0.000   6.115
  144        1.738   4.380   0.000   6.117
  145        1.738   4.378   0.000   6.117
  146        1.737   4.376   0.000   6.112
  147        1.737   4.369   0.000   6.105
  148        1.736   4.368   0.000   6.104
  149        1.739   4.375   0.000   6.114
  150        1.738   4.379   0.000   6.117
  151        1.738   4.372   0.000   6.110
  152        1.737   4.376   0.000   6.113
  153        1.737   4.380   0.000   6.117
  154        1.737   4.368   0.000   6.105
  155        1.737   4.366   0.000   6.103
  156        1.737   4.369   0.000   6.106
  157        1.737   4.367   0.000   6.103
  158        1.738   4.374   0.000   6.112
  159        1.738   4.374   0.000   6.112
  160        1.736   4.361   0.000   6.097
  161        1.736   4.363   0.000   6.100
  162        1.737   4.369   0.000   6.106
  163        1.736   4.367   0.000   6.103
  164        1.737   4.370   0.000   6.107
  165        1.736   4.366   0.000   6.102
  166        1.736   4.366   0.000   6.102
  167        1.737   4.367   0.000   6.103
  168        1.737   4.367   0.000   6.104
  169        1.738   4.368   0.000   6.106
  170        1.738   4.366   0.000   6.104
  171        1.737   4.368   0.000   6.105
  172        1.738   4.386   0.000   6.124
  173        1.737   4.369   0.000   6.106
  174        1.737   4.367   0.000   6.104
  175        1.739   4.379   0.000   6.118
  176        1.737   4.365   0.000   6.102
  177        1.737   4.378   0.000   6.116
  178        1.737   4.369   0.000   6.106
  179        1.738   4.373   0.000   6.111
  180        1.738   4.378   0.000   6.116
  181        1.736   4.369   0.000   6.105
  182        1.738   4.375   0.000   6.113
  183        1.736   4.362   0.000   6.099
  184        1.737   4.376   0.000   6.113
  185        1.737   4.379   0.000   6.116
  186        1.737   4.380   0.000   6.117
  187        1.737   4.364   0.000   6.101
  188        1.738   4.373   0.000   6.110
  189        1.738   4.381   0.000   6.119
  190        1.738   4.380   0.000   6.118
  191        1.739   4.385   0.000   6.124
  192        1.737   4.367   0.000   6.104
  193        1.739   4.386   0.000   6.125
  194        1.737   4.368   0.000   6.105
  195        1.737   4.370   0.000   6.107
  196        1.737   4.379   0.000   6.116
  197        1.737   4.368   0.000   6.105
  198        1.737   4.379   0.000   6.117
  199        1.737   4.376   0.000   6.114
  200        1.738   4.379   0.000   6.117
  201        1.738   4.378   0.000   6.116
  202        1.738   4.374   0.000   6.112
  203        1.737   4.378   0.000   6.116
  204        1.738   4.376   0.000   6.114
  205        1.737   4.372   0.000   6.109
  206        1.736   4.366   0.000   6.102
  207        1.737   4.369   0.000   6.106
  208        1.737   4.380   0.000   6.118
  209        1.737   4.377   0.000   6.114
  210        1.737   4.368   0.000   6.105
  211        1.737   4.370   0.000   6.108
  212        1.737   4.368   0.000   6.104
  213        1.739   4.374   0.000   6.113
  214        1.736   4.366   0.000   6.102
  215        1.739   4.379   0.000   6.117
  216        1.736   4.363   0.000   6.099
  217        1.736   4.361   0.000   6.097
  218        1.737   4.375   0.000   6.111
  219        1.738   4.377   0.000   6.115
  220        1.738   4.380   0.000   6.118
  221        1.738   4.379   0.000   6.117
  222        1.737   4.376   0.000   6.113
  223        1.738   4.381   0.000   6.119
  224        1.738   4.375   0.000   6.113
  225        1.737   4.374   0.000   6.112
  226        1.738   4.378   0.000   6.116
  227        1.737   4.379   0.000   6.116
  228        1.738   4.377   0.000   6.115
  229        1.737   4.372   0.000   6.109
  230        1.737   4.366   0.000   6.103
  231        1.738   4.371   0.000   6.109
  232        1.736   4.366   0.000   6.102
  233        1.738   4.379   0.000   6.116
  234        1.737   4.369   0.000   6.106
  235        1.737   4.368   0.000   6.105
  236        1.737   4.381   0.000   6.118
  237        1.739   4.380   0.000   6.118
  238        1.737   4.375   0.000   6.112
  239        1.738   4.376   0.000   6.114
  240        1.737   4.380   0.000   6.117
  241        1.738   4.376   0.000   6.114
  242        1.738   4.380   0.000   6.117
  243        1.738   4.380   0.000   6.118
  244        1.738   4.376   0.000   6.114
  245        1.738   4.378   0.000   6.116
  246        1.738   4.376   0.000   6.114
  247        1.739   4.376   0.000   6.114
  248        1.738   4.372   0.000   6.109
  249        1.737   4.382   0.000   6.119
  250        1.738   4.372   0.000   6.109
  251        1.738   4.380   0.000   6.118
  252        1.737   4.380   0.000   6.117
  253        1.738   4.378   0.000   6.117
  254        1.739   4.381   0.000   6.120
  255        1.738   4.372   0.000   6.110
  256        1.738   4.383   0.000   6.121
  257        1.737   4.374   0.000   6.112
--------------------------------------------------
tot        345.2991194.305 111.7981651.403
 


 magnetization (x)
 
# of ion       s       p       d       tot
------------------------------------------
    1        0.000   0.000   0.000   0.000
    2       -0.000  -0.000  -0.000  -0.000
    3       -0.000  -0.000   0.000  -0.000
    4       -0.000  -0.000  -0.000  -0.000
    5       -0.000  -0.000  -0.000  -0.000
    6        0.000  -0.000   0.000   0.000
    7       -0.000  -0.000   0.000  -0.000
    8       -0.000  -0.000  -0.000  -0.000
    9       -0.000  -0.000   0.000   0.000
   10       -0.000  -0.000   0.000   0.000
   11       -0.000  -0.000  -0.000  -0.000
   12       -0.000  -0.000   0.000   0.000
   13       -0.000  -0.000  -0.000  -0.000
   14       -0.000  -0.000  -0.000  -0.000
   15       -0.000  -0.000  -0.000  -0.000
   16       -0.000  -0.000   0.000   0.000
   17        0.000  -0.000   0.000   0.000
   18       -0.000  -0.000   0.000   0.000
   19        0.000   0.000   0.000   0.000
   20       -0.000  -0.000   0.000   0.000
   21       -0.000  -0.000  -0.000  -0.000
   22        0.000  -0.000   0.000   0.000
   23       -0.000  -0.000   0.000   0.000
   24       -0.000  -0.000   0.000   0.000
   25       -0.000  -0.000   0.000   0.000
   26       -0.000  -0.000   0.000  -0.000
   27       -0.000  -0.000   0.000   0.000
   28       -0.000  -0.000   0.000   0.000
   29       -0.000  -0.000  -0.000  -0.000
   30       -0.000  -0.000  -0.001  -0.002
   31       -0.000  -0.000   0.000  -0.000
   32       -0.000  -0.000   0.000   0.000
   33       -0.000  -0.000   0.000  -0.000
   34       -0.000   0.000   0.000   0.000
   35       -0.000  -0.000  -0.000  -0.000
   36       -0.000  -0.000  -0.000  -0.000
   37       -0.000  -0.000  -0.000  -0.000
   38       -0.000   0.000   0.001   0.001
   39        0.000   0.000   0.003   0.004
   40        0.000   0.000   0.002   0.002
   41        0.000  -0.000   0.000   0.000
   42       -0.000  -0.000  -0.000  -0.000
   43       -0.000  -0.000  -0.000  -0.000
   44       -0.000  -0.000  -0.000  -0.000
   45       -0.000  -0.000  -0.000  -0.000
   46        0.000   0.000   0.009   0.010
   47        0.000   0.000   0.000   0.000
   48        0.000   0.000   0.006   0.006
   49        0.000  -0.000   0.000   0.000
   50       -0.000  -0.000   0.000   0.000
   51       -0.000  -0.000   0.000   0.000
   52       -0.000  -0.000  -0.000  -0.000
   53        0.000  -0.000  -0.000  -0.000
   54        0.000   0.000   0.036   0.037
   55       -0.000   0.000   0.007   0.007
   56        0.000   0.000   0.000   0.000
   57        0.000   0.000   0.000   0.000
   58       -0.000  -0.000  -0.000  -0.000
   59       -0.000  -0.000  -0.000  -0.000
   60       -0.000  -0.000  -0.000  -0.000
   61       -0.000  -0.000  -0.000  -0.000
   62        0.005   0.007   0.907   0.918
   63        0.000   0.000   0.001   0.001
   64        0.000   0.000   0.000   0.000
   65        0.000   0.000   0.000   0.000
   66        0.000  -0.000   0.000  -0.000
   67       -0.000  -0.000   0.000  -0.000
   68        0.000  -0.000   0.000  -0.000
   69       -0.000  -0.000   0.000  -0.000
   70       -0.000  -0.000   0.000  -0.000
   71        0.000   0.000   0.000   0.000
   72        0.000   0.000   0.000   0.000
   73        0.000  -0.000   0.000  -0.000
   74       -0.000  -0.000   0.000  -0.000
   75        0.000   0.000   0.000   0.000
   76        0.000   0.000   0.000   0.000
   77        0.000   0.000   0.000   0.000
   78       -0.000  -0.001   0.000  -0.001
   79        0.000  -0.000   0.000  -0.000
   80       -0.000  -0.001   0.000  -0.002
   81       -0.000  -0.000   0.000  -0.000
   82        0.000   0.000   0.000   0.000
   83        0.000   0.000   0.000   0.000
   84       -0.001  -0.015   0.000  -0.016
   85        0.000   0.000   0.000   0.000
   86        0.000   0.000   0.000   0.000
   87       -0.000  -0.000   0.000  -0.000
   88       -0.000  -0.000   0.000  -0.000
   89       -0.000  -0.000   0.000  -0.000
   90       -0.000  -0.000   0.000  -0.000
   91       -0.000  -0.000   0.000  -0.000
   92       -0.000  -0.000   0.000  -0.000
   93       -0.000  -0.000   0.000  -0.000
   94       -0.000  -0.000   0.000  -0.000
   95       -0.000  -0.000   0.000  -0.000
   96        0.000  -0.000   0.000  -0.000
   97       -0.000  -0.000   0.000  -0.000
   98       -0.001  -0.015   0.000  -0.016
   99       -0.000  -0.000   0.000  -0.000
  100       -0.000  -0.000   0.000  -0.000
  101        0.000  -0.000   0.000  -0.000
  102       -0.000  -0.000   0.000  -0.000
  103       -0.000  -0.000   0.000  -0.000
  104       -0.000  -0.000   0.000  -0.000
  105        0.000   0.000   0.000   0.000
  106       -0.000  -0.000   0.000  -0.000
  107       -0.000  -0.000   0.000  -0.000
  108       -0.000  -0.000   0.000  -0.000
  109        0.000  -0.000   0.000  -0.000
  110       -0.000  -0.001   0.000  -0.001
  111       -0.000  -0.000   0.000  -0.000
  112       -0.000  -0.000   0.000  -0.000
  113        0.000   0.000   0.000   0.000
  114       -0.000  -0.000   0.000  -0.000
  115        0.000  -0.000   0.000  -0.000
  116       -0.000  -0.000   0.000  -0.000
  117       -0.000  -0.000   0.000  -0.000
  118       -0.000  -0.000   0.000  -0.000
  119        0.000   0.000   0.000   0.000
  120       -0.000  -0.000   0.000  -0.000
  121       -0.000  -0.000   0.000  -0.000
  122       -0.000  -0.000   0.000  -0.000
  123       -0.000  -0.000   0.000  -0.000
  124       -0.000  -0.001   0.000  -0.001
  125        0.000   0.000   0.000   0.000
  126       -0.000  -0.000   0.000  -0.000
  127       -0.000   0.000   0.000   0.000
  128        0.000   0.000   0.000   0.000
  129        0.000   0.000   0.000   0.000
  130       -0.000  -0.000   0.000  -0.000
  131       -0.000  -0.000   0.000  -0.000
  132       -0.000  -0.000   0.000  -0.000
  133        0.000  -0.000   0.000  -0.000
  134        0.000   0.000   0.000   0.000
  135       -0.000  -0.000   0.000  -0.000
  136        0.000  -0.000   0.000  -0.000
  137       -0.000  -0.000   0.000  -0.000
  138       -0.000  -0.000   0.000  -0.000
  139       -0.000  -0.000   0.000  -0.000
  140        0.000  -0.000   0.000   0.000
  141        0.000   0.000   0.000   0.000
  142       -0.000  -0.000   0.000  -0.000
  143       -0.000  -0.000   0.000  -0.000
  144       -0.000  -0.000   0.000  -0.000
  145        0.000  -0.000   0.000  -0.000
  146       -0.000  -0.000   0.000  -0.000
  147        0.000   0.000   0.000   0.000
  148        0.000   0.000   0.000   0.000
  149       -0.000  -0.000   0.000  -0.000
  150       -0.000  -0.000   0.000  -0.000
  151       -0.000  -0.000   0.000  -0.000
  152       -0.000   0.000   0.000   0.000
  153       -0.000   0.000   0.000  -0.000
  154        0.000   0.000   0.000   0.000
  155       -0.000  -0.000   0.000  -0.000
  156        0.000   0.000   0.000   0.000
  157        0.000   0.000   0.000   0.000
  158       -0.000  -0.000   0.000  -0.000
  159       -0.000   0.000   0.000   0.000
  160        0.000  -0.000   0.000  -0.000
  161        0.000   0.000   0.000   0.000
  162        0.000   0.000   0.000   0.000
  163        0.000   0.000   0.000   0.000
  164       -0.000  -0.000   0.000  -0.000
  165       -0.000  -0.000   0.000  -0.000
  166        0.000   0.000   0.000   0.000
  167       -0.000  -0.000   0.000  -0.000
  168       -0.000  -0.000   0.000  -0.000
  169       -0.000  -0.000   0.000  -0.001
  170        0.000  -0.000   0.000   0.000
  171       -0.000  -0.000   0.000  -0.000
  172       -0.000  -0.000   0.000  -0.000
  173       -0.000  -0.000   0.000  -0.000
  174       -0.000  -0.000   0.000  -0.000
  175       -0.000  -0.000   0.000  -0.000
  176       -0.000  -0.000   0.000  -0.000
  177        0.000   0.000   0.000   0.000
  178       -0.000  -0.000   0.000  -0.000
  179        0.000   0.000   0.000   0.000
  180       -0.000  -0.000   0.000  -0.000
  181       -0.000  -0.000   0.000  -0.000
  182       -0.000  -0.000   0.000  -0.000
  183       -0.000  -0.000   0.000  -0.000
  184       -0.000  -0.000   0.000  -0.000
  185        0.000   0.000   0.000   0.000
  186        0.000   0.000   0.000   0.000
  187       -0.000  -0.000   0.000  -0.000
  188       -0.000  -0.000   0.000  -0.000
  189        0.000   0.000   0.000   0.000
  190       -0.000  -0.000   0.000  -0.000
  191       -0.000  -0.000   0.000  -0.000
  192       -0.000  -0.000   0.000  -0.000
  193       -0.000  -0.000   0.000  -0.000
  194        0.000  -0.000   0.000  -0.000
  195       -0.000  -0.000   0.000  -0.000
  196       -0.000   0.000   0.000  -0.000
  197       -0.000  -0.000   0.000  -0.000
  198       -0.000  -0.000   0.000  -0.000
  199       -0.000  -0.000   0.000  -0.000
  200        0.000   0.000   0.000   0.000
  201        0.000   0.000   0.000   0.000
  202       -0.000  -0.000   0.000  -0.000
  203       -0.000  -0.000   0.000  -0.000
  204       -0.000  -0.000   0.000  -0.000
  205       -0.000  -0.000   0.000  -0.000
  206        0.000  -0.000   0.000  -0.000
  207       -0.000  -0.000   0.000  -0.000
  208        0.000   0.000   0.000   0.000
  209       -0.000  -0.005   0.000  -0.005
  210       -0.000  -0.000   0.000  -0.000
  211       -0.000  -0.000   0.000  -0.000
  212       -0.000  -0.000   0.000  -0.000
  213       -0.000  -0.000   0.000  -0.000
  214       -0.000  -0.000   0.000  -0.000
  215        0.000  -0.000   0.000   0.000
  216       -0.000  -0.000   0.000  -0.000
  217       -0.000  -0.000   0.000  -0.000
  218       -0.000  -0.000   0.000  -0.000
  219       -0.000  -0.000   0.000  -0.000
  220       -0.000  -0.000   0.000  -0.000
  221        0.000   0.000   0.000   0.000
  222       -0.000  -0.000   0.000  -0.000
  223        0.000  -0.000   0.000  -0.000
  224       -0.000  -0.000   0.000  -0.000
  225       -0.000  -0.000   0.000  -0.000
  226        0.000   0.000   0.000   0.000
  227       -0.000  -0.000   0.000  -0.000
  228        0.000   0.000   0.000   0.000
  229       -0.000  -0.000   0.000  -0.000
  230       -0.000  -0.000   0.000  -0.000
  231        0.000  -0.000   0.000  -0.000
  232        0.000   0.000   0.000   0.000
  233       -0.000  -0.000   0.000  -0.000
  234        0.000   0.000   0.000   0.000
  235        0.000   0.000   0.000   0.000
  236       -0.000  -0.000   0.000  -0.000
  237       -0.000  -0.000   0.000  -0.000
  238        0.000   0.000   0.000   0.000
  239        0.000  -0.000   0.000  -0.000
  240        0.000   0.000   0.000   0.000
  241       -0.000  -0.000   0.000  -0.000
  242       -0.000   0.001   0.000   0.001
  243        0.000   0.000   0.000   0.000
  244        0.000  -0.000   0.000  -0.000
  245        0.000  -0.000   0.000  -0.000
  246       -0.000   0.000   0.000   0.000
  247        0.000   0.000   0.000   0.000
  248        0.000   0.000   0.000   0.000
  249        0.000   0.000   0.000   0.000
  250       -0.000  -0.000   0.000  -0.000
  251       -0.000   0.000   0.000   0.000
  252       -0.000  -0.000   0.000  -0.000
  253       -0.000   0.000   0.000   0.000
  254       -0.000   0.001   0.000   0.001
  255        0.000  -0.000   0.000  -0.000
  256       -0.000  -0.000   0.000  -0.000
  257       -0.000  -0.000   0.000  -0.000
--------------------------------------------------
tot          0.003  -0.035   0.972   0.940
 

 total amount of memory used by VASP MPI-rank0   291517. kBytes
=======================================================================

   base      :      30000. kBytes
   nonlr-proj:      49482. kBytes
   fftplans  :      27976. kBytes
   grid      :      34041. kBytes
   one-center:       1026. kBytes
   wavefun   :     148992. kBytes
 
  
  
 General timing and accounting informations for this job:
 ========================================================
  
                  Total CPU time used (sec):     4093.345
                            User time (sec):     3712.054
                          System time (sec):      381.292
                         Elapsed time (sec):     4129.297
  
                   Maximum memory used (kb):      626136.
                   Average memory used (kb):           0.
  
                          Minor page faults:       353282
                          Major page faults:            1
                 Voluntary context switches:        28324
