 vasp.5.4.4.18Apr17-6-g9f103f2a35 (build Jul 16 2019 12:12:28) complex          
  
 executed on             LinuxIFC date 2020.01.06  10:19:22
 running on   96 total cores
 distrk:  each k-point on   96 cores,    1 groups
 distr:  one band on NCORES_PER_BAND=   8 cores,   12 groups


--------------------------------------------------------------------------------------------------------


 INCAR:
 POTCAR:    PAW_PBE Li_sv 10Sep2004               
 POTCAR:    PAW_PBE Ti_pv 07Sep2000               
 POTCAR:    PAW_PBE O 08Apr2002                   
 POTCAR:    PAW_PBE F 08Apr2002                   
 POTCAR:    PAW_PBE Li_sv 10Sep2004               
   VRHFIN =Li: 1s2s2p                                                           
   LEXCH  = PE                                                                  
   EATOM  =   202.7858 eV,   14.9043 Ry                                         
                                                                                
   TITEL  = PAW_PBE Li_sv 10Sep2004                                             
   LULTRA =        F    use ultrasoft PP ?                                      
   IUNSCR =        0    unscreen: 0-lin 1-nonlin 2-no                           
   RPACOR =    0.000    partial core radius                                     
   POMASS =    7.010; ZVAL   =    3.000    mass and valenz                      
   RCORE  =    1.700    outmost cutoff radius                                   
   RWIGS  =    2.050; RWIGS  =    1.085    wigner-seitz radius (au A)           
   ENMAX  =  499.034; ENMIN  =  374.276 eV                                      
   ICORE  =        2    local potential                                         
   LCOR   =        T    correct aug charges                                     
   LPAW   =        T    paw PP                                                  
   EAUG   =  628.945                                                            
   RMAX   =    1.732    core radius for proj-oper                               
   RAUG   =    1.300    factor for augmentation sphere                          
   RDEP   =    1.728    radius for radial grids                                 
   RDEPT  =    1.329    core radius for aug-charge                              
                                                                                
   Atomic configuration                                                         
    4 entries                                                                   
     n  l   j            E        occ.                                          
     1  0  0.50       -51.8549   2.0000                                         
     2  0  0.50        -2.8742   1.0000                                         
     2  1  0.50        -1.3606   0.0000                                         
     3  2  1.50        -1.3606   0.0000                                         
   Description                                                                  
     l       E           TYP  RCUT    TYP  RCUT                                 
     0    -51.8548813     23  1.400                                             
     0     -2.8742052     23  1.700                                             
     1     -1.3605826     23  1.400                                             
     2     -1.3605826     23  1.400                                             
  local pseudopotential read in
  atomic valenz-charges read in
  non local Contribution for L=           0  read in
    real space projection operators read in
  non local Contribution for L=           0  read in
    real space projection operators read in
  non local Contribution for L=           1  read in
    real space projection operators read in
    PAW grid and wavefunctions read in
 
   number of l-projection  operators is LMAX  =           3
   number of lm-projection operators is LMMAX =           5
 
 POTCAR:    PAW_PBE Ti_pv 07Sep2000               
   VRHFIN =Ti: d3 s1                                                            
   LEXCH  = PE                                                                  
   EATOM  =  1042.5995 eV,   76.6289 Ry                                         
                                                                                
   TITEL  = PAW_PBE Ti_pv 07Sep2000                                             
   LULTRA =        F    use ultrasoft PP ?                                      
   IUNSCR =        1    unscreen: 0-lin 1-nonlin 2-no                           
   RPACOR =    2.200    partial core radius                                     
   POMASS =   47.880; ZVAL   =   10.000    mass and valenz                      
   RCORE  =    2.500    outmost cutoff radius                                   
   RWIGS  =    2.500; RWIGS  =    1.323    wigner-seitz radius (au A)           
   ENMAX  =  222.335; ENMIN  =  166.751 eV                                      
   RCLOC  =    1.701    cutoff for local pot                                    
   LCOR   =        T    correct aug charges                                     
   LPAW   =        T    paw PP                                                  
   EAUG   =  482.848                                                            
   DEXC   =    0.000                                                            
   RMAX   =    2.564    core radius for proj-oper                               
   RAUG   =    1.300    factor for augmentation sphere                          
   RDEP   =    2.538    radius for radial grids                                 
   RDEPT  =    1.952    core radius for aug-charge                              
                                                                                
   Atomic configuration                                                         
    8 entries                                                                   
     n  l   j            E        occ.                                          
     1  0  0.50     -4865.3608   2.0000                                         
     2  0  0.50      -533.1368   2.0000                                         
     2  1  1.50      -440.5031   6.0000                                         
     3  0  0.50       -59.3186   2.0000                                         
     3  1  1.50       -35.7012   6.0000                                         
     3  2  2.50        -1.9157   3.0000                                         
     4  0  0.50        -3.7291   1.0000                                         
     4  3  2.50        -1.3606   0.0000                                         
   Description                                                                  
     l       E           TYP  RCUT    TYP  RCUT                                 
     1    -35.7012140     23  2.300                                             
     1     -1.3605826     23  2.300                                             
     2     -1.9156996     23  2.500                                             
     2     -0.4063033     23  2.500                                             
     0     -3.7290856     23  2.500                                             
     0     20.4087390     23  2.500                                             
  local pseudopotential read in
  partial core-charges read in
  partial kinetic energy density read in
  atomic valenz-charges read in
  non local Contribution for L=           1  read in
    real space projection operators read in
  non local Contribution for L=           1  read in
    real space projection operators read in
  non local Contribution for L=           2  read in
    real space projection operators read in
  non local Contribution for L=           2  read in
    real space projection operators read in
  non local Contribution for L=           0  read in
    real space projection operators read in
  non local Contribution for L=           0  read in
    real space projection operators read in
    PAW grid and wavefunctions read in
 
   number of l-projection  operators is LMAX  =           6
   number of lm-projection operators is LMMAX =          18
 
 POTCAR:    PAW_PBE O 08Apr2002                   
   VRHFIN =O: s2p4                                                              
   LEXCH  = PE                                                                  
   EATOM  =   432.3788 eV,   31.7789 Ry                                         
                                                                                
   TITEL  = PAW_PBE O 08Apr2002                                                 
   LULTRA =        F    use ultrasoft PP ?                                      
   IUNSCR =        1    unscreen: 0-lin 1-nonlin 2-no                           
   RPACOR =    1.200    partial core radius                                     
   POMASS =   16.000; ZVAL   =    6.000    mass and valenz                      
   RCORE  =    1.520    outmost cutoff radius                                   
   RWIGS  =    1.550; RWIGS  =    0.820    wigner-seitz radius (au A)           
   ENMAX  =  400.000; ENMIN  =  300.000 eV                                      
   ICORE  =        2    local potential                                         
   LCOR   =        T    correct aug charges                                     
   LPAW   =        T    paw PP                                                  
   EAUG   =  605.392                                                            
   DEXC   =    0.000                                                            
   RMAX   =    1.553    core radius for proj-oper                               
   RAUG   =    1.300    factor for augmentation sphere                          
   RDEP   =    1.550    radius for radial grids                                 
   RDEPT  =    1.329    core radius for aug-charge                              
                                                                                
   Atomic configuration                                                         
    4 entries                                                                   
     n  l   j            E        occ.                                          
     1  0  0.50      -514.6923   2.0000                                         
     2  0  0.50       -23.9615   2.0000                                         
     2  1  0.50        -9.0305   4.0000                                         
     3  2  1.50        -9.5241   0.0000                                         
   Description                                                                  
     l       E           TYP  RCUT    TYP  RCUT                                 
     0    -23.9615318     23  1.200                                             
     0     -9.5240782     23  1.200                                             
     1     -9.0304911     23  1.520                                             
     1      8.1634956     23  1.520                                             
     2     -9.5240782      7  1.500                                             
  local pseudopotential read in
  partial core-charges read in
  partial kinetic energy density read in
  kinetic energy density of atom read in
  atomic valenz-charges read in
  non local Contribution for L=           0  read in
    real space projection operators read in
  non local Contribution for L=           0  read in
    real space projection operators read in
  non local Contribution for L=           1  read in
    real space projection operators read in
  non local Contribution for L=           1  read in
    real space projection operators read in
    PAW grid and wavefunctions read in
 
   number of l-projection  operators is LMAX  =           4
   number of lm-projection operators is LMMAX =           8
 
 POTCAR:    PAW_PBE F 08Apr2002                   
   VRHFIN =F: s2p5                                                              
   LEXCH  = PE                                                                  
   EATOM  =   659.6475 eV,   48.4827 Ry                                         
                                                                                
   TITEL  = PAW_PBE F 08Apr2002                                                 
   LULTRA =        F    use ultrasoft PP ?                                      
   IUNSCR =        1    unscreen: 0-lin 1-nonlin 2-no                           
   RPACOR =    1.200    partial core radius                                     
   POMASS =   18.998; ZVAL   =    7.000    mass and valenz                      
   RCORE  =    1.520    outmost cutoff radius                                   
   RWIGS  =    1.500; RWIGS  =    0.794    wigner-seitz radius (au A)           
   ENMAX  =  400.000; ENMIN  =  300.000 eV                                      
   ICORE  =        2    local potential                                         
   LCOR   =        T    correct aug charges                                     
   LPAW   =        T    paw PP                                                  
   EAUG   =  613.614                                                            
   RMAX   =    1.555    core radius for proj-oper                               
   RAUG   =    1.300    factor for augmentation sphere                          
   RDEP   =    1.539    radius for radial grids                                 
   RDEPT  =    1.299    core radius for aug-charge                              
                                                                                
   Atomic configuration                                                         
    4 entries                                                                   
     n  l   j            E        occ.                                          
     1  0  0.50      -663.3661   2.0000                                         
     2  0  0.50       -29.8995   2.0000                                         
     2  1  0.50       -11.1114   5.0000                                         
     3  2  1.50       -10.8847   0.0000                                         
   Description                                                                  
     l       E           TYP  RCUT    TYP  RCUT                                 
     0    -29.8995018     23  1.200                                             
     0     -9.5240782     23  1.200                                             
     1    -11.1113914     23  1.520                                             
     1      1.3605826     23  1.520                                             
     2    -10.8846608      7  1.500                                             
  local pseudopotential read in
  partial core-charges read in
  partial kinetic energy density read in
  atomic valenz-charges read in
  non local Contribution for L=           0  read in
    real space projection operators read in
  non local Contribution for L=           0  read in
    real space projection operators read in
  non local Contribution for L=           1  read in
    real space projection operators read in
  non local Contribution for L=           1  read in
    real space projection operators read in
    PAW grid and wavefunctions read in
 
   number of l-projection  operators is LMAX  =           4
   number of lm-projection operators is LMMAX =           8
 
 Optimization of the real space projectors (new method)

 maximal supplied QI-value         = 22.11
 optimisation between [QCUT,QGAM] = [ 11.28, 22.77] = [ 35.61,145.23] Ry 
 Optimized for a Real-space Cutoff    1.31 Angstroem

   l    n(q)    QCUT    max X(q) W(low)/X(q) W(high)/X(q)  e(spline) 
   0      9    11.276    10.506    0.19E-04    0.17E-04    0.32E-07
   0      9    11.276     8.367    0.38E-04    0.40E-04    0.65E-07
   1      8    11.276     8.983    0.55E-04    0.98E-04    0.20E-06
 Optimization of the real space projectors (new method)

 maximal supplied QI-value         = 15.12
 optimisation between [QCUT,QGAM] = [ 11.34, 22.83] = [ 36.00,145.93] Ry 
 Optimized for a Real-space Cutoff    1.56 Angstroem

   l    n(q)    QCUT    max X(q) W(low)/X(q) W(high)/X(q)  e(spline) 
   1     10    11.338     4.216    0.27E-04    0.12E-04    0.66E-07
   1     10    11.338     5.422    0.81E-04    0.24E-04    0.19E-06
   2     10    11.338    72.084    0.64E-04    0.21E-03    0.51E-06
   2     10    11.338    65.965    0.63E-04    0.21E-03    0.50E-06
   0     11    11.338    41.531    0.33E-04    0.54E-04    0.13E-06
   0     11    11.338    16.290    0.26E-04    0.41E-04    0.11E-06
 Optimization of the real space projectors (new method)

 maximal supplied QI-value         = 24.76
 optimisation between [QCUT,QGAM] = [ 11.39, 22.77] = [ 36.31,145.25] Ry 
 Optimized for a Real-space Cutoff    1.20 Angstroem

   l    n(q)    QCUT    max X(q) W(low)/X(q) W(high)/X(q)  e(spline) 
   0      8    11.387    20.381    0.89E-04    0.31E-03    0.27E-06
   0      8    11.387    15.268    0.93E-04    0.32E-03    0.29E-06
   1      8    11.387     5.964    0.53E-04    0.28E-03    0.29E-06
   1      8    11.387     5.382    0.37E-04    0.22E-03    0.26E-06
 Optimization of the real space projectors (new method)

 maximal supplied QI-value         = 24.76
 optimisation between [QCUT,QGAM] = [ 11.39, 22.77] = [ 36.31,145.25] Ry 
 Optimized for a Real-space Cutoff    1.20 Angstroem

   l    n(q)    QCUT    max X(q) W(low)/X(q) W(high)/X(q)  e(spline) 
   0      8    11.387    14.049    0.69E-04    0.23E-03    0.18E-06
   0      8    11.387     8.945    0.88E-04    0.30E-03    0.26E-06
   1      8    11.387     7.086    0.62E-04    0.27E-03    0.27E-06
   1      8    11.387     6.747    0.46E-04    0.23E-03    0.25E-06

 ----------------------------------------------------------------------------- 
|                                                                             |
|  ADVICE TO THIS USER RUNNING 'VASP/VAMP'   (HEAR YOUR MASTER'S VOICE ...):  |
|                                                                             |
|      You enforced a specific xc-type in the INCAR file,                     |
|      a different type was found on the POTCAR file                          |
|          I HOPE YOU KNOW, WHAT YOU ARE  DOING                               |
|                                                                             |
 ----------------------------------------------------------------------------- 

  PAW_PBE Li_sv 10Sep2004               :
 energy of atom  1       EATOM= -202.7858
 kinetic energy error for atom=    0.0143 (will be added to EATOM!!)
  PAW_PBE Ti_pv 07Sep2000               :
 energy of atom  2       EATOM=-1042.5995
 kinetic energy error for atom=    0.0024 (will be added to EATOM!!)
  PAW_PBE O 08Apr2002                   :
 energy of atom  3       EATOM= -432.3788
 kinetic energy error for atom=    0.0224 (will be added to EATOM!!)
  PAW_PBE F 08Apr2002                   :
 energy of atom  4       EATOM= -659.6475
 kinetic energy error for atom=    0.0354 (will be added to EATOM!!)
 
 
 POSCAR: config 07                               
  positions in direct lattice
  velocities in cartesian coordinates
 exchange correlation table for  LEXCH =       14
   RHO(1)=    0.500       N(1)  =     2000
   RHO(2)=  100.500       N(2)  =     4000

 VTST: version 3.2, (02/03/18)

 CHAIN: initializing optimizer
 
 OPT: Using VASP QUASI-newton optimizer
 CHAIN: Read ICHAIN            0
 
 POSCAR: config 07                               
  positions in direct lattice
  velocities in cartesian coordinates
 


--------------------------------------------------------------------------------------------------------


 ion  position               nearest neighbor table
   1  0.125  0.414  0.594-  77 2.02  66 2.07 173 2.09  37 2.76   5 2.81
   2  0.995  0.995  0.994- 118 1.87  68 1.88 103 1.89 171 2.03 212 2.03 130 2.05
   3  1.000  0.994  0.493-  67 1.83 119 1.83 172 1.95 193 1.96 213 1.97 131 2.03
   4  0.006  0.495  0.997-  89 1.84 117 1.85 138 1.95 132 1.97 214 2.02 194 2.02
   5  0.992  0.502  0.507- 104 1.81  66 1.88 215 1.91 223 1.97 137 2.00 173 2.06   1 2.81
   6  0.494  0.994  1.000- 101 1.83 121 1.85 140 1.95 133 1.96 216 2.02 174 2.03
   7  0.501  0.008  0.500- 112 1.77 191 1.90 134 1.92 139 1.92 175 1.93 225 2.02
   8  0.504  0.496  0.995- 120 1.88  70 1.88  90 1.88 192 2.03 217 2.05 135 2.05
   9  0.493  0.499  0.495- 102 1.83  69 1.84 224 1.96 218 1.97 136 2.01 176 2.03
  10  0.007  0.003  0.256-  91 1.84  67 1.86 219 1.94 227 1.97 130 2.00 197 2.06
  11  0.002  0.007  0.756-  68 1.80 113 1.85 177 1.95 198 1.98 131 2.04 228 2.04
  12  0.994  0.492  0.251- 122 1.81 107 1.84 137 1.96 132 1.97 220 2.03 178 2.03
  13  0.992  0.499  0.742- 108 1.81  66 1.85 226 1.93 221 1.96 138 2.01 179 2.07
  14  0.506  0.009  0.250- 114 1.82  92 1.84 133 1.92 139 1.97 195 2.00 231 2.05
  15  0.493  0.005  0.752- 105 1.81 115 1.83 140 1.93 134 2.00 232 2.01 180 2.03
  16  0.493  0.497  0.257- 106 1.84  69 1.84 229 1.95 222 2.00 135 2.01 181 2.04
  17  0.501  0.504  0.758-  70 1.80 116 1.87 182 1.95 196 1.99 230 2.03 136 2.07
  18  0.996  0.257  0.003- 117 1.83 110 1.88 141 1.92 146 1.98 183 2.01 212 2.02
  19  0.999  0.247  0.494-  74 1.88 213 2.00 202 2.02 184 2.02 142 2.03 223 2.06
  20  0.998  0.758  0.006- 118 1.81  71 1.86 203 1.95 185 1.98 148 2.04 214 2.05
  21  0.998  0.759  0.506- 119 1.81  72 1.84 204 1.95 186 1.97 147 2.01 215 2.05
  22  0.495  0.258  0.001- 120 1.80 109 1.84 150 1.96 143 1.97 187 2.03 216 2.07
  23  0.509  0.245  0.499-  93 1.78 112 1.90 144 1.93 149 1.94 224 1.98 199 2.01
  24  0.507  0.756  0.999-  94 1.82 121 1.83 152 1.94 145 1.99 217 2.01 200 2.02
  25  0.507  0.753  0.509-  73 1.79  95 1.83 225 1.95 218 1.96 201 2.01 151 2.07
  26  0.999  0.257  0.258-  74 1.78 122 1.84 209 1.96 188 1.98 219 2.03 141 2.04
  27  0.007  0.242  0.749- 113 1.80  96 1.84 142 1.95 146 1.96 210 2.04 226 2.06
  28  0.007  0.748  0.243-  71 1.82  97 1.84 220 1.94 227 1.98 147 2.05 211 2.06
  29  0.993  0.751  0.743- 111 1.83  72 1.83 228 1.93 221 1.99 189 2.02 148 2.02
  30  0.508  0.242  0.252-  98 1.81 114 1.83 143 1.93 149 1.96 229 2.01 205 2.03
  31  0.507  0.243  0.750-  99 1.83 115 1.84 150 1.93 144 1.97 206 2.02 230 2.02
  32  0.507  0.752  0.252- 100 1.79 151 1.92 231 1.93 145 1.94 222 1.94 207 2.00
  33  0.502  0.742  0.744- 116 1.81  73 1.84 190 1.93 208 1.97 152 2.02 232 2.06
  34  0.256  0.998  0.006-  75 1.84 101 1.86 246 1.94 233 1.96 171 2.01 157 2.04
  35  0.250  0.994  0.507- 128 1.83  76 1.84 172 1.94 191 1.98 234 2.02 156 2.02
  36  0.243  0.508  0.998- 123 1.82  89 1.84 159 1.95 153 1.98 192 2.02 245 2.03
  37  0.257  0.496  0.506- 102 1.83 127 1.89  77 1.91 235 2.01 158 2.02 173 2.06   1 2.76
  38  0.757  0.000  0.994- 103 1.79  81 1.87 236 1.95 249 1.96 154 2.04 174 2.05
  39  0.750  0.006  0.494- 124 1.83  80 1.83 193 1.92 175 1.99 155 2.00 250 2.02
  40  0.742  0.500  0.005-  90 1.80  78 1.86 237 1.95 247 1.96 161 2.05 194 2.05
  41  0.754  0.497  0.506-  79 1.84 104 1.87 248 1.93 238 1.98 176 2.00 160 2.02
  42  0.245  0.002  0.244-  75 1.83  91 1.84 239 1.94 252 1.97 156 2.04 195 2.06
  43  0.258  0.998  0.745- 105 1.84  76 1.84 253 1.93 240 1.97 177 2.01 157 2.02
  44  0.255  0.492  0.252- 129 1.82 106 1.84 158 1.95 153 1.97 178 2.03 241 2.04
  45  0.247  0.506  0.742- 125 1.81  77 1.83 179 1.96 196 1.97 251 2.03 159 2.04
  46  0.745  0.000  0.256-  92 1.85  80 1.86 256 1.95 242 1.95 154 2.00 197 2.00
  47  0.748  0.006  0.756-  81 1.82 126 1.83 180 1.95 198 1.97 257 2.04 155 2.05
  48  0.756  0.499  0.243-  78 1.82 107 1.84 243 1.95 254 1.96 181 2.03 160 2.06
  49  0.757  0.498  0.742-  79 1.84 108 1.84 255 1.93 244 1.97 161 2.02 182 2.03
  50  0.257  0.252  0.006- 109 1.83  82 1.85 245 1.94 233 1.97 168 2.02 183 2.04
  51  0.253  0.257  0.506- 127 1.84  83 1.86 184 1.93 199 1.95 167 2.03 234 2.04
  52  0.252  0.742  0.994- 123 1.81  86 1.84 200 1.94 185 1.96 162 2.03 246 2.03
  53  0.251  0.756  0.493-  85 1.83 128 1.85 201 1.95 186 1.97 235 2.02 163 2.04
  54  0.757  0.251  0.007- 110 1.81  84 1.85 236 1.94 247 1.94 170 2.03 187 2.04
  55  0.744  0.242  0.497- 124 1.82  93 1.86 169 1.93 202 1.94 164 1.97 248 2.03
  56  0.742  0.749  0.994-  94 1.82  88 1.83 237 1.94 249 1.95 203 2.01 165 2.04
  57  0.742  0.751  0.494-  95 1.81  87 1.86 250 1.93 238 1.96 166 2.02 204 2.02
  58  0.251  0.258  0.244- 129 1.83  82 1.83 205 1.96 188 1.97 239 2.03 167 2.03
  59  0.245  0.252  0.745-  83 1.84  96 1.85 251 1.94 240 1.97 168 2.02 206 2.04
  60  0.244  0.748  0.256-  97 1.82  85 1.85 241 1.94 252 1.98 162 2.03 207 2.06
  61  0.248  0.742  0.757-  86 1.83 125 1.83 189 1.93 208 1.97 253 2.03 163 2.03
  62  0.742  0.251  0.242-  84 1.80  98 1.83 254 1.94 242 1.95 209 2.01 169 2.06
  63  0.744  0.242  0.750- 126 1.81  99 1.84 170 1.94 164 1.98 210 2.02 255 2.05
  64  0.745  0.750  0.257-  87 1.82 100 1.90 243 1.93 256 1.94 211 1.98 165 2.02
  65  0.758  0.750  0.757- 111 1.82  88 1.84 257 1.93 244 1.97 190 2.03 166 2.05
  66  0.019  0.489  0.625-  13 1.85   5 1.88   1 2.07
  67  0.996  0.009  0.376-   3 1.83  10 1.86
  68  1.000  0.006  0.872-  11 1.80   2 1.88
  69  0.496  0.493  0.376-   9 1.84  16 1.84
  70  0.491  0.497  0.874-  17 1.80   8 1.88
  71  0.999  0.749  0.126-  28 1.82  20 1.86
  72  0.001  0.751  0.625-  29 1.83  21 1.84
  73  0.501  0.753  0.625-  25 1.79  33 1.84
  74  0.992  0.247  0.372-  26 1.78  19 1.88
  75  0.255  0.001  0.126-  42 1.83  34 1.84
  76  0.254  0.001  0.625-  35 1.84  43 1.84
  77  0.229  0.486  0.626-  45 1.83  37 1.91   1 2.02
  78  0.747  0.492  0.125-  48 1.82  40 1.86
  79  0.741  0.493  0.624-  41 1.84  49 1.84
  80  0.750  0.999  0.376-  39 1.83  46 1.86
  81  0.746  0.998  0.873-  47 1.82  38 1.87
  82  0.246  0.252  0.126-  58 1.83  50 1.85
  83  0.253  0.255  0.626-  59 1.84  51 1.86
  84  0.740  0.259  0.125-  62 1.80  54 1.85
  85  0.254  0.744  0.375-  53 1.83  60 1.85
  86  0.251  0.748  0.875-  61 1.83  52 1.84
  87  0.752  0.751  0.374-  64 1.82  57 1.86
  88  0.748  0.752  0.875-  56 1.83  65 1.84
  89  0.125  0.504  0.992-  36 1.84   4 1.84
  90  0.625  0.508  0.995-  40 1.80   8 1.88
  91  0.125  0.004  0.252-  10 1.84  42 1.84
  92  0.625  0.002  0.249-  14 1.84  46 1.85
  93  0.624  0.253  0.494-  23 1.78  55 1.86
  94  0.625  0.741  0.003-  56 1.82  24 1.82
  95  0.624  0.758  0.496-  57 1.81  25 1.83
  96  0.125  0.257  0.749-  27 1.84  59 1.85
  97  0.126  0.751  0.252-  60 1.82  28 1.84
  98  0.625  0.244  0.262-  30 1.81  62 1.83
  99  0.625  0.255  0.749-  31 1.83  63 1.84
 100  0.623  0.754  0.251-  32 1.79  64 1.90
 101  0.376  0.999  0.992-   6 1.83  34 1.86
 102  0.376  0.501  0.510-   9 1.83  37 1.83
 103  0.873  0.001  1.000-  38 1.79   2 1.89
 104  0.875  0.496  0.506-   5 1.81  41 1.87
 105  0.376  0.999  0.757-  15 1.81  43 1.84
 106  0.374  0.496  0.246-  16 1.84  44 1.84
 107  0.875  0.497  0.250-  48 1.84  12 1.84
 108  0.875  0.510  0.739-  13 1.81  49 1.84
 109  0.376  0.249  0.004-  50 1.83  22 1.84
 110  0.874  0.249  0.006-  54 1.81  18 1.88
 111  0.875  0.740  0.750-  65 1.82  29 1.83
 112  0.506  0.122  0.495-   7 1.77  23 1.90
 113  0.001  0.126  0.740-  27 1.80  11 1.85
 114  0.494  0.125  0.263-  14 1.82  30 1.83
 115  0.504  0.123  0.747-  15 1.83  31 1.84
 116  0.503  0.625  0.750-  33 1.81  17 1.87
 117  0.001  0.376  0.000-  18 1.83   4 1.85
 118  0.003  0.875  0.998-  20 1.81   2 1.87
 119  0.001  0.875  0.495-  21 1.81   3 1.83
 120  0.503  0.374  0.007-  22 1.80   8 1.88
 121  0.505  0.875  0.004-  24 1.83   6 1.85
 122  0.008  0.376  0.247-  12 1.81  26 1.84
 123  0.256  0.625  0.006-  52 1.81  36 1.82
 124  0.745  0.124  0.504-  55 1.82  39 1.83
 125  0.246  0.624  0.744-  45 1.81  61 1.83
 126  0.748  0.124  0.744-  63 1.81  47 1.83
 127  0.241  0.375  0.496-  51 1.84  37 1.89
 128  0.250  0.876  0.498-  35 1.83  53 1.85
 129  0.242  0.375  0.259-  44 1.82  58 1.83
 130  1.000  0.998  0.127-  10 2.00   2 2.05
 131  0.005  0.990  0.625-   3 2.03  11 2.04
 132  0.004  0.508  0.124-  12 1.97   4 1.97
 133  0.493  0.008  0.126-  14 1.92   6 1.96
 134  0.496  0.994  0.623-   7 1.92  15 2.00
 135  0.504  0.508  0.127-  16 2.01   8 2.05
 136  0.512  0.501  0.624-   9 2.01  17 2.07
 137  1.000  0.499  0.378-  12 1.96   5 2.00
 138  0.992  0.503  0.872-   4 1.95  13 2.01
 139  0.504  0.989  0.377-   7 1.92  14 1.97
 140  0.515  0.000  0.875-  15 1.93   6 1.95
 141  0.009  0.248  0.126-  18 1.92  26 2.04
 142  0.002  0.266  0.624-  27 1.95  19 2.03
 143  0.509  0.239  0.127-  30 1.93  22 1.97
 144  0.496  0.247  0.623-  23 1.93  31 1.97
 145  0.496  0.745  0.127-  32 1.94  24 1.99
 146  0.996  0.245  0.875-  27 1.96  18 1.98
 147  0.994  0.746  0.376-  21 2.01  28 2.05
 148  0.002  0.746  0.874-  29 2.02  20 2.04
 149  0.491  0.263  0.376-  23 1.94  30 1.96
 150  0.500  0.252  0.875-  31 1.93  22 1.96
 151  0.493  0.754  0.376-  32 1.92  25 2.07
 152  0.499  0.752  0.874-  24 1.94  33 2.02
 153  0.242  0.492  0.125-  44 1.97  36 1.98
 154  0.750  0.003  0.126-  46 2.00  38 2.04
 155  0.746  0.995  0.623-  39 2.00  47 2.05
 156  0.252  0.003  0.376-  35 2.02  42 2.04
 157  0.243  0.997  0.875-  43 2.02  34 2.04
 158  0.252  0.512  0.377-  44 1.95  37 2.02
 159  0.262  0.503  0.873-  36 1.95  45 2.04
 160  0.750  0.507  0.376-  41 2.02  48 2.06
 161  0.757  0.506  0.873-  49 2.02  40 2.05
 162  0.252  0.756  0.125-  60 2.03  52 2.03
 163  0.249  0.754  0.625-  61 2.03  53 2.04
 164  0.747  0.261  0.623-  55 1.97  63 1.98
 165  0.752  0.748  0.126-  64 2.02  56 2.04
 166  0.747  0.748  0.624-  57 2.02  65 2.05
 167  0.255  0.244  0.375-  51 2.03  58 2.03
 168  0.252  0.248  0.875-  59 2.02  50 2.02
 169  0.762  0.242  0.373-  55 1.93  62 2.06
 170  0.753  0.245  0.876-  63 1.94  54 2.03
 171  0.126  0.002  0.002-  34 2.01   2 2.03
 172  0.125  0.009  0.498-  35 1.94   3 1.95
 173  0.125  0.505  0.494-   5 2.06  37 2.06   1 2.09
 174  0.625  0.002  0.008-   6 2.03  38 2.05
 175  0.623  0.985  0.503-   7 1.93  39 1.99
 176  0.625  0.497  0.494-  41 2.00   9 2.03
 177  0.127  0.997  0.748-  11 1.95  43 2.01
 178  0.125  0.509  0.254-  44 2.03  12 2.03
 179  0.124  0.489  0.766-  45 1.96  13 2.07
 180  0.624  0.992  0.741-  47 1.95  15 2.03
 181  0.625  0.500  0.254-  48 2.03  16 2.04
 182  0.627  0.491  0.759-  17 1.95  49 2.03
 183  0.125  0.250  0.994-  18 2.01  50 2.04
 184  0.129  0.237  0.501-  51 1.93  19 2.02
 185  0.125  0.744  0.001-  52 1.96  20 1.98
 186  0.124  0.745  0.496-  21 1.97  53 1.97
 187  0.626  0.249  0.993-  22 2.03  54 2.04
 188  0.125  0.237  0.256-  58 1.97  26 1.98
 189  0.124  0.756  0.751-  61 1.93  29 2.02
 190  0.626  0.756  0.750-  33 1.93  65 2.03
 191  0.377  0.003  0.495-   7 1.90  35 1.98
 192  0.373  0.495  0.010-  36 2.02   8 2.03
 193  0.874  0.999  0.508-  39 1.92   3 1.96
 194  0.875  0.497  0.002-   4 2.02  40 2.05
 195  0.377  0.995  0.257-  14 2.00  42 2.06
 196  0.374  0.501  0.735-  45 1.97  17 1.99
 197  0.874  0.998  0.247-  46 2.00  10 2.06
 198  0.874  0.997  0.742-  47 1.97  11 1.98
 199  0.379  0.249  0.498-  51 1.95  23 2.01
 200  0.376  0.758  0.001-  52 1.94  24 2.02
 201  0.377  0.745  0.503-  53 1.95  25 2.01
 202  0.869  0.255  0.508-  55 1.94  19 2.02
 203  0.872  0.755  0.999-  20 1.95  56 2.01
 204  0.872  0.746  0.503-  21 1.95  57 2.02
 205  0.378  0.258  0.246-  58 1.96  30 2.03
 206  0.376  0.247  0.753-  31 2.02  59 2.04
 207  0.377  0.749  0.248-  32 2.00  60 2.06
 208  0.375  0.752  0.749-  33 1.97  61 1.97
 209  0.873  0.257  0.240-  26 1.96  62 2.01
 210  0.874  0.251  0.746-  63 2.02  27 2.04
 211  0.873  0.748  0.249-  64 1.98  28 2.06
 212  0.003  0.126  0.004-  18 2.02   2 2.03
 213  0.991  0.120  0.517-   3 1.97  19 2.00
 214  0.993  0.625  0.997-   4 2.02  20 2.05
 215  0.997  0.626  0.501-   5 1.91  21 2.05
 216  0.503  0.125  0.997-   6 2.02  22 2.07
 217  0.489  0.627  0.999-  24 2.01   8 2.05
 218  0.505  0.626  0.497-  25 1.96   9 1.97
 219  0.991  0.127  0.242-  10 1.94  26 2.03
 220  0.998  0.623  0.255-  28 1.94  12 2.03
 221  0.013  0.624  0.749-  13 1.96  29 1.99
 222  0.501  0.626  0.256-  32 1.94  16 2.00
 223  0.019  0.378  0.499-   5 1.97  19 2.06
 224  0.498  0.372  0.508-   9 1.96  23 1.98
 225  0.490  0.877  0.498-  25 1.95   7 2.02
 226  0.992  0.375  0.758-  13 1.93  27 2.06
 227  0.996  0.876  0.255-  10 1.97  28 1.98
 228  0.997  0.875  0.754-  29 1.93  11 2.04
 229  0.505  0.372  0.240-  16 1.95  30 2.01
 230  0.494  0.373  0.744-  31 2.02  17 2.03
 231  0.497  0.876  0.245-  32 1.93  14 2.05
 232  0.500  0.875  0.754-  15 2.01  33 2.06
 233  0.247  0.125  0.996-  34 1.96  50 1.97
 234  0.258  0.124  0.500-  35 2.02  51 2.04
 235  0.249  0.626  0.510-  37 2.01  53 2.02
 236  0.745  0.126  0.002-  54 1.94  38 1.95
 237  0.762  0.625  0.003-  56 1.94  40 1.95
 238  0.747  0.624  0.502-  57 1.96  41 1.98
 239  0.261  0.127  0.252-  42 1.94  58 2.03
 240  0.248  0.125  0.754-  43 1.97  59 1.97
 241  0.252  0.624  0.240-  60 1.94  44 2.04
 242  0.759  0.126  0.247-  62 1.95  46 1.95
 243  0.746  0.625  0.247-  64 1.93  48 1.95
 244  0.737  0.624  0.747-  49 1.97  65 1.97
 245  0.248  0.376  0.994-  50 1.94  36 2.03
 246  0.245  0.873  0.000-  34 1.94  52 2.03
 247  0.747  0.375  0.987-  54 1.94  40 1.96
 248  0.748  0.373  0.488-  41 1.93  55 2.03
 249  0.744  0.875  0.008-  56 1.95  38 1.96
 250  0.758  0.875  0.503-  57 1.93  39 2.02
 251  0.258  0.376  0.760-  59 1.94  45 2.03
 252  0.254  0.875  0.254-  42 1.97  60 1.98
 253  0.250  0.873  0.749-  43 1.93  61 2.03
 254  0.746  0.374  0.265-  62 1.94  48 1.96
 255  0.758  0.374  0.758-  49 1.93  63 2.05
 256  0.753  0.875  0.243-  64 1.94  46 1.95
 257  0.754  0.875  0.744-  65 1.93  47 2.04
 

IMPORTANT INFORMATION: All symmetrisations will be switched off!
NOSYMM: (Re-)initialisation of all symmetry stuff for point group C_1.

 
 
 KPOINTS: Title                                   

Automatic generation of k-mesh.
Space group operators:
 irot       det(A)        alpha          n_x          n_y          n_z        tau_x        tau_y        tau_z
    1     1.000000     0.000001     1.000000     0.000000     0.000000     0.000000     0.000000     0.000000
 
 Subroutine IBZKPT returns following result:
 ===========================================
 
 Found      4 irreducible k-points:
 
 Following reciprocal coordinates:
            Coordinates               Weight
  0.250000  0.250000  0.250000      2.000000
 -0.250000  0.250000  0.250000      2.000000
  0.250000 -0.250000  0.250000      2.000000
 -0.250000 -0.250000  0.250000      2.000000
 
 Following cartesian coordinates:
            Coordinates               Weight
  0.016206  0.016206  0.016206      2.000000
 -0.016206  0.016206  0.016206      2.000000
  0.016206 -0.016206  0.016206      2.000000
 -0.016206 -0.016206  0.016206      2.000000
 


--------------------------------------------------------------------------------------------------------




 Dimension of arrays:
   k-points           NKPTS =      4   k-points in BZ     NKDIM =      4   number of bands    NBANDS=   1164
   number of dos      NEDOS =   3001   number of ions     NIONS =    257
   non local maximal  LDIM  =      6   non local SUM 2l+1 LMDIM =     18
   total plane-waves  NPLWV = ******
   max r-space proj   IRMAX =   7595   max aug-charges    IRDMAX= 146383
   dimension x,y,z NGX =   120 NGY =  120 NGZ =  120
   dimension x,y,z NGXF=   240 NGYF=  240 NGZF=  240
   support grid    NGXF=   480 NGYF=  480 NGZF=  480
   ions per type =               1  64  64 128
   NGX,Y,Z   is equivalent  to a cutoff of  12.93, 12.93, 12.93 a.u.
   NGXF,Y,Z  is equivalent  to a cutoff of  25.86, 25.86, 25.86 a.u.

 SYSTEM =  LTO                                     
 POSCAR =  config 07                               

 Startparameter for this run:
   NWRITE =      2    write-flag & timer
   PREC   = accura    normal or accurate (medium, high low for compatibility)
   ISTART =      1    job   : 0-new  1-cont  2-samecut
   ICHARG =      0    charge: 1-file 2-atom 10-const
   ISPIN  =      2    spin polarized calculation?
   LNONCOLLINEAR =      F non collinear calculations
   LSORBIT =      F    spin-orbit coupling
   INIWAV =      1    electr: 0-lowe 1-rand  2-diag
   LASPH  =      T    aspherical Exc in radial PAW
   METAGGA=      F    non-selfconsistent MetaGGA calc.

 Electronic Relaxation 1
   ENCUT  =  500.0 eV  36.75 Ry    6.06 a.u.  28.13 28.13 28.13*2*pi/ulx,y,z
   ENINI  =  500.0     initial cutoff
   ENAUG  =  628.9 eV  augmentation charge cutoff
   NELM   =     60;   NELMIN=  2; NELMDL=  0     # of ELM steps 
   EDIFF  = 0.1E-05   stopping-criterion for ELM
   LREAL  =      T    real-space projection
   NLSPLINE    = F    spline interpolate recip. space projectors
   LCOMPAT=      F    compatible to vasp.4.4
   GGA_COMPAT  = T    GGA compatible to vasp.4.4-vasp.4.6
   LMAXPAW     = -100 max onsite density
   LMAXMIX     =    4 max onsite mixed and CHGCAR
   VOSKOWN=      0    Vosko Wilk Nusair interpolation
   ROPT   =   -0.00010  -0.00010  -0.00010  -0.00010
 Ionic relaxation
   EDIFFG = -.5E-01   stopping-criterion for IOM
   NSW    =    100    number of steps for IOM
   NBLOCK =      1;   KBLOCK =    100    inner block; outer block 
   IBRION =      1    ionic relax: 0-MD 1-quasi-New 2-CG
   NFREE  =      0    steps in history (QN), initial steepest desc. (CG)
   ISIF   =      2    stress and relaxation
   IWAVPR =     11    prediction:  0-non 1-charg 2-wave 3-comb
   ISYM   =      0    0-nonsym 1-usesym 2-fastsym
   LCORR  =      T    Harris-Foulkes like correction to forces

   POTIM  = 0.5000    time-step for ionic-motion
   TEIN   =    0.0    initial temperature
   TEBEG  =    0.0;   TEEND  =   0.0 temperature during run
   SMASS  =  -3.00    Nose mass-parameter (am)
   estimated Nose-frequenzy (Omega)   =  0.10E-29 period in steps =****** mass=  -0.544E-26a.u.
   SCALEE = 1.0000    scale energy and forces
   NPACO  =    256;   APACO  = 16.0  distance and # of slots for P.C.
   PSTRESS=    0.0 pullay stress

  Mass of Ions in am
   POMASS =   7.01 47.88 16.00 19.00
  Ionic Valenz
   ZVAL   =   3.00 10.00  6.00  7.00
  Atomic Wigner-Seitz radii
   RWIGS  =  -1.00 -1.00 -1.00 -1.00
  virtual crystal weights 
   VCA    =   1.00  1.00  1.00  1.00
   NELECT =    1923.0000    total number of electrons
   NUPDOWN=       1.0000    fix difference up-down

 DOS related values:
   EMIN   =  10.00;   EMAX   =-10.00  energy-range for DOS
   EFERMI =   0.00
   ISMEAR =     0;   SIGMA  =   0.01  broadening in eV -4-tet -1-fermi 0-gaus

 Electronic relaxation 2 (details)
   IALGO  =     38    algorithm
   LDIAG  =      T    sub-space diagonalisation (order eigenvalues)
   LSUBROT=      F    optimize rotation matrix (better conditioning)
   TURBO    =      0    0=normal 1=particle mesh
   IRESTART =      0    0=no restart 2=restart with 2 vectors
   NREBOOT  =      0    no. of reboots
   NMIN     =      0    reboot dimension
   EREF     =   0.00    reference energy to select bands
   IMIX   =      4    mixing-type and parameters
     AMIX     =   0.40;   BMIX     =  1.00
     AMIX_MAG =   1.60;   BMIX_MAG =  1.00
     AMIN     =   0.10
     WC   =   100.;   INIMIX=   1;  MIXPRE=   1;  MAXMIX= -45

 Intra band minimization:
   WEIMIN = 0.0010     energy-eigenvalue tresh-hold
   EBREAK =  0.21E-09  absolut break condition
   DEPER  =   0.30     relativ break condition  

   TIME   =   0.40     timestep for ELM

  volume/ion in A,a.u.               =      14.28        96.39
  Fermi-wavevector in a.u.,A,eV,Ry     =   1.319690  2.493853 23.695660  1.741582
  Thomas-Fermi vector in A             =   2.449570
 
 Write flags
   LWAVE        =      T    write WAVECAR
   LDOWNSAMPLE  =      F    k-point downsampling of WAVECAR
   LCHARG       =      T    write CHGCAR
   LVTOT        =      F    write LOCPOT, total local potential
   LVHAR        =      F    write LOCPOT, Hartree potential only
   LELF         =      F    write electronic localiz. function (ELF)
   LORBIT       =     11    0 simple, 1 ext, 2 COOP (PROOUT), +10 PAW based schemes


 Dipole corrections
   LMONO  =      F    monopole corrections only (constant potential shift)
   LDIPOL =      F    correct potential (dipole corrections)
   IDIPOL =      0    1-x, 2-y, 3-z, 4-all directions 
   EPSILON=  1.0000000 bulk dielectric constant

 LDA+U is selected, type is set to LDAUTYPE =  2
   angular momentum for each species LDAUL =    -1    2   -1   -1
   U (eV)           for each species LDAUU =   0.0  4.2  0.0  0.0
   J (eV)           for each species LDAUJ =   0.0  0.0  0.0  0.0
 Exchange correlation treatment:
   GGA     =    PS    GGA type
   LEXCH   =    14    internal setting for exchange type
   VOSKOWN=      0    Vosko Wilk Nusair interpolation
   LHFCALC =     F    Hartree Fock is set to
   LHFONE  =     F    Hartree Fock one center treatment
   AEXX    =    0.0000 exact exchange contribution

 Linear response parameters
   LEPSILON=     F    determine dielectric tensor
   LRPA    =     F    only Hartree local field effects (RPA)
   LNABLA  =     F    use nabla operator in PAW spheres
   LVEL    =     F    velocity operator in full k-point grid
   LINTERFAST=   F  fast interpolation
   KINTER  =     0    interpolate to denser k-point grid
   CSHIFT  =0.1000    complex shift for real part using Kramers Kronig
   OMEGAMAX=  -1.0    maximum frequency
   DEG_THRESHOLD= 0.2000000E-02 threshold for treating states as degnerate
   RTIME   =   -0.100 relaxation time in fs
  (WPLASMAI=    0.000 imaginary part of plasma frequency in eV, 0.658/RTIME)
   DFIELD  = 0.0000000 0.0000000 0.0000000 field for delta impulse in time
 
 Orbital magnetization related:
   ORBITALMAG=     F  switch on orbital magnetization
   LCHIMAG   =     F  perturbation theory with respect to B field
   DQ        =  0.001000  dq finite difference perturbation B field
   LLRAUG    =     F  two centre corrections for induced B field



--------------------------------------------------------------------------------------------------------


 quasi-Newton-method for relaxation of ions
 charge density and potential will be updated during run
 spin polarized calculation
 Variant of blocked Davidson
 Davidson routine will perform the subspace rotation
 perform sub-space diagonalisation
    after iterative eigenvector-optimisation
 modified Broyden-mixing scheme, WC =      100.0
 initial mixing is a Kerker type mixing with AMIX =  0.4000 and BMIX =      1.0000
 Hartree-type preconditioning will be used
 using additional bands          202
 real space projection scheme for non local part
 use partial core corrections
 calculate Harris-corrections to forces 
   (improved forces if not selfconsistent)
 use gradient corrections 
 use of overlap-Matrix (Vanderbilt PP)
 Gauss-broadening in eV      SIGMA  =   0.01


--------------------------------------------------------------------------------------------------------


  energy-cutoff  :      500.00
  volume of cell :     3671.03
      direct lattice vectors                 reciprocal lattice vectors
    15.426331000  0.000000000  0.000000000     0.064824228  0.000000000  0.000000000
     0.000000000 15.426331000  0.000000000     0.000000000  0.064824228  0.000000000
     0.000000000  0.000000000 15.426331000     0.000000000  0.000000000  0.064824228

  length of vectors
    15.426331000 15.426331000 15.426331000     0.064824228  0.064824228  0.064824228


 
 old parameters found on file WAVECAR:
  energy-cutoff  :      500.00
  volume of cell :     3671.03
      direct lattice vectors                 reciprocal lattice vectors
    15.426331000  0.000000000  0.000000000     0.064824228  0.000000000  0.000000000
     0.000000000 15.426331000  0.000000000     0.000000000  0.064824228  0.000000000
     0.000000000  0.000000000 15.426331000     0.000000000  0.000000000  0.064824228

  length of vectors

 
 k-points in units of 2pi/SCALE and weight: Title                                   
   0.01620606  0.01620606  0.01620606       0.250
  -0.01620606  0.01620606  0.01620606       0.250
   0.01620606 -0.01620606  0.01620606       0.250
  -0.01620606 -0.01620606  0.01620606       0.250
 
 k-points in reciprocal lattice and weights: Title                                   
   0.25000000  0.25000000  0.25000000       0.250
  -0.25000000  0.25000000  0.25000000       0.250
   0.25000000 -0.25000000  0.25000000       0.250
  -0.25000000 -0.25000000  0.25000000       0.250
 
 position of ions in fractional coordinates (direct lattice) 
   0.12484466  0.41376025  0.59441313
   0.99529084  0.99536849  0.99399578
   0.99980590  0.99430942  0.49336648
   0.00558905  0.49541671  0.99710368
   0.99184408  0.50246875  0.50676433
   0.49424801  0.99430914  0.99965975
   0.50054864  0.00771749  0.49969622
   0.50392683  0.49552264  0.99538529
   0.49341534  0.49854413  0.49522468
   0.00655882  0.00304224  0.25598857
   0.00177541  0.00747107  0.75612921
   0.99416872  0.49223416  0.25086953
   0.99214237  0.49865969  0.74189668
   0.50594659  0.00866051  0.25038161
   0.49299591  0.00523966  0.75195146
   0.49266295  0.49678078  0.25666369
   0.50082031  0.50410035  0.75796931
   0.99557037  0.25718876  0.00260544
   0.99854603  0.24673281  0.49421247
   0.99811277  0.75801726  0.00584550
   0.99791504  0.75895926  0.50571161
   0.49498003  0.25814897  0.00106075
   0.50907271  0.24525020  0.49886006
   0.50737439  0.75637688  0.99926259
   0.50662338  0.75254814  0.50911086
   0.99888226  0.25724947  0.25783333
   0.00667664  0.24221987  0.74867010
   0.00660082  0.74818014  0.24319617
   0.99277930  0.75070498  0.74322160
   0.50829036  0.24207702  0.25157933
   0.50698815  0.24296600  0.75015126
   0.50662731  0.75157365  0.25201487
   0.50213173  0.74198962  0.74368969
   0.25642399  0.99820578  0.00627212
   0.24977800  0.99393886  0.50658116
   0.24348193  0.50769703  0.99783201
   0.25731323  0.49572357  0.50641697
   0.75713764  0.00027598  0.99403007
   0.75029931  0.00596228  0.49427019
   0.74165671  0.50044646  0.00483495
   0.75382286  0.49665530  0.50584701
   0.24466304  0.00233962  0.24406424
   0.25767745  0.99788685  0.74460828
   0.25504214  0.49212531  0.25169407
   0.24710460  0.50626912  0.74159654
   0.74453892  0.00045770  0.25551246
   0.74796659  0.00610823  0.75587463
   0.75609503  0.49871819  0.24252671
   0.75671528  0.49804984  0.74228325
   0.25720373  0.25161017  0.00635566
   0.25265644  0.25656119  0.50578741
   0.25201053  0.74188023  0.99442143
   0.25125501  0.75572612  0.49317824
   0.75712727  0.25106996  0.00683562
   0.74447174  0.24158393  0.49728764
   0.74180923  0.74935574  0.99392721
   0.74170237  0.75135453  0.49399634
   0.25075214  0.25790834  0.24400612
   0.24452785  0.25211742  0.74495705
   0.24365557  0.74783259  0.25623663
   0.24779285  0.74183648  0.75669809
   0.74242849  0.25102089  0.24157724
   0.74383644  0.24187263  0.75041183
   0.74545628  0.74991145  0.25662636
   0.75772966  0.75013636  0.75665889
   0.01860003  0.48948562  0.62517818
   0.99578485  0.00872698  0.37596724
   0.99968591  0.00555080  0.87245848
   0.49576467  0.49315823  0.37597835
   0.49070803  0.49701326  0.87393775
   0.99893754  0.74851665  0.12574564
   0.00130718  0.75124153  0.62483555
   0.50147839  0.75349339  0.62498005
   0.99161049  0.24680550  0.37239848
   0.25513970  0.00107070  0.12558551
   0.25440333  0.00103505  0.62548537
   0.22882853  0.48638606  0.62634432
   0.74737945  0.49183636  0.12511022
   0.74140971  0.49291607  0.62410188
   0.75006677  0.99895738  0.37562957
   0.74599105  0.99819749  0.87334820
   0.24593520  0.25233900  0.12583087
   0.25298768  0.25457131  0.62613816
   0.74017939  0.25899284  0.12539019
   0.25428750  0.74377635  0.37534153
   0.25120983  0.74778690  0.87501451
   0.75190136  0.75103062  0.37417072
   0.74788375  0.75209103  0.87531219
   0.12466324  0.50432921  0.99160610
   0.62548583  0.50778368  0.99485148
   0.12546430  0.00363855  0.25175143
   0.62475626  0.00166110  0.24915694
   0.62430827  0.25313779  0.49388346
   0.62453742  0.74100014  0.00343972
   0.62427002  0.75799347  0.49623454
   0.12508986  0.25701422  0.74917583
   0.12550010  0.75082668  0.25214163
   0.62539402  0.24449756  0.26178673
   0.62524083  0.25477165  0.74895128
   0.62266453  0.75362968  0.25084532
   0.37599279  0.99891749  0.99218937
   0.37590711  0.50081784  0.51032761
   0.87298833  0.00096515  0.99985842
   0.87494160  0.49594782  0.50586749
   0.37602433  0.99943831  0.75720931
   0.37412584  0.49568996  0.24634622
   0.87495322  0.49721357  0.24970286
   0.87543206  0.51017307  0.73850264
   0.37583563  0.24898823  0.00392076
   0.87419909  0.24917049  0.00605782
   0.87482375  0.74035656  0.74980340
   0.50615484  0.12215549  0.49546005
   0.00109480  0.12604916  0.73955732
   0.49422431  0.12512794  0.26264203
   0.50373388  0.12349521  0.74725463
   0.50330177  0.62503760  0.74959962
   0.00082271  0.37556137  0.00031126
   0.00260839  0.87469937  0.99766433
   0.00119836  0.87545502  0.49477552
   0.50328384  0.37443575  0.00718146
   0.50512183  0.87521058  0.00383496
   0.00781666  0.37559368  0.24718204
   0.25620268  0.62499216  0.00575592
   0.74450519  0.12385648  0.50396247
   0.24553507  0.62387755  0.74435004
   0.74833255  0.12447245  0.74425951
   0.24142570  0.37462716  0.49590102
   0.24951959  0.87561328  0.49791932
   0.24161820  0.37502022  0.25856062
   0.99990001  0.99818703  0.12653312
   0.00475454  0.99025306  0.62500729
   0.00356094  0.50776060  0.12447819
   0.49322665  0.00757853  0.12631725
   0.49634369  0.99415655  0.62310905
   0.50443106  0.50816317  0.12737719
   0.51162859  0.50059555  0.62439975
   0.99970514  0.49879051  0.37761871
   0.99151330  0.50288924  0.87202884
   0.50416482  0.98933463  0.37671367
   0.51535412  0.00039819  0.87503575
   0.00928227  0.24825480  0.12621999
   0.00186197  0.26647383  0.62444777
   0.50902646  0.23874050  0.12663189
   0.49609112  0.24712538  0.62302232
   0.49568062  0.74508549  0.12697157
   0.99559241  0.24531876  0.87499678
   0.99429587  0.74631707  0.37579317
   0.00209001  0.74632367  0.87394508
   0.49122480  0.26321038  0.37571850
   0.49950647  0.25210991  0.87452332
   0.49274488  0.75410053  0.37577261
   0.49892263  0.75161872  0.87409425
   0.24168757  0.49162458  0.12487266
   0.74960789  0.00336116  0.12619804
   0.74584277  0.99517620  0.62316975
   0.25204411  0.00335077  0.37594196
   0.24336961  0.99690155  0.87451867
   0.25218231  0.51246258  0.37652950
   0.26213701  0.50259931  0.87307843
   0.75027569  0.50729260  0.37565080
   0.75671294  0.50568428  0.87301649
   0.25216448  0.75643576  0.12532654
   0.24860687  0.75403315  0.62541267
   0.74746685  0.26086333  0.62330968
   0.75246995  0.74770923  0.12580682
   0.74734302  0.74768265  0.62447792
   0.25465878  0.24392286  0.37511631
   0.25194030  0.24836067  0.87547513
   0.76215428  0.24245954  0.37328956
   0.75317817  0.24489979  0.87551851
   0.12622950  0.00218537  0.00208498
   0.12541490  0.00899078  0.49840150
   0.12456044  0.50479657  0.49389072
   0.62507131  0.00246797  0.00799829
   0.62344212  0.98511824  0.50265131
   0.62484540  0.49689640  0.49440320
   0.12719212  0.99700236  0.74785627
   0.12475681  0.50912617  0.25354542
   0.12376567  0.48908886  0.76594456
   0.62352579  0.99197931  0.74108679
   0.62467030  0.49970316  0.25374400
   0.62654662  0.49084791  0.75873709
   0.12541937  0.24972431  0.99403104
   0.12885743  0.23698457  0.50148869
   0.12531337  0.74425382  0.00111650
   0.12424231  0.74515281  0.49640239
   0.62586798  0.24858296  0.99285110
   0.12540075  0.23661301  0.25618887
   0.12353110  0.75555652  0.75135067
   0.62643447  0.75588067  0.75011859
   0.37733276  0.00261519  0.49505866
   0.37317712  0.49482306  0.00969988
   0.87379268  0.99902998  0.50847904
   0.87457198  0.49703811  0.00178092
   0.37709822  0.99540975  0.25703477
   0.37423015  0.50107471  0.73452693
   0.87372565  0.99797374  0.24716998
   0.87431099  0.99735272  0.74221138
   0.37891022  0.24934815  0.49822769
   0.37642957  0.75785354  0.00116489
   0.37673731  0.74494386  0.50297060
   0.86884951  0.25487462  0.50814195
   0.87216122  0.75539046  0.99865320
   0.87235396  0.74630262  0.50335074
   0.37802167  0.25821641  0.24605004
   0.37626184  0.24673725  0.75288375
   0.37688802  0.74894605  0.24782551
   0.37498439  0.75190032  0.74898309
   0.87288682  0.25687154  0.23966603
   0.87443641  0.25071022  0.74577524
   0.87347080  0.74773485  0.24922752
   0.00304631  0.12647026  0.00368141
   0.99105092  0.11962315  0.51712662
   0.99288132  0.62545787  0.99654044
   0.99743965  0.62609076  0.50053455
   0.50349776  0.12460225  0.99682342
   0.48875016  0.62719218  0.99889028
   0.50485659  0.62601810  0.49701550
   0.99118472  0.12684799  0.24172139
   0.99813170  0.62344260  0.25518293
   0.01349187  0.62352858  0.74877801
   0.50070590  0.62586517  0.25645768
   0.01928515  0.37828189  0.49909571
   0.49796182  0.37248456  0.50806906
   0.48969647  0.87730892  0.49803532
   0.99229569  0.37462758  0.75835305
   0.99616805  0.87552617  0.25490255
   0.99676811  0.87521991  0.75362542
   0.50516895  0.37209812  0.23996845
   0.49421081  0.37334535  0.74387394
   0.49668516  0.87611527  0.24533185
   0.50009378  0.87496899  0.75397147
   0.24711537  0.12474965  0.99614818
   0.25751443  0.12437253  0.49998847
   0.24946635  0.62577772  0.51026080
   0.74462166  0.12604067  0.00239223
   0.76165445  0.62530344  0.00263750
   0.74656738  0.62444933  0.50234656
   0.26079752  0.12670583  0.25195824
   0.24765561  0.12474526  0.75440133
   0.25232468  0.62358949  0.23958775
   0.75890884  0.12595494  0.24700009
   0.74622917  0.62491206  0.24684771
   0.73711806  0.62419788  0.74725182
   0.24849866  0.37633393  0.99425670
   0.24470444  0.87345588  0.00036513
   0.74718567  0.37510527  0.98685989
   0.74824335  0.37293928  0.48772648
   0.74420203  0.87473483  0.00794675
   0.75765228  0.87527951  0.50330015
   0.25792596  0.37636161  0.76033038
   0.25358050  0.87546591  0.25393650
   0.24955091  0.87304264  0.74931338
   0.74599236  0.37430809  0.26496941
   0.75778917  0.37395597  0.75775645
   0.75324295  0.87503651  0.24330715
   0.75415307  0.87470463  0.74414775
 
 position of ions in cartesian coordinates  (Angst):
   1.92589510  6.38280254  9.16961376
  15.35368587 15.35488385 15.33370795
  15.42333680 15.33854621  7.61083461
   0.08621851  7.64246214 15.38165137
  15.30051512  7.75124919  7.81751431
   7.62443340 15.33854192 15.42108216
   7.72162904  0.11905252  7.70847926
   7.77374202  7.64409629 15.35514298
   7.61158835  7.69070671  7.63949976
   0.10117856  0.04693057  3.94896448
   0.02738808  0.11525117 11.66429952
  15.33637575  7.59336712  3.86999645
  15.30511655  7.69248936 11.44474369
   7.80489950  0.13359984  3.86246962
   7.60511805  0.08082879 11.59985216
   7.59998176  7.66350482  3.95937898
   7.72581987  7.77641885 11.69268539
  15.35799805  3.96747893  0.04019240
  15.40390160  3.80618195  7.62388514
  15.39721801 11.69342514  0.09017459
  15.39416768 11.70795673  7.80127474
   7.63572585  3.98229152  0.01636350
   7.85312410  3.78331084  7.69558040
   7.82692530 11.66812006 15.41495547
   7.81533988 11.60905674  7.85371270
  15.40908838  3.96841547  3.97742234
   0.10299607  3.73656393 11.54923270
   0.10182639 11.54167443  3.75162464
  15.31494202 11.58062353 11.46518240
   7.84105541  3.73436027  3.88094600
   7.82096706  3.74807389 11.57208169
   7.81540060 11.59402393  3.88766478
   7.74605034 11.44617755 11.47240328
   3.95568132 15.39865280  0.09675578
   3.85315808 15.33282980  7.81468863
   3.75603289  7.83190247 15.39288688
   3.96939909  7.64719591  7.81215587
  11.67985586  0.00425739 15.33423682
  11.57436556  0.09197606  7.62477553
  11.44104184  7.72005275  0.07458551
  11.62872101  7.66156898  7.80336343
   3.77425311  0.03609174  3.76501575
   3.97501771 15.39373292 11.48657379
   3.93436450  7.59168793  3.88271608
   3.81191728  7.80987499 11.44011364
  11.48550381  0.00706065  3.94161972
  11.53838018  0.09422759 11.66037222
  11.66377227  7.69339194  3.74129723
  11.67334031  7.68308171 11.45070704
   3.96770995  3.88142171  0.09804449
   3.89756186  3.95779779  7.80244395
   3.88759792 11.44449003 15.34027409
   3.87594292 11.65808128  7.60793081
  11.67969593  3.87308831  0.10544851
  11.48446752  3.72675362  7.67132370
  11.44339479 11.55980962 15.33265009
  11.44174622 11.59064362  7.62055105
   3.86818547  3.97857942  3.76411924
   3.77216761  3.88924679 11.49195408
   3.75871144 11.53631307  3.95279109
   3.82253455 11.44381512 11.67307514
  11.45294760  3.87233131  3.72665051
  11.47466708  3.73120721 11.57610123
  11.49965530 11.56838223  3.95880322
  11.68898851 11.57185186 11.67247051
   0.28693026  7.55096723  9.64420554
  15.36130672  0.13462529  5.79979501
  15.42148581  0.08562855 13.45883322
   7.64782996  7.60762214  5.79996651
   7.56982447  7.66709103 13.48165308
  15.40994118 11.54686555  1.93979382
   0.02016494 11.58890050  9.63891995
   7.73597159 11.62363849  9.64114915
  15.29691165  3.80730334  5.74474215
   3.93586947  0.01651693  1.93732371
   3.92450995  0.01596707  9.64894440
   3.52998465  7.50315229  9.66219485
  11.52932271  7.58723052  1.92999164
  11.43723155  7.60388642  9.62760215
  11.57077826 15.41024721  5.79458613
  11.50790484 15.39852494 13.47255834
   3.79387780  3.89266501  1.94110861
   3.90267162  3.92710124  9.65901445
  11.41825226  3.99530931  1.93431059
   3.92272307 11.47374014  5.79014261
   3.87524602 11.53560824 13.49826344
  11.59907929 11.58564686  5.77208132
  11.53710224 11.60200513 13.50285564
   1.92309638  7.77994925 15.29684391
   9.64895140  7.83323920 15.34690818
   1.93545381  0.05612940  3.88360089
   9.63769685  0.02562472  3.84357743
   9.63078602  3.90498738  7.61880980
   9.63432098 11.43091344  0.05306221
   9.63019592 11.69305822  7.65507832
   1.92967757  3.96478639 11.55703437
   1.93600604 11.58250094  3.88962024
   9.64753519  3.77170036  4.03840882
   9.64517197  3.93019185 11.55357035
   9.60542913 11.62574082  3.86962293
   5.80018923 15.40963189 15.30584162
   5.79886756  7.72578175  7.87248260
  13.46700694  0.01488878 15.42414701
  13.49713880  7.65065524  7.80367929
   5.80067572 15.41766612 11.68096141
   5.77138907  7.64667745  3.80021831
  13.49731795  7.67018111  3.85199897
  13.50470470  7.87009859 11.39238613
   5.79776476  3.84097478  0.06048301
  13.48568460  3.84378644  0.09344990
  13.49532081 11.42098530 11.56671540
   7.80811203  1.88441096  7.64313076
   0.01688870  1.94447604 11.40865605
   7.62406772  1.93026506  4.05160292
   7.77076552  1.90507796 11.52739730
   7.76409962  9.64203690 11.56357187
   0.01269139  5.79353408  0.00480160
   0.04023786 13.49340206 15.39030018
   0.01848628 13.50505885  7.63257087
   7.76382316  5.77616985  0.11078355
   7.79217661 13.50128813  0.05915938
   0.12058237  5.79403248  3.81311190
   3.95226742  9.64133589  0.08879265
  11.48498343  1.91065100  7.77429185
   3.78770527  9.62414154 11.48259009
  11.54402554  1.92015314 11.48119362
   3.72431273  5.77912253  7.64993330
   3.84917186 13.50750027  7.68106830
   3.72728232  5.78518604  3.98864164
  15.42478856 15.39836345  1.95194180
   0.07334508 15.27597147  9.64156926
   0.05493224  7.83288314  1.92024179
   7.60867756  0.11690890  1.94861177
   7.65676198 15.33618797  9.61228647
   7.78152054  7.83909324  1.96496274
   7.89255191  7.72235260  9.63219718
  15.42178242  7.69450744  5.82527114
  15.29541232  7.75773591 13.45220551
   7.77741342 15.26180351  5.81130974
   7.95002323  0.00614258 13.49859108
   0.14319134  3.82966075  1.94711136
   0.02872331  4.11071356  9.63293796
   7.85241060  3.68289005  1.95346542
   7.65286589  3.81223792  9.61094850
   7.64653339 11.49393545  1.95870553
  15.35833813  3.78436843 13.49798992
  15.33833718 11.51293415  5.79710990
   0.03224117 11.51303598 13.48176601
   7.57779640  4.06037038  5.79595791
   7.70555216  3.88913087 13.49068617
   7.60124559 11.63300431  5.79679261
   7.69654568 11.59471912 13.48406715
   3.72835253  7.58396345  1.92632693
  11.56369942  0.05185038  1.94677275
  11.50561746 15.35191740  9.61322284
   3.88811588  0.05169008  5.79940514
   3.75430015 15.37853326 13.49061449
   3.89024776  7.90541738  5.80846873
   4.04381229  7.75326335 13.46839679
  11.57400108  7.82566349  5.79491352
  11.67330424  7.80085314 13.46744131
   3.88997276 11.66902839  1.93332872
   3.83509194 11.63196490  9.64782282
  11.53067101  4.02416406  9.61538150
  11.60785058 11.53441012  1.94073763
  11.52876076 11.53400006  9.63340304
   3.92845062  3.76283473  5.78666836
   3.88651451  3.83129391 13.50536913
  11.75724426  3.74026110  5.75848835
  11.61877574  3.77790529 13.50603839
   1.94725803  0.03371218  0.03216358
   1.93469178  0.13869470  7.68850648
   1.92151053  7.78715905  7.61892173
   9.64255685  0.03807167  0.12338419
   9.61742449 15.19676010  7.75406549
   9.63907199  7.66528829  7.62682735
   1.96210769 15.38008844 11.53667829
   1.92453991  7.85394882  3.91127553
   1.90925015  7.54484672 11.81571427
   9.61871528 15.30260118 11.43225019
   9.63637075  7.70858641  3.91433898
   9.66531557  7.57198225 11.70452944
   1.93476074  3.85232992 15.33425177
   1.98779735  3.65580241  7.73613060
   1.93312556 11.48110585  0.01722352
   1.91660306 11.49497392  7.65766751
   9.65484667  3.83472305 15.31604972
   1.93447354  3.65007062  3.95205433
   1.90563167 11.65546495 11.59058412
   9.66358553 11.66046544 11.57157773
   5.82086001  0.04034272  7.63693879
   5.75675380  7.63330429  0.14963360
  13.47941505 15.41136722  7.84396594
  13.49143692  7.66747441  0.02747312
   5.81724199 15.35552024  3.96510344
   5.77299822  7.72974428 11.33105551
  13.47838110 15.39507323  3.81292587
  13.48741079 15.38549325 11.44959835
   5.84519448  3.84652703  7.68582523
   5.80692710 11.69089955  0.01796997
   5.81167448 11.49175062  7.75899103
  13.40316010  3.93178032  7.83876592
  13.45424766 11.65290324 15.40555482
  13.45722091 11.51271130  7.76485506
   5.83148745  3.98333188  3.79564930
   5.80433974  3.80625046 11.61423394
   5.81399940 11.55348973  3.82303839
   5.78463338 11.59906328 11.55406108
  13.46544108  3.96258545  3.69716746
  13.48934546  3.86753880 11.50457563
  13.47444973 11.53480528  3.84466625
   0.04699340  1.95097213  0.05679061
  15.28827960  1.84534626  7.97736645
  15.31651581  9.64852018 15.37296267
  15.38683414  9.65828330  7.72141170
   7.76712304  1.92215556 15.37732808
   7.53962180  9.67527418 15.40921208
   7.78808479  9.65716243  7.66712562
  15.29034359  1.95679914  3.72887421
  15.39751006  9.61743191  3.93653639
   0.20813012  9.61875820 11.55089744
   7.72405492  9.65480320  3.95620107
   0.29749906  5.83550161  7.69921564
   7.68172384  5.74607012  7.83764146
   7.55421984 13.53365776  7.68285765
  15.30748174  5.77912912 11.69860524
  15.36721799 13.50615648  3.93221110
  15.37647487 13.50143198 11.62567518
   7.79290349  5.74010884  3.70183279
   7.62385959  5.75934889 11.47524566
   7.66202968 13.51524415  3.78457033
   7.71461217 13.49756118 11.63101351
   3.81208353  1.92442937 15.36691160
   3.97250287  1.91861177  7.71298769
   3.84835056  9.65345421  7.87145197
  11.48678022  1.94434504  0.03690339
  11.74953364  9.64613784  0.04068690
  11.51679548  9.63296199  7.74936437
   4.02314889  1.95460605  3.88679116
   3.82041739  1.92436163 11.63764468
   3.89244402  9.61969784  3.69595997
  11.70717902  1.94302264  3.81030513
  11.51157812  9.64010024  3.80795455
  11.37102725  9.62908308 11.52735395
   3.83342259  5.80545183 15.33773297
   3.77489170 13.47421959  0.00563265
  11.52633345  5.78649806 15.22362725
  11.54264957  5.75308470  7.52383017
  11.48030691 13.49394898  0.12258923
  11.68779481 13.50235141  7.76407470
   3.97885116  5.80587873 11.72910813
   3.91181678 13.50522697  3.91730844
   3.84965487 13.46784473 11.55915630
  11.50792503  5.77420044  4.08750589
  11.68990653  5.76876860 11.68940182
  11.61977508 13.49860291  3.75333668
  11.63381489 13.49348313 11.47946956
 


--------------------------------------------------------------------------------------------------------


 k-point  1 :   0.2500 0.2500 0.2500  plane waves:   93161
 k-point  2 :  -0.2500 0.2500 0.2500  plane waves:   93161
 k-point  3 :   0.2500-0.2500 0.2500  plane waves:   93161
 k-point  4 :  -0.2500-0.2500 0.2500  plane waves:   93161

 maximum and minimum number of plane-waves per node :     11686    11606

 maximum number of plane-waves:     93161
 maximum index in each direction: 
   IXMAX=   28   IYMAX=   28   IZMAX=   27
   IXMIN=  -28   IYMIN=  -28   IZMIN=  -28


 real space projection operators:
  total allocation   :     105563.87 KBytes
  max/ min on nodes  :      13246.60      13150.40


 parallel 3D FFT for wavefunctions:
    minimum data exchange during FFTs selected (reduces bandwidth)
 parallel 3D FFT for charge:
    minimum data exchange during FFTs selected (reduces bandwidth)


 total amount of memory used by VASP MPI-rank0   291465. kBytes
=======================================================================

   base      :      30000. kBytes
   nonlr-proj:      49430. kBytes
   fftplans  :      27976. kBytes
   grid      :      34041. kBytes
   one-center:       1026. kBytes
   wavefun   :     148992. kBytes
 
     INWAV:  cpu time   54.1862: real time   54.5385
 Broyden mixing: mesh for mixing (old mesh)
   NGX = 57   NGY = 57   NGZ = 57
  (NGX  =240   NGY  =240   NGZ  =240)
  gives a total of 185193 points

 charge density for first step will be calculated from the start-wavefunctions


--------------------------------------------------------------------------------------------------------


 Maximum index for non-local projection operator          970
 Maximum index for augmentation-charges         3293 (set IRDMAX)


--------------------------------------------------------------------------------------------------------


 initial charge from wavefunction
 First call to EWALD:  gamma=   0.115
 Maximum number of real-space cells 3x 3x 3
 Maximum number of reciprocal cells 3x 3x 3

    FEWALD:  cpu time    0.0447: real time    0.0447


--------------------------------------- Iteration      1(   1)  ---------------------------------------


    POTLOK:  cpu time    0.2784: real time    0.2910
    SETDIJ:  cpu time    1.4157: real time    1.4421
     EDDAV:  cpu time  132.6578: real time  133.8015
       DOS:  cpu time    0.0029: real time    0.0029
    CHARGE:  cpu time    5.3082: real time    5.3115
    MIXING:  cpu time    0.0110: real time    0.0112
    --------------------------------------------
      LOOP:  cpu time  139.6740: real time  140.8603

 eigenvalue-minimisations  : 23112
 total energy-change (2. order) :-0.1855859E+04  (-0.3544516E+03)
 number of electron    1923.0000031 magnetization       1.0000000
 augmentation part      504.2514610 magnetization       0.4938397

 Broyden mixing:
  rms(total) = 0.82680E+01    rms(broyden)= 0.82650E+01
  rms(prec ) = 0.12694E+02
  weight for this iteration     100.00

 Free energy of the ion-electron system (eV)
  ---------------------------------------------------
  alpha Z        PSCENC =      6118.73324990
  Ewald energy   TEWEN  =   -103238.07868681
  -Hartree energ DENC   =    -65375.28373269
  -exchange      EXHF   =         0.00000000
  -V(xc)+E(xc)   XCENC  =      8960.18456475
  PAW double counting   =    198479.12679518  -199475.35970457
  entropy T*S    EENTRO =        -0.00049918
  eigenvalues    EBANDS =    -25902.43349259
  atomic energy  EATOM  =    178577.25249613
  Solvation  Ediel_sol  =         0.00000000
  ---------------------------------------------------
  free energy    TOTEN  =     -1855.85900989 eV

  energy without entropy =    -1855.85851071  energy(sigma->0) =    -1855.85876030


--------------------------------------------------------------------------------------------------------




--------------------------------------- Iteration      1(   2)  ---------------------------------------


    POTLOK:  cpu time    0.2632: real time    0.2661
    SETDIJ:  cpu time    1.3860: real time    1.3870
     EDDAV:  cpu time  147.5690: real time  149.0371
       DOS:  cpu time    0.0028: real time    0.0028
    CHARGE:  cpu time    5.3067: real time    5.3104
    MIXING:  cpu time    0.0305: real time    0.0308
    --------------------------------------------
      LOOP:  cpu time  154.5583: real time  156.0343

 eigenvalue-minimisations  : 26532
 total energy-change (2. order) :-0.2258640E+02  (-0.3162190E+03)
 number of electron    1923.0000031 magnetization       1.0000000
 augmentation part      506.2974273 magnetization       0.5773706

 Broyden mixing:
  rms(total) = 0.98320E+01    rms(broyden)= 0.98278E+01
  rms(prec ) = 0.14641E+02
  weight for this iteration     100.00

 eigenvalues of (default mixing * dielectric matrix)
  average eigenvalue GAMMA=   0.4321
  0.4321

 Free energy of the ion-electron system (eV)
  ---------------------------------------------------
  alpha Z        PSCENC =      6118.73324990
  Ewald energy   TEWEN  =   -103238.07868681
  -Hartree energ DENC   =    -65461.02705455
  -exchange      EXHF   =         0.00000000
  -V(xc)+E(xc)   XCENC  =      8959.26123696
  PAW double counting   =    200187.07718451  -201158.05801610
  entropy T*S    EENTRO =        -0.00221311
  eigenvalues    EBANDS =    -25863.60360731
  atomic energy  EATOM  =    178577.25249613
  Solvation  Ediel_sol  =         0.00000000
  ---------------------------------------------------
  free energy    TOTEN  =     -1878.44541038 eV

  energy without entropy =    -1878.44319727  energy(sigma->0) =    -1878.44430382


--------------------------------------------------------------------------------------------------------




--------------------------------------- Iteration      1(   3)  ---------------------------------------


    POTLOK:  cpu time    0.2663: real time    0.2666
    SETDIJ:  cpu time    1.3958: real time    1.3969
     EDDAV:  cpu time  152.1389: real time  153.6938
       DOS:  cpu time    0.0016: real time    0.0016
    CHARGE:  cpu time    5.2961: real time    5.2996
    MIXING:  cpu time    0.0076: real time    0.0076
    --------------------------------------------
      LOOP:  cpu time  159.1064: real time  160.6660

 eigenvalue-minimisations  : 27432
 total energy-change (2. order) : 0.2713305E+02  (-0.1130824E+03)
 number of electron    1923.0000031 magnetization       1.0000000
 augmentation part      492.2946382 magnetization       0.5447351

 Broyden mixing:
  rms(total) = 0.56482E+01    rms(broyden)= 0.56459E+01
  rms(prec ) = 0.64767E+01
  weight for this iteration     100.00

 eigenvalues of (default mixing * dielectric matrix)
  average eigenvalue GAMMA=   0.4533
  0.4533  0.4533

 Free energy of the ion-electron system (eV)
  ---------------------------------------------------
  alpha Z        PSCENC =      6118.73324990
  Ewald energy   TEWEN  =   -103238.07868681
  -Hartree energ DENC   =    -65534.80852667
  -exchange      EXHF   =         0.00000000
  -V(xc)+E(xc)   XCENC  =      8961.31267473
  PAW double counting   =    200287.52229583  -201251.23560185
  entropy T*S    EENTRO =        -0.00000000
  eigenvalues    EBANDS =    -25772.01026018
  atomic energy  EATOM  =    178577.25249613
  Solvation  Ediel_sol  =         0.00000000
  ---------------------------------------------------
  free energy    TOTEN  =     -1851.31235893 eV

  energy without entropy =    -1851.31235893  energy(sigma->0) =    -1851.31235893


--------------------------------------------------------------------------------------------------------




--------------------------------------- Iteration      1(   4)  ---------------------------------------


    POTLOK:  cpu time    0.2661: real time    0.2670
    SETDIJ:  cpu time    1.3860: real time    1.3864
     EDDAV:  cpu time  142.5436: real time  143.3601
       DOS:  cpu time    0.0017: real time    0.0017
    CHARGE:  cpu time    5.1012: real time    5.2957
    MIXING:  cpu time    0.0281: real time    0.0326
    --------------------------------------------
      LOOP:  cpu time  149.3266: real time  150.3436

 eigenvalue-minimisations  : 25488
 total energy-change (2. order) : 0.4238161E+02  (-0.3058438E+02)
 number of electron    1923.0000031 magnetization       1.0000000
 augmentation part      493.6772886 magnetization       0.5611326

 Broyden mixing:
  rms(total) = 0.41740E+01    rms(broyden)= 0.41733E+01
  rms(prec ) = 0.48442E+01
  weight for this iteration     100.00

 eigenvalues of (default mixing * dielectric matrix)
  average eigenvalue GAMMA=   0.5927
  0.6510  0.6510  0.4762

 Free energy of the ion-electron system (eV)
  ---------------------------------------------------
  alpha Z        PSCENC =      6118.73324990
  Ewald energy   TEWEN  =   -103238.07868681
  -Hartree energ DENC   =    -65495.38917474
  -exchange      EXHF   =         0.00000000
  -V(xc)+E(xc)   XCENC  =      8967.12097650
  PAW double counting   =    200438.13946563  -201417.66929421
  entropy T*S    EENTRO =        -0.00000000
  eigenvalues    EBANDS =    -25759.03977809
  atomic energy  EATOM  =    178577.25249613
  Solvation  Ediel_sol  =         0.00000000
  ---------------------------------------------------
  free energy    TOTEN  =     -1808.93074569 eV

  energy without entropy =    -1808.93074569  energy(sigma->0) =    -1808.93074569


--------------------------------------------------------------------------------------------------------




--------------------------------------- Iteration      1(   5)  ---------------------------------------


    POTLOK:  cpu time    0.3038: real time    0.3347
    SETDIJ:  cpu time    1.4433: real time    1.4660
     EDDAV:  cpu time  147.3429: real time  148.1342
       DOS:  cpu time    0.0017: real time    0.0017
    CHARGE:  cpu time    5.2975: real time    5.3060
    MIXING:  cpu time    0.0571: real time    0.0712
    --------------------------------------------
      LOOP:  cpu time  154.4464: real time  155.3137

 eigenvalue-minimisations  : 26868
 total energy-change (2. order) : 0.3603149E+02  (-0.1014307E+02)
 number of electron    1923.0000031 magnetization       1.0000000
 augmentation part      494.3252295 magnetization       0.5799045

 Broyden mixing:
  rms(total) = 0.22298E+01    rms(broyden)= 0.22294E+01
  rms(prec ) = 0.26082E+01
  weight for this iteration     100.00

 eigenvalues of (default mixing * dielectric matrix)
  average eigenvalue GAMMA=   0.6943
  0.8803  0.8803  0.5083  0.5083

 Free energy of the ion-electron system (eV)
  ---------------------------------------------------
  alpha Z        PSCENC =      6118.73324990
  Ewald energy   TEWEN  =   -103238.07868681
  -Hartree energ DENC   =    -65503.78739735
  -exchange      EXHF   =         0.00000000
  -V(xc)+E(xc)   XCENC  =      8972.77828345
  PAW double counting   =    199965.86066717  -200960.45631752
  entropy T*S    EENTRO =        -0.00000000
  eigenvalues    EBANDS =    -25705.20154708
  atomic energy  EATOM  =    178577.25249613
  Solvation  Ediel_sol  =         0.00000000
  ---------------------------------------------------
  free energy    TOTEN  =     -1772.89925212 eV

  energy without entropy =    -1772.89925212  energy(sigma->0) =    -1772.89925212


--------------------------------------------------------------------------------------------------------




--------------------------------------- Iteration      1(   6)  ---------------------------------------


    POTLOK:  cpu time    0.3276: real time    0.3370
    SETDIJ:  cpu time    1.4139: real time    1.4393
     EDDAV:  cpu time  148.3622: real time  149.0773
       DOS:  cpu time    0.0018: real time    0.0018
    CHARGE:  cpu time    5.1740: real time    5.2449
    MIXING:  cpu time    0.0082: real time    0.0082
    --------------------------------------------
      LOOP:  cpu time  155.2877: real time  156.1085

 eigenvalue-minimisations  : 26784
 total energy-change (2. order) : 0.1194371E+02  (-0.5200938E+01)
 number of electron    1923.0000031 magnetization       1.0000000
 augmentation part      495.7015574 magnetization       0.5885274

 Broyden mixing:
  rms(total) = 0.14537E+01    rms(broyden)= 0.14534E+01
  rms(prec ) = 0.15677E+01
  weight for this iteration     100.00

 eigenvalues of (default mixing * dielectric matrix)
  average eigenvalue GAMMA=   0.7217
  0.9696  0.9696  0.4661  0.6015  0.6015

 Free energy of the ion-electron system (eV)
  ---------------------------------------------------
  alpha Z        PSCENC =      6118.73324990
  Ewald energy   TEWEN  =   -103238.07868681
  -Hartree energ DENC   =    -65445.10284149
  -exchange      EXHF   =         0.00000000
  -V(xc)+E(xc)   XCENC  =      8972.97033905
  PAW double counting   =    199515.98811245  -200519.16262402
  entropy T*S    EENTRO =        -0.00000000
  eigenvalues    EBANDS =    -25743.55558809
  atomic energy  EATOM  =    178577.25249613
  Solvation  Ediel_sol  =         0.00000000
  ---------------------------------------------------
  free energy    TOTEN  =     -1760.95554288 eV

  energy without entropy =    -1760.95554288  energy(sigma->0) =    -1760.95554288


--------------------------------------------------------------------------------------------------------




--------------------------------------- Iteration      1(   7)  ---------------------------------------


    POTLOK:  cpu time    0.3088: real time    0.3115
    SETDIJ:  cpu time    1.4302: real time    1.4306
     EDDAV:  cpu time  150.6016: real time  151.9892
       DOS:  cpu time    0.0018: real time    0.0018
    CHARGE:  cpu time    5.2272: real time    5.2308
    MIXING:  cpu time    0.0085: real time    0.0085
    --------------------------------------------
      LOOP:  cpu time  157.5782: real time  158.9724

 eigenvalue-minimisations  : 27372
 total energy-change (2. order) : 0.1346390E+01  (-0.9385873E+00)
 number of electron    1923.0000031 magnetization       1.0000000
 augmentation part      496.3383480 magnetization       0.5784327

 Broyden mixing:
  rms(total) = 0.10048E+01    rms(broyden)= 0.10044E+01
  rms(prec ) = 0.10823E+01
  weight for this iteration     100.00

 eigenvalues of (default mixing * dielectric matrix)
  average eigenvalue GAMMA=   0.8850
  1.3966  1.3966  0.7290  0.7290  0.5295  0.5295

 Free energy of the ion-electron system (eV)
  ---------------------------------------------------
  alpha Z        PSCENC =      6118.73324990
  Ewald energy   TEWEN  =   -103238.07868681
  -Hartree energ DENC   =    -65416.38170044
  -exchange      EXHF   =         0.00000000
  -V(xc)+E(xc)   XCENC  =      8971.92559607
  PAW double counting   =    199238.91461680  -200243.07340456
  entropy T*S    EENTRO =        -0.00000000
  eigenvalues    EBANDS =    -25768.90131955
  atomic energy  EATOM  =    178577.25249613
  Solvation  Ediel_sol  =         0.00000000
  ---------------------------------------------------
  free energy    TOTEN  =     -1759.60915247 eV

  energy without entropy =    -1759.60915247  energy(sigma->0) =    -1759.60915247


--------------------------------------------------------------------------------------------------------




--------------------------------------- Iteration      1(   8)  ---------------------------------------


    POTLOK:  cpu time    0.2643: real time    0.2646
    SETDIJ:  cpu time    1.3803: real time    1.3809
     EDDAV:  cpu time  142.6269: real time  143.6865
       DOS:  cpu time    0.0018: real time    0.0018
    CHARGE:  cpu time    5.2431: real time    5.2462
    MIXING:  cpu time    0.0086: real time    0.0086
    --------------------------------------------
      LOOP:  cpu time  149.5249: real time  150.5886

 eigenvalue-minimisations  : 25488
 total energy-change (2. order) : 0.3212501E+00  (-0.8472788E+00)
[...]
   81        1.574   3.461   0.000   5.035
   82        1.575   3.462   0.000   5.037
   83        1.573   3.461   0.000   5.034
   84        1.576   3.472   0.000   5.048
   85        1.575   3.462   0.000   5.037
   86        1.575   3.465   0.000   5.040
   87        1.576   3.463   0.000   5.039
   88        1.575   3.466   0.000   5.041
   89        1.575   3.461   0.000   5.036
   90        1.575   3.457   0.000   5.032
   91        1.574   3.461   0.000   5.035
   92        1.574   3.461   0.000   5.035
   93        1.578   3.472   0.000   5.050
   94        1.577   3.472   0.000   5.049
   95        1.576   3.476   0.000   5.052
   96        1.574   3.464   0.000   5.038
   97        1.575   3.466   0.000   5.041
   98        1.576   3.474   0.000   5.050
   99        1.575   3.464   0.000   5.039
  100        1.576   3.459   0.000   5.034
  101        1.574   3.459   0.000   5.033
  102        1.575   3.468   0.000   5.044
  103        1.576   3.459   0.000   5.035
  104        1.575   3.464   0.000   5.039
  105        1.577   3.472   0.000   5.049
  106        1.575   3.462   0.000   5.037
  107        1.574   3.463   0.000   5.037
  108        1.576   3.470   0.000   5.046
  109        1.575   3.463   0.000   5.038
  110        1.575   3.460   0.000   5.035
  111        1.576   3.472   0.000   5.049
  112        1.577   3.465   0.000   5.042
  113        1.576   3.472   0.000   5.048
  114        1.577   3.475   0.000   5.052
  115        1.574   3.465   0.000   5.040
  116        1.575   3.463   0.000   5.038
  117        1.575   3.461   0.000   5.036
  118        1.576   3.462   0.000   5.038
  119        1.577   3.476   0.000   5.053
  120        1.575   3.460   0.000   5.036
  121        1.574   3.463   0.000   5.038
  122        1.576   3.472   0.000   5.048
  123        1.577   3.473   0.000   5.051
  124        1.576   3.472   0.000   5.049
  125        1.576   3.474   0.000   5.050
  126        1.576   3.471   0.000   5.047
  127        1.571   3.463   0.000   5.034
  128        1.574   3.462   0.000   5.036
  129        1.577   3.470   0.000   5.047
  130        1.737   4.368   0.000   6.105
  131        1.737   4.369   0.000   6.106
  132        1.737   4.379   0.000   6.116
  133        1.738   4.387   0.000   6.125
  134        1.738   4.384   0.000   6.123
  135        1.737   4.367   0.000   6.104
  136        1.737   4.366   0.000   6.103
  137        1.737   4.380   0.000   6.117
  138        1.738   4.380   0.000   6.118
  139        1.739   4.388   0.000   6.127
  140        1.739   4.387   0.000   6.126
  141        1.739   4.379   0.000   6.118
  142        1.737   4.385   0.000   6.122
  143        1.738   4.386   0.000   6.124
  144        1.739   4.387   0.000   6.125
  145        1.738   4.382   0.000   6.120
  146        1.737   4.381   0.000   6.119
  147        1.736   4.369   0.000   6.105
  148        1.736   4.368   0.000   6.104
  149        1.739   4.385   0.000   6.124
  150        1.738   4.388   0.000   6.127
  151        1.738   4.376   0.000   6.114
  152        1.738   4.380   0.000   6.118
  153        1.737   4.380   0.000   6.117
  154        1.737   4.372   0.000   6.109
  155        1.737   4.372   0.000   6.109
  156        1.737   4.370   0.000   6.106
  157        1.737   4.368   0.000   6.105
  158        1.737   4.376   0.000   6.113
  159        1.738   4.375   0.000   6.113
  160        1.737   4.367   0.000   6.104
  161        1.736   4.368   0.000   6.104
  162        1.736   4.369   0.000   6.105
  163        1.736   4.368   0.000   6.104
  164        1.738   4.379   0.000   6.117
  165        1.737   4.369   0.000   6.106
  166        1.736   4.369   0.000   6.106
  167        1.737   4.369   0.000   6.106
  168        1.737   4.372   0.000   6.109
  169        1.738   4.376   0.000   6.114
  170        1.738   4.379   0.000   6.117
  171        1.737   4.370   0.000   6.106
  172        1.738   4.387   0.000   6.125
  173        1.737   4.377   0.000   6.115
  174        1.737   4.369   0.000   6.105
  175        1.739   4.384   0.000   6.122
  176        1.737   4.373   0.000   6.110
  177        1.738   4.380   0.000   6.118
  178        1.737   4.369   0.000   6.106
  179        1.738   4.372   0.000   6.110
  180        1.738   4.379   0.000   6.117
  181        1.736   4.368   0.000   6.104
  182        1.738   4.376   0.000   6.113
  183        1.737   4.369   0.000   6.105
  184        1.737   4.384   0.000   6.121
  185        1.737   4.382   0.000   6.119
  186        1.737   4.381   0.000   6.119
  187        1.737   4.370   0.000   6.107
  188        1.737   4.379   0.000   6.117
  189        1.738   4.381   0.000   6.119
  190        1.738   4.380   0.000   6.118
  191        1.739   4.388   0.000   6.127
  192        1.737   4.369   0.000   6.105
  193        1.739   4.389   0.000   6.128
  194        1.737   4.368   0.000   6.104
  195        1.737   4.370   0.000   6.107
  196        1.737   4.378   0.000   6.116
  197        1.737   4.369   0.000   6.106
  198        1.737   4.380   0.000   6.117
  199        1.738   4.382   0.000   6.120
  200        1.738   4.380   0.000   6.118
  201        1.738   4.381   0.000   6.119
  202        1.738   4.384   0.000   6.121
  203        1.738   4.380   0.000   6.118
  204        1.738   4.379   0.000   6.117
  205        1.737   4.377   0.000   6.114
  206        1.737   4.369   0.000   6.106
  207        1.737   4.369   0.000   6.106
  208        1.737   4.381   0.000   6.119
  209        1.737   4.379   0.000   6.116
  210        1.736   4.369   0.000   6.106
  211        1.737   4.371   0.000   6.108
  212        1.737   4.369   0.000   6.105
  213        1.737   4.383   0.000   6.120
  214        1.737   4.368   0.000   6.104
  215        1.739   4.379   0.000   6.118
  216        1.736   4.368   0.000   6.104
  217        1.737   4.367   0.000   6.104
  218        1.737   4.382   0.000   6.119
  219        1.738   4.378   0.000   6.116
  220        1.738   4.379   0.000   6.117
  221        1.738   4.379   0.000   6.117
  222        1.737   4.380   0.000   6.118
  223        1.737   4.384   0.000   6.121
  224        1.738   4.384   0.000   6.122
  225        1.738   4.382   0.000   6.120
  226        1.738   4.377   0.000   6.115
  227        1.737   4.378   0.000   6.115
  228        1.738   4.378   0.000   6.116
  229        1.738   4.379   0.000   6.116
  230        1.736   4.369   0.000   6.105
  231        1.738   4.377   0.000   6.115
  232        1.737   4.369   0.000   6.106
  233        1.738   4.381   0.000   6.118
  234        1.737   4.370   0.000   6.107
  235        1.737   4.371   0.000   6.108
  236        1.738   4.388   0.000   6.126
  237        1.739   4.386   0.000   6.125
  238        1.737   4.381   0.000   6.118
  239        1.738   4.377   0.000   6.115
  240        1.737   4.381   0.000   6.118
  241        1.738   4.376   0.000   6.114
  242        1.738   4.387   0.000   6.125
  243        1.738   4.387   0.000   6.126
  244        1.738   4.379   0.000   6.117
  245        1.738   4.378   0.000   6.116
  246        1.738   4.378   0.000   6.116
  247        1.738   4.386   0.000   6.124
  248        1.739   4.378   0.000   6.117
  249        1.738   4.386   0.000   6.124
  250        1.739   4.380   0.000   6.119
  251        1.738   4.378   0.000   6.117
  252        1.737   4.380   0.000   6.117
  253        1.738   4.380   0.000   6.118
  254        1.739   4.386   0.000   6.125
  255        1.738   4.376   0.000   6.114
  256        1.739   4.386   0.000   6.124
  257        1.738   4.378   0.000   6.116
--------------------------------------------------
tot        345.5361195.512 112.4771653.525
 


 magnetization (x)
 
# of ion       s       p       d       tot
------------------------------------------
    1        0.000   0.000   0.000   0.000
    2       -0.000  -0.000  -0.000  -0.000
    3       -0.000  -0.000   0.006   0.006
    4        0.000   0.000  -0.000   0.000
    5        0.000   0.000   0.004   0.004
    6       -0.000  -0.000  -0.000  -0.000
    7        0.000   0.000   0.000   0.000
    8       -0.000  -0.000  -0.000  -0.000
    9        0.000   0.000   0.000   0.000
   10       -0.000  -0.000  -0.000  -0.000
   11       -0.000  -0.000   0.000   0.000
   12        0.000  -0.000  -0.000  -0.000
   13       -0.000  -0.000   0.000   0.000
   14       -0.000  -0.000  -0.000  -0.000
   15       -0.000  -0.000   0.000   0.000
   16       -0.000  -0.000  -0.000  -0.000
   17        0.000  -0.000   0.000   0.000
   18       -0.000  -0.000  -0.000  -0.000
   19        0.005   0.006   0.924   0.936
   20       -0.000  -0.000  -0.000  -0.000
   21       -0.000   0.000   0.000   0.001
   22       -0.000  -0.000  -0.000  -0.000
   23        0.000   0.000   0.000   0.000
   24       -0.000  -0.000  -0.000  -0.000
   25        0.000   0.000   0.000   0.000
   26       -0.000  -0.000  -0.004  -0.004
   27       -0.000  -0.000   0.000   0.000
   28        0.000  -0.000  -0.000  -0.000
   29       -0.000  -0.000  -0.000  -0.000
   30       -0.000  -0.000  -0.000  -0.000
   31        0.000  -0.000   0.000   0.000
   32       -0.000  -0.000  -0.000  -0.000
   33       -0.000  -0.000  -0.000  -0.000
   34       -0.000  -0.000  -0.000  -0.000
   35        0.000   0.000   0.000   0.000
   36        0.000   0.000   0.000   0.000
   37        0.000   0.000   0.001   0.001
   38       -0.000  -0.000  -0.000  -0.000
   39        0.000   0.000   0.003   0.003
   40       -0.000  -0.000  -0.000  -0.000
   41        0.000   0.000   0.001   0.001
   42        0.000  -0.000  -0.000  -0.000
   43       -0.000  -0.000   0.000   0.000
   44       -0.000   0.000   0.000   0.000
   45       -0.000  -0.000   0.000   0.000
   46       -0.000  -0.000  -0.000  -0.000
   47       -0.000  -0.000   0.000  -0.000
   48        0.000   0.000   0.000   0.000
   49       -0.000  -0.000  -0.000  -0.000
   50       -0.000  -0.000   0.000   0.000
   51       -0.000  -0.000   0.004   0.004
   52       -0.000   0.000   0.000   0.000
   53        0.000   0.000   0.000   0.000
   54       -0.000  -0.000  -0.000  -0.000
   55       -0.000   0.000   0.008   0.008
   56       -0.000  -0.000  -0.000  -0.000
   57        0.000   0.000   0.000   0.000
   58        0.000   0.000   0.000   0.000
   59       -0.000  -0.000   0.000   0.000
   60       -0.000  -0.000  -0.000  -0.000
   61       -0.000  -0.000   0.000  -0.000
   62        0.000   0.000   0.000   0.000
   63        0.000  -0.000   0.000   0.000
   64       -0.000  -0.000  -0.000  -0.000
   65       -0.000  -0.000  -0.000  -0.000
   66       -0.000  -0.000   0.000  -0.000
   67       -0.000  -0.000   0.000  -0.000
   68       -0.000  -0.000   0.000  -0.000
   69       -0.000  -0.000   0.000  -0.000
   70        0.000   0.000   0.000   0.000
   71       -0.000  -0.000   0.000  -0.000
   72       -0.000  -0.000   0.000  -0.000
   73       -0.000  -0.000   0.000  -0.000
   74       -0.001  -0.018   0.000  -0.019
   75        0.000  -0.000   0.000  -0.000
   76       -0.000  -0.000   0.000  -0.000
   77       -0.000  -0.000   0.000  -0.000
   78       -0.000  -0.000   0.000  -0.000
   79       -0.000  -0.000   0.000  -0.000
   80       -0.000  -0.000   0.000  -0.000
   81        0.000   0.000   0.000   0.000
   82       -0.000  -0.000   0.000  -0.000
   83       -0.000  -0.000   0.000  -0.000
   84       -0.000  -0.000   0.000  -0.000
   85       -0.000  -0.000   0.000  -0.000
   86        0.000  -0.000   0.000  -0.000
   87       -0.000  -0.000   0.000  -0.000
   88        0.000   0.000   0.000   0.000
   89       -0.000  -0.000   0.000  -0.000
   90        0.000   0.000   0.000   0.000
   91       -0.000  -0.000   0.000  -0.000
   92       -0.000  -0.000   0.000  -0.000
   93       -0.000  -0.000   0.000  -0.000
   94        0.000   0.000   0.000   0.000
   95       -0.000  -0.000   0.000  -0.000
   96       -0.000  -0.000   0.000  -0.000
   97       -0.000  -0.000   0.000  -0.000
   98       -0.000  -0.000   0.000  -0.000
   99       -0.000  -0.000   0.000  -0.000
  100       -0.000   0.000   0.000   0.000
  101        0.000   0.000   0.000   0.000
  102       -0.000  -0.000   0.000  -0.000
  103       -0.000   0.000   0.000   0.000
  104       -0.000  -0.000   0.000  -0.001
  105       -0.000  -0.000   0.000  -0.000
  106       -0.000  -0.000   0.000  -0.000
  107        0.000   0.000   0.000   0.000
  108       -0.000  -0.000   0.000  -0.000
  109        0.000  -0.000   0.000  -0.000
  110        0.000   0.000   0.000   0.000
  111       -0.000  -0.000   0.000  -0.000
  112       -0.000  -0.000   0.000  -0.000
  113       -0.000  -0.000   0.000  -0.000
  114       -0.000   0.000   0.000   0.000
  115       -0.000  -0.000   0.000  -0.000
  116        0.000   0.000   0.000   0.000
  117        0.000   0.000   0.000   0.000
  118       -0.000   0.000   0.000   0.000
  119       -0.000  -0.001   0.000  -0.001
  120        0.000   0.000   0.000   0.000
  121        0.000   0.000   0.000   0.000
  122        0.000  -0.000   0.000  -0.000
  123        0.000  -0.000   0.000  -0.000
  124       -0.000  -0.001   0.000  -0.001
  125       -0.000  -0.000   0.000  -0.000
  126       -0.000  -0.000   0.000  -0.000
  127       -0.000   0.000   0.000   0.000
  128       -0.000  -0.000   0.000  -0.000
  129       -0.000  -0.000   0.000  -0.000
  130       -0.000  -0.000   0.000  -0.000
  131       -0.000  -0.000   0.000  -0.000
  132       -0.000  -0.000   0.000  -0.000
  133       -0.000  -0.000   0.000  -0.000
  134       -0.000  -0.000   0.000  -0.000
  135        0.000   0.000   0.000   0.000
  136       -0.000  -0.000   0.000  -0.000
  137       -0.000  -0.000   0.000  -0.000
  138        0.000  -0.000   0.000  -0.000
  139       -0.000  -0.000   0.000  -0.000
  140        0.000   0.000   0.000   0.000
  141       -0.000  -0.000   0.000  -0.000
  142       -0.000  -0.004   0.000  -0.004
  143        0.000   0.000   0.000   0.000
  144       -0.000  -0.000   0.000  -0.000
  145       -0.000   0.000   0.000   0.000
  146       -0.000  -0.000   0.000  -0.000
  147       -0.000  -0.000   0.000  -0.000
  148       -0.000  -0.000   0.000  -0.000
  149       -0.000  -0.000   0.000  -0.000
  150       -0.000   0.000   0.000   0.000
  151        0.000   0.000   0.000   0.000
  152       -0.000   0.000   0.000   0.000
  153        0.000   0.000   0.000   0.000
  154       -0.000  -0.000   0.000  -0.000
  155       -0.000  -0.000   0.000  -0.000
  156       -0.000  -0.000   0.000  -0.000
  157       -0.000   0.000   0.000   0.000
  158       -0.000  -0.000   0.000  -0.000
  159        0.000  -0.000   0.000  -0.000
  160       -0.000  -0.000   0.000  -0.000
  161       -0.000  -0.000   0.000  -0.000
  162        0.000   0.000   0.000   0.000
  163       -0.000  -0.000   0.000  -0.000
  164       -0.000  -0.000   0.000  -0.000
  165       -0.000   0.000   0.000   0.000
  166       -0.000  -0.000   0.000  -0.000
  167       -0.000  -0.000   0.000  -0.000
  168       -0.000  -0.000   0.000  -0.000
  169       -0.000  -0.000   0.000  -0.000
  170        0.000  -0.000   0.000  -0.000
  171       -0.000   0.000   0.000   0.000
  172        0.000   0.000   0.000   0.000
  173        0.000  -0.000   0.000  -0.000
  174       -0.000   0.000   0.000   0.000
  175       -0.000  -0.000   0.000  -0.000
  176       -0.000  -0.000   0.000  -0.000
  177       -0.000  -0.000   0.000  -0.000
  178        0.000   0.000   0.000   0.000
  179       -0.000  -0.000   0.000  -0.000
  180       -0.000  -0.000   0.000  -0.000
  181       -0.000  -0.000   0.000  -0.000
  182        0.000  -0.000   0.000  -0.000
  183        0.000  -0.000   0.000  -0.000
  184       -0.000   0.002   0.000   0.002
  185        0.000   0.000   0.000   0.000
  186       -0.000  -0.000   0.000  -0.000
  187       -0.000  -0.000   0.000  -0.000
  188       -0.000  -0.000   0.000  -0.000
  189       -0.000  -0.000   0.000  -0.000
  190       -0.000   0.000   0.000   0.000
  191        0.000   0.000   0.000   0.000
  192        0.000   0.000   0.000   0.000
  193        0.000  -0.000   0.000  -0.000
  194        0.000  -0.000   0.000  -0.000
  195        0.000   0.000   0.000   0.000
  196       -0.000  -0.000   0.000  -0.000
  197       -0.000  -0.000   0.000  -0.000
  198       -0.000   0.000   0.000   0.000
  199        0.000  -0.000   0.000  -0.000
  200        0.000   0.000   0.000   0.000
  201       -0.000  -0.000   0.000  -0.000
  202       -0.000   0.002   0.000   0.001
  203        0.000   0.000   0.000   0.000
  204       -0.000  -0.000   0.000  -0.000
  205       -0.000  -0.000   0.000  -0.000
  206       -0.000  -0.000   0.000  -0.000
  207       -0.000   0.000   0.000   0.000
  208        0.000   0.000   0.000   0.000
  209       -0.000  -0.000   0.000  -0.000
  210        0.000  -0.000   0.000  -0.000
  211       -0.000   0.000   0.000   0.000
  212       -0.000  -0.000   0.000  -0.000
  213       -0.000   0.002   0.000   0.002
  214       -0.000  -0.000   0.000  -0.000
  215        0.000   0.000   0.000   0.000
  216        0.000   0.000   0.000   0.000
  217       -0.000   0.000   0.000   0.000
  218        0.000   0.000   0.000   0.000
  219       -0.000  -0.000   0.000  -0.000
  220        0.000  -0.000   0.000  -0.000
  221       -0.000  -0.000   0.000  -0.000
  222        0.000   0.000   0.000   0.000
  223       -0.000   0.002   0.000   0.001
  224       -0.000  -0.000   0.000  -0.000
  225       -0.000  -0.000   0.000  -0.000
  226       -0.000  -0.000   0.000  -0.000
  227       -0.000  -0.000   0.000  -0.000
  228       -0.000  -0.000   0.000  -0.000
  229       -0.000   0.000   0.000   0.000
  230       -0.000  -0.000   0.000  -0.000
  231       -0.000   0.000   0.000   0.000
  232        0.000   0.000   0.000   0.000
  233       -0.000   0.000   0.000   0.000
  234        0.000   0.000   0.000   0.000
  235        0.000   0.000   0.000   0.000
  236        0.000   0.000   0.000   0.000
  237        0.000   0.000   0.000   0.000
  238        0.000   0.000   0.000   0.000
  239        0.000   0.000   0.000   0.000
  240       -0.000  -0.000   0.000  -0.000
  241        0.000  -0.000   0.000   0.000
  242       -0.000   0.000   0.000   0.000
  243       -0.000   0.000   0.000   0.000
  244        0.000   0.000   0.000   0.000
  245       -0.000  -0.000   0.000  -0.000
  246        0.000   0.000   0.000   0.000
  247        0.000   0.000   0.000   0.000
  248        0.000  -0.000   0.000  -0.000
  249       -0.000   0.000   0.000   0.000
  250       -0.000  -0.000   0.000  -0.000
  251       -0.000  -0.000   0.000  -0.000
  252        0.000   0.000   0.000   0.000
  253        0.000  -0.000   0.000  -0.000
  254        0.000  -0.000   0.000  -0.000
  255       -0.000  -0.000   0.000  -0.000
  256       -0.000  -0.000   0.000  -0.000
  257       -0.000   0.000   0.000   0.000
--------------------------------------------------
tot          0.002  -0.015   0.951   0.938
 

 total amount of memory used by VASP MPI-rank0   291465. kBytes
=======================================================================

   base      :      30000. kBytes
   nonlr-proj:      49430. kBytes
   fftplans  :      27976. kBytes
   grid      :      34041. kBytes
   one-center:       1026. kBytes
   wavefun   :     148992. kBytes
 
  
  
 General timing and accounting informations for this job:
 ========================================================
  
                  Total CPU time used (sec):     4160.924
                            User time (sec):     3760.717
                          System time (sec):      400.207
                         Elapsed time (sec):     4204.003
  
                   Maximum memory used (kb):      621612.
                   Average memory used (kb):           0.
  
                          Minor page faults:       222587
                          Major page faults:           19
                 Voluntary context switches:        30494
