 running on   96 total cores
 distrk:  each k-point on   96 cores,    1 groups
 distr:  one band on    8 cores,   12 groups
 using from now: INCAR     
 vasp.5.4.4.18Apr17-6-g9f103f2a35 (build Jul 16 2019 12:12:28) complex          
  
 POSCAR found type information on POSCAR  Li Ti O  F 
 POSCAR found :  4 types and     257 ions
 scaLAPACK will be used

 ----------------------------------------------------------------------------- 
|                                                                             |
|  ADVICE TO THIS USER RUNNING 'VASP/VAMP'   (HEAR YOUR MASTER'S VOICE ...):  |
|                                                                             |
|      You enforced a specific xc-type in the INCAR file,                     |
|      a different type was found on the POTCAR file                          |
|          I HOPE YOU KNOW, WHAT YOU ARE  DOING                               |
|                                                                             |
 ----------------------------------------------------------------------------- 

 LDA part: xc-table for Pade appr. of Perdew
 POSCAR found type information on POSCAR  Li Ti O  F 
 POSCAR found :  4 types and     257 ions
 found WAVECAR, reading the header
  number of bands has changed, file:  1152 present:  1164
  trying to continue reading WAVECAR, but it might fail
  number of k-points has changed, file:     1 present:     4
  trying to continue reading WAVECAR, but it might fail
 POSCAR, INCAR and KPOINTS ok, starting setup
 FFT: planning ...
 reading WAVECAR
 random initialization beyond band         1153
 the WAVECAR file was read successfully
 initial charge from wavefunction
 entering main loop
       N       E                     dE             d eps       ncg     rms          rms(c)
DAV:   1    -0.202313217259E+04   -0.20231E+04   -0.11289E+04 21120   0.141E+02BRMIX: very serious problems
 the old and the new charge density differ
 old charge density:  1921.00000 new 1923.00000
    0.107E+02
DAV:   2    -0.200335068974E+04    0.19781E+02   -0.45959E+03 26904   0.103E+02    0.126E+02
DAV:   3    -0.191236886468E+04    0.90982E+02   -0.16434E+03 27000   0.522E+01    0.709E+01
DAV:   4    -0.182347266739E+04    0.88896E+02   -0.35273E+02 26304   0.248E+01    0.471E+01
DAV:   5    -0.176766306317E+04    0.55810E+02   -0.30213E+02 26736   0.209E+01    0.266E+01
DAV:   6    -0.176262858144E+04    0.50345E+01   -0.63727E+01 26592   0.101E+01    0.235E+01
DAV:   7    -0.175985102457E+04    0.27776E+01   -0.36957E+01 26460   0.551E+00    0.128E+01
DAV:   8    -0.175970726984E+04    0.14375E+00   -0.15443E+01 27000   0.586E+00    0.844E+00
DAV:   9    -0.175847676170E+04    0.12305E+01   -0.38797E+00 28560   0.303E+00    0.496E+00
DAV:  10    -0.175831334048E+04    0.16342E+00   -0.24979E+00 25548   0.191E+00    0.283E+00
DAV:  11    -0.175827856585E+04    0.34775E-01   -0.39187E-01 26892   0.997E-01    0.122E+00
DAV:  12    -0.175827323974E+04    0.53261E-02   -0.10597E-01 27360   0.530E-01    0.660E-01
DAV:  13    -0.175826997977E+04    0.32600E-02   -0.18891E-02 25536   0.235E-01    0.527E-01
DAV:  14    -0.175826620926E+04    0.37705E-02   -0.12865E-02 26604   0.209E-01    0.289E-01
DAV:  15    -0.175826500829E+04    0.12010E-02   -0.74741E-03 27612   0.182E-01    0.187E-01
DAV:  16    -0.175826459782E+04    0.41047E-03   -0.35613E-03 26340   0.115E-01    0.124E-01
DAV:  17    -0.175826429933E+04    0.29849E-03   -0.79553E-04 24084   0.665E-02    0.808E-02
DAV:  18    -0.175826417554E+04    0.12379E-03   -0.52556E-04 22548   0.470E-02    0.622E-02
DAV:  19    -0.175826408447E+04    0.91071E-04   -0.22262E-04 28140   0.456E-02    0.457E-02
DAV:  20    -0.175826406652E+04    0.17944E-04   -0.34145E-04 24456   0.427E-02    0.328E-02
DAV:  21    -0.175826411187E+04   -0.45351E-04   -0.32480E-04 24216   0.251E-02    0.316E-02
DAV:  22    -0.175826413559E+04   -0.23712E-04   -0.52154E-05 24360   0.124E-02    0.254E-02
DAV:  23    -0.175826418037E+04   -0.44782E-04   -0.10092E-04 22260   0.114E-02    0.224E-02
DAV:  24    -0.175826422499E+04   -0.44619E-04   -0.12532E-04 22500   0.905E-03    0.210E-02
DAV:  25    -0.175826426231E+04   -0.37324E-04   -0.11965E-04 21780   0.773E-03    0.171E-02
DAV:  26    -0.175826430488E+04   -0.42565E-04   -0.23193E-04 22092   0.904E-03    0.157E-02
DAV:  27    -0.175826432905E+04   -0.24170E-04   -0.19286E-04 21180   0.754E-03    0.118E-02
DAV:  28    -0.175826434263E+04   -0.13583E-04   -0.20300E-04 21672   0.944E-03    0.730E-03
DAV:  29    -0.175826434778E+04   -0.51518E-05   -0.65781E-05 20364   0.570E-03    0.636E-03
DAV:  30    -0.175826434821E+04   -0.42724E-06   -0.92640E-06 16536   0.313E-03
   1 F= -.17582643E+04 E0= -.17582643E+04  d E =-.175826E+04  mag=     1.0000
 BRION: g(F)=  0.917E-03 g(S)=  0.000E+00
 bond charge predicted
       N       E                     dE             d eps       ncg     rms          rms(c)
DAV:   1    -0.175826453747E+04   -0.18969E-03   -0.24706E-01 19008   0.584E-01    0.754E-02
DAV:   2    -0.175826517781E+04   -0.64034E-03   -0.71122E-03 21864   0.115E-01    0.817E-02
DAV:   3    -0.175826518740E+04   -0.95955E-05   -0.28595E-04 27552   0.235E-02    0.560E-02
DAV:   4    -0.175826518674E+04    0.66429E-06   -0.43273E-05 26604   0.122E-02    0.425E-02
DAV:   5    -0.175826518346E+04    0.32800E-05   -0.34710E-05 24276   0.110E-02    0.115E-02
DAV:   6    -0.175826518349E+04   -0.27445E-07   -0.12890E-05 23052   0.548E-03    0.718E-03
DAV:   7    -0.175826518346E+04    0.22148E-07   -0.21853E-06 13824   0.224E-03
   2 F= -.17582652E+04 E0= -.17582652E+04  d E =-.835257E-03  mag=     1.0000
 BRION: g(F)=  0.105E-02 g(S)=  0.000E+00 retain N=  1 mean eig= 0.36
 eig:   0.358
 bond charge predicted
       N       E                     dE             d eps       ncg     rms          rms(c)
DAV:   1    -0.175826539668E+04   -0.21319E-03   -0.35059E-02 19008   0.243E-01    0.384E-02
DAV:   2    -0.175826551429E+04   -0.11761E-03   -0.14838E-03 22548   0.600E-02    0.578E-02
DAV:   3    -0.175826551752E+04   -0.32369E-05   -0.93236E-05 26148   0.139E-02    0.425E-02
DAV:   4    -0.175826551760E+04   -0.72847E-07   -0.14091E-05 25776   0.680E-03    0.337E-02
DAV:   5    -0.175826551473E+04    0.28705E-05   -0.11249E-05 23280   0.683E-03    0.114E-02
DAV:   6    -0.175826551412E+04    0.61045E-06   -0.60890E-06 20328   0.414E-03
   3 F= -.17582655E+04 E0= -.17582655E+04  d E =-.330652E-03  mag=     1.0000
 BRION: g(F)=  0.843E-03 g(S)=  0.000E+00 retain N=  1 mean eig= 0.30
 eig:   0.304
 bond charge predicted
       N       E                     dE             d eps       ncg     rms          rms(c)
DAV:   1    -0.175826585758E+04   -0.34285E-03   -0.19955E-01 18948   0.478E-01    0.616E-02
DAV:   2    -0.175826629172E+04   -0.43414E-03   -0.46153E-03 19596   0.802E-02    0.372E-02
DAV:   3    -0.175826629839E+04   -0.66673E-05   -0.13452E-04 29172   0.138E-02    0.244E-02
DAV:   4    -0.175826630036E+04   -0.19753E-05   -0.17615E-05 25056   0.725E-03    0.134E-02
DAV:   5    -0.175826630183E+04   -0.14620E-05   -0.10028E-05 24324   0.504E-03    0.414E-03
DAV:   6    -0.175826630206E+04   -0.23318E-06   -0.15405E-06 12888   0.212E-03
   4 F= -.17582663E+04 E0= -.17582663E+04  d E =-.787943E-03  mag=     1.0000
 BRION: g(F)=  0.824E-03 g(S)=  0.000E+00 retain N=  2 mean eig= 0.32
 eig:   0.320  0.320
 bond charge predicted
       N       E                     dE             d eps       ncg     rms          rms(c)
DAV:   1    -0.175826665081E+04   -0.34898E-03   -0.16121E-01 18816   0.428E-01    0.555E-02
DAV:   2    -0.175826700081E+04   -0.35000E-03   -0.37246E-03 19512   0.724E-02    0.337E-02
DAV:   3    -0.175826700671E+04   -0.58988E-05   -0.11308E-04 29580   0.127E-02    0.222E-02
DAV:   4    -0.175826700854E+04   -0.18312E-05   -0.14880E-05 25188   0.671E-03    0.124E-02
DAV:   5    -0.175826700966E+04   -0.11211E-05   -0.80250E-06 22548   0.471E-03    0.383E-03
DAV:   6    -0.175826700989E+04   -0.22643E-06   -0.15638E-06 12276   0.216E-03
   5 F= -.17582670E+04 E0= -.17582670E+04  d E =-.707832E-03  mag=     1.0000
 BRION: g(F)=  0.833E-03 g(S)=  0.000E+00 retain N=  3 mean eig= 1.20
 eig:   3.002  0.296  0.296
 bond charge predicted
       N       E                     dE             d eps       ncg     rms          rms(c)
DAV:   1    -0.175826719132E+04   -0.18165E-03   -0.49560E-01 18960   0.736E-01    0.958E-02
DAV:   2    -0.175826824096E+04   -0.10496E-02   -0.11132E-02 19140   0.121E-01    0.536E-02
DAV:   3    -0.175826825946E+04   -0.18498E-04   -0.32612E-04 29688   0.199E-02    0.357E-02
DAV:   4    -0.175826826678E+04   -0.73254E-05   -0.44394E-05 23376   0.103E-02    0.155E-02
DAV:   5    -0.175826827084E+04   -0.40555E-05   -0.19367E-05 25704   0.660E-03    0.601E-03
DAV:   6    -0.175826827137E+04   -0.52861E-06   -0.29110E-06 16584   0.282E-03
   6 F= -.17582683E+04 E0= -.17582683E+04  d E =-.126148E-02  mag=     1.0000
 BRION: g(F)=  0.847E-03 g(S)=  0.000E+00 retain N=  4 mean eig= 1.52
 eig:   0.321  0.685  0.685  4.409
 bond charge predicted
       N       E                     dE             d eps       ncg     rms          rms(c)
DAV:   1    -0.175826563856E+04    0.26323E-02   -0.58029E-01 18912   0.795E-01    0.102E-01
DAV:   2    -0.175826686943E+04   -0.12309E-02   -0.12992E-02 19116   0.131E-01    0.587E-02
DAV:   3    -0.175826688828E+04   -0.18846E-04   -0.37775E-04 29508   0.216E-02    0.393E-02
DAV:   4    -0.175826689416E+04   -0.58828E-05   -0.51824E-05 22968   0.116E-02    0.168E-02
DAV:   5    -0.175826689855E+04   -0.43885E-05   -0.23673E-05 25872   0.746E-03    0.653E-03
DAV:   6    -0.175826689901E+04   -0.46287E-06   -0.35642E-06 18060   0.314E-03
   7 F= -.17582669E+04 E0= -.17582669E+04  d E =0.137235E-02  mag=     1.0000
 BRION: g(F)=  0.869E-03 g(S)=  0.000E+00 retain N=  5 mean eig= 1.78
 eig:   5.525  1.998  0.524  0.524  0.322
 bond charge predicted
       N       E                     dE             d eps       ncg     rms          rms(c)
DAV:   1    -0.175826276870E+04    0.41298E-02   -0.10465E+00 18792   0.106E+00    0.141E-01
DAV:   2    -0.175826500738E+04   -0.22387E-02   -0.23739E-02 19152   0.178E-01    0.788E-02
DAV:   3    -0.175826505291E+04   -0.45526E-04   -0.74606E-04 29856   0.302E-02    0.514E-02
DAV:   4    -0.175826507011E+04   -0.17204E-04   -0.94489E-05 23664   0.151E-02    0.234E-02
DAV:   5    -0.175826507886E+04   -0.87544E-05   -0.40160E-05 25944   0.977E-03    0.855E-03
DAV:   6    -0.175826507999E+04   -0.11268E-05   -0.65944E-06 21372   0.419E-03    0.561E-03
DAV:   7    -0.175826508015E+04   -0.16240E-06   -0.11381E-06 12360   0.171E-03
   8 F= -.17582651E+04 E0= -.17582651E+04  d E =0.181886E-02  mag=     1.0000
 BRION: g(F)=  0.844E-03 g(S)=  0.000E+00 retain N=  5 mean eig= 1.95
 eig:   4.094  4.094  0.668  0.444  0.444
 bond charge predicted
       N       E                     dE             d eps       ncg     rms          rms(c)
DAV:   1    -0.175826220732E+04    0.28727E-02   -0.65430E-01 18840   0.848E-01    0.111E-01
DAV:   2    -0.175826361098E+04   -0.14037E-02   -0.14885E-02 19404   0.142E-01    0.657E-02
DAV:   3    -0.175826363600E+04   -0.25021E-04   -0.45773E-04 29496   0.244E-02    0.428E-02
DAV:   4    -0.175826364462E+04   -0.86151E-05   -0.60343E-05 24636   0.127E-02    0.225E-02
DAV:   5    -0.175826364960E+04   -0.49793E-05   -0.30403E-05 26352   0.879E-03    0.695E-03
DAV:   6    -0.175826365043E+04   -0.83068E-06   -0.51990E-06 19776   0.365E-03
   9 F= -.17582637E+04 E0= -.17582637E+04  d E =0.142973E-02  mag=     1.0000
 BRION: g(F)=  0.869E-03 g(S)=  0.000E+00 retain N=  5 mean eig= 2.17
 eig:   5.077  5.077  0.104  0.449  0.135
 bond charge predicted
       N       E                     dE             d eps       ncg     rms          rms(c)
DAV:   1    -0.175826368288E+04   -0.33288E-04   -0.48843E-03 18816   0.965E-02    0.152E-02
DAV:   2    -0.175826370209E+04   -0.19200E-04   -0.24203E-04 22440   0.247E-02    0.239E-02
DAV:   3    -0.175826370257E+04   -0.48426E-06   -0.14714E-05 22032   0.559E-03    0.177E-02
DAV:   4    -0.175826370244E+04    0.12535E-06   -0.16778E-06 14088   0.285E-03
  10 F= -.17582637E+04 E0= -.17582637E+04  d E =-.520167E-04  mag=     1.0000
 BRION: g(F)=  0.834E-03 g(S)=  0.000E+00 retain N=  5 mean eig= 2.44
 eig:   7.720  2.057  2.057  0.299  0.056
 bond charge predicted
       N       E                     dE             d eps       ncg     rms          rms(c)
DAV:   1    -0.175826383571E+04   -0.13314E-03   -0.14058E-02 18816   0.149E-01    0.184E-02
DAV:   2    -0.175826387627E+04   -0.40563E-04   -0.44297E-04 20220   0.286E-02    0.151E-02
DAV:   3    -0.175826387668E+04   -0.40841E-06   -0.16352E-05 25872   0.575E-03    0.103E-02
DAV:   4    -0.175826387621E+04    0.47206E-06   -0.19639E-06 14892   0.295E-03
  11 F= -.17582639E+04 E0= -.17582639E+04  d E =-.173767E-03  mag=     1.0000
 BRION: g(F)=  0.835E-03 g(S)=  0.000E+00 retain N=  5 mean eig= 1.75
 eig:   5.599  1.880  0.636  0.108  0.506
 bond charge predicted
       N       E                     dE             d eps       ncg     rms          rms(c)
DAV:   1    -0.175826404478E+04   -0.16810E-03   -0.44591E-01 18792   0.716E-01    0.907E-02
DAV:   2    -0.175826501400E+04   -0.96921E-03   -0.10287E-02 19308   0.121E-01    0.559E-02
DAV:   3    -0.175826502849E+04   -0.14495E-04   -0.30523E-04 29328   0.207E-02    0.372E-02
DAV:   4    -0.175826503214E+04   -0.36502E-05   -0.40601E-05 24888   0.110E-02    0.199E-02
DAV:   5    -0.175826503518E+04   -0.30361E-05   -0.22708E-05 25884   0.771E-03    0.594E-03
DAV:   6    -0.175826503567E+04   -0.49546E-06   -0.41073E-06 18852   0.329E-03
  12 F= -.17582650E+04 E0= -.17582650E+04  d E =-.115946E-02  mag=     1.0000
 BRION: g(F)=  0.830E-03 g(S)=  0.000E+00 retain N=  5 mean eig= 1.88
 eig:   4.101  4.101  0.436  0.436  0.335
 bond charge predicted
       N       E                     dE             d eps       ncg     rms          rms(c)
DAV:   1    -0.175826496478E+04    0.70398E-04   -0.63212E-01 18924   0.860E-01    0.107E-01
DAV:   2    -0.175826636202E+04   -0.13972E-02   -0.14742E-02 19128   0.144E-01    0.641E-02
DAV:   3    -0.175826637947E+04   -0.17458E-04   -0.40489E-04 28896   0.236E-02    0.433E-02
DAV:   4    -0.175826638228E+04   -0.28065E-05   -0.57421E-05 24420   0.125E-02    0.219E-02
DAV:   5    -0.175826638624E+04   -0.39584E-05   -0.30483E-05 26256   0.878E-03    0.673E-03
DAV:   6    -0.175826638692E+04   -0.68528E-06   -0.49604E-06 19668   0.355E-03
  13 F= -.17582664E+04 E0= -.17582664E+04  d E =-.135125E-02  mag=     1.0000
 BRION: g(F)=  0.831E-03 g(S)=  0.000E+00 retain N=  6 mean eig= 2.77
 eig:   7.159  7.159  0.608  0.505  0.505  0.698
 bond charge predicted
       N       E                     dE             d eps       ncg     rms          rms(c)
DAV:   1    -0.175826653934E+04   -0.15310E-03   -0.57251E-02 18816   0.286E-01    0.330E-02
DAV:   2    -0.175826668649E+04   -0.14715E-03   -0.15453E-03 19956   0.512E-02    0.246E-02
DAV:   3    -0.175826668692E+04   -0.43350E-06   -0.37565E-05 25692   0.893E-03    0.163E-02
DAV:   4    -0.175826668549E+04    0.14334E-05   -0.49366E-06 20988   0.442E-03    0.118E-02
DAV:   5    -0.175826668507E+04    0.41851E-06   -0.50349E-06 20688   0.397E-03
  14 F= -.17582667E+04 E0= -.17582667E+04  d E =-.298144E-03  mag=     1.0000
 BRION: g(F)=  0.772E-03 g(S)=  0.000E+00 retain N=  6 mean eig= 2.65
 eig:   5.662  5.662  1.376  1.376  0.920  0.920
 bond charge predicted
       N       E                     dE             d eps       ncg     rms          rms(c)
DAV:   1    -0.175826687888E+04   -0.19339E-03   -0.27013E-01 18744   0.588E-01    0.737E-02
DAV:   2    -0.175826752888E+04   -0.65001E-03   -0.69524E-03 20352   0.105E-01    0.562E-02
DAV:   3    -0.175826753778E+04   -0.89019E-05   -0.22508E-04 28380   0.200E-02    0.365E-02
DAV:   4    -0.175826753825E+04   -0.46272E-06   -0.30747E-05 26676   0.104E-02    0.251E-02
DAV:   5    -0.175826753872E+04   -0.46968E-06   -0.21341E-05 25428   0.815E-03    0.606E-03
DAV:   6    -0.175826753916E+04   -0.44567E-06   -0.56796E-06 19044   0.364E-03
  15 F= -.17582675E+04 E0= -.17582675E+04  d E =-.854095E-03  mag=     1.0000
 BRION: g(F)=  0.917E-03 g(S)=  0.000E+00 retain N=  5 mean eig= 2.86
 eig:   6.007  6.007  0.803  0.803  0.687
 bond charge predicted
       N       E                     dE             d eps       ncg     rms          rms(c)
DAV:   1    -0.175826695845E+04    0.58026E-03   -0.65222E-02 18816   0.267E-01    0.377E-02
DAV:   2    -0.175826710098E+04   -0.14253E-03   -0.15853E-03 21732   0.500E-02    0.344E-02
DAV:   3    -0.175826710422E+04   -0.32337E-05   -0.69914E-05 29316   0.109E-02    0.223E-02
DAV:   4    -0.175826710612E+04   -0.19055E-05   -0.93589E-06 24636   0.598E-03    0.161E-02
DAV:   5    -0.175826710661E+04   -0.48970E-06   -0.61146E-06 21816   0.473E-03
  16 F= -.17582671E+04 E0= -.17582671E+04  d E =0.432550E-03  mag=     1.0000
 BRION: g(F)=  0.898E-03 g(S)=  0.000E+00 retain N=  2 mean eig= 1.06
 eig:   0.466  1.654
 bond charge predicted
       N       E                     dE             d eps       ncg     rms          rms(c)
DAV:   1    -0.175826726703E+04   -0.16091E-03   -0.90597E-02 18888   0.313E-01    0.453E-02
DAV:   2    -0.175826747731E+04   -0.21028E-03   -0.22956E-03 18840   0.568E-02    0.285E-02
DAV:   3    -0.175826748380E+04   -0.64935E-05   -0.87483E-05 30768   0.112E-02    0.172E-02
DAV:   4    -0.175826748778E+04   -0.39771E-05   -0.10127E-05 24120   0.585E-03    0.105E-02
DAV:   5    -0.175826748891E+04   -0.11325E-05   -0.38912E-06 19560   0.381E-03    0.320E-03
DAV:   6    -0.175826748915E+04   -0.23382E-06   -0.10165E-06 11448   0.170E-03
  17 F= -.17582675E+04 E0= -.17582675E+04  d E =-.382533E-03  mag=     1.0000
 BRION: g(F)=  0.876E-03 g(S)=  0.000E+00 retain N=  3 mean eig= 0.93
 eig:   1.666  0.458  0.663
 bond charge predicted
       N       E                     dE             d eps       ncg     rms          rms(c)
DAV:   1    -0.175826765748E+04   -0.16857E-03   -0.35938E-02 18792   0.193E-01    0.305E-02
DAV:   2    -0.175826773864E+04   -0.81168E-04   -0.91656E-04 20544   0.376E-02    0.243E-02
DAV:   3    -0.175826774173E+04   -0.30873E-05   -0.43303E-05 30072   0.854E-03    0.144E-02
DAV:   4    -0.175826774399E+04   -0.22612E-05   -0.50847E-06 20928   0.462E-03    0.108E-02
DAV:   5    -0.175826774465E+04   -0.66191E-06   -0.23367E-06 15996   0.334E-03
  18 F= -.17582677E+04 E0= -.17582677E+04  d E =-.255510E-03  mag=     1.0000
 BRION: g(F)=  0.891E-03 g(S)=  0.000E+00 retain N=  4 mean eig= 2.06
 eig:   5.605  1.592  0.442  0.589
 bond charge predicted
       N       E                     dE             d eps       ncg     rms          rms(c)
DAV:   1    -0.175826748793E+04    0.25606E-03   -0.22862E-02 18840   0.147E-01    0.223E-02
DAV:   2    -0.175826753608E+04   -0.48149E-04   -0.52240E-04 18828   0.257E-02    0.124E-02
DAV:   3    -0.175826753782E+04   -0.17417E-05   -0.19818E-05 30108   0.496E-03    0.740E-03
DAV:   4    -0.175826753888E+04   -0.10584E-05   -0.16593E-06 13884   0.240E-03    0.449E-03
DAV:   5    -0.175826753916E+04   -0.28324E-06   -0.77664E-07 10752   0.171E-03
  19 F= -.17582675E+04 E0= -.17582675E+04  d E =0.205491E-03  mag=     1.0000
 BRION: g(F)=  0.881E-03 g(S)=  0.000E+00 retain N=  3 mean eig= 2.83
 eig:   0.474  0.486  7.541
 bond charge predicted
       N       E                     dE             d eps       ncg     rms          rms(c)
DAV:   1    -0.175826570631E+04    0.18326E-02   -0.51843E-01 18696   0.824E-01    0.111E-01
DAV:   2    -0.175826705523E+04   -0.13489E-02   -0.14872E-02 20988   0.162E-01    0.103E-01
DAV:   3    -0.175826708197E+04   -0.26742E-04   -0.61253E-04 28800   0.340E-02    0.654E-02
DAV:   4    -0.175826709084E+04   -0.88683E-05   -0.85025E-05 26952   0.178E-02    0.487E-02
DAV:   5    -0.175826709217E+04   -0.13279E-05   -0.54721E-05 26220   0.142E-02    0.126E-02
DAV:   6    -0.175826709283E+04   -0.66007E-06   -0.16767E-05 24936   0.651E-03    0.847E-03
DAV:   7    -0.175826709283E+04   -0.59663E-08   -0.34321E-06 16932   0.286E-03
  20 F= -.17582671E+04 E0= -.17582671E+04  d E =0.446330E-03  mag=     1.0000
 BRION: g(F)=  0.112E-02 g(S)=  0.000E+00 retain N=  4 mean eig= 2.43
 eig:   7.802  0.954  0.472  0.472
 bond charge predicted
       N       E                     dE             d eps       ncg     rms          rms(c)
DAV:   1    -0.175826332688E+04    0.37659E-02   -0.11068E+00 18624   0.106E+00    0.161E-01
DAV:   2    -0.175826573583E+04   -0.24089E-02   -0.26655E-02 20040   0.195E-01    0.114E-01
DAV:   3    -0.175826582985E+04   -0.94024E-04   -0.12390E-03 30348   0.414E-02    0.664E-02
DAV:   4    -0.175826588535E+04   -0.55494E-04   -0.15536E-04 26868   0.222E-02    0.473E-02
DAV:   5    -0.175826590112E+04   -0.15771E-04   -0.69689E-05 26556   0.152E-02    0.120E-02
DAV:   6    -0.175826590366E+04   -0.25385E-05   -0.15592E-05 25896   0.640E-03    0.798E-03
DAV:   7    -0.175826590396E+04   -0.30547E-06   -0.38563E-06 17796   0.304E-03
  21 F= -.17582659E+04 E0= -.17582659E+04  d E =0.118887E-02  mag=     1.0000
 BRION: g(F)=  0.888E-03 g(S)=  0.000E+00 retain N=  4 mean eig= 2.67
 eig:   7.473  2.642  0.283  0.283
 bond charge predicted
       N       E                     dE             d eps       ncg     rms          rms(c)
DAV:   1    -0.175824101609E+04    0.24888E-01   -0.83409E+00 18684   0.287E+00    0.449E-01
DAV:   2    -0.175826056451E+04   -0.19548E-01   -0.21168E-01 18696   0.499E-01    0.221E-01
DAV:   3    -0.175826218925E+04   -0.16247E-02   -0.17783E-02 31236   0.961E-02    0.133E-01
DAV:   4    -0.175826241384E+04   -0.22459E-03   -0.68943E-04 25656   0.388E-02    0.768E-02
DAV:   5    -0.175826253839E+04   -0.12455E-03   -0.25591E-04 26196   0.284E-02    0.253E-02
DAV:   6    -0.175826256192E+04   -0.23532E-04   -0.86386E-05 28212   0.141E-02    0.145E-02
DAV:   7    -0.175826256229E+04   -0.36406E-06   -0.11459E-05 25476   0.508E-03    0.913E-03
DAV:   8    -0.175826256266E+04   -0.37227E-06   -0.18550E-06 14712   0.238E-03
  22 F= -.17582626E+04 E0= -.17582626E+04  d E =0.334130E-02  mag=     1.0000
 BRION: g(F)=  0.840E-03 g(S)=  0.000E+00 retain N=  3 mean eig= 1.60
 eig:   4.038  0.170  0.607
 bond charge predicted
       N       E                     dE             d eps       ncg     rms          rms(c)
DAV:   1    -0.175824867156E+04    0.13891E-01   -0.71268E+00 18636   0.258E+00    0.418E-01
DAV:   2    -0.175826422705E+04   -0.15555E-01   -0.17073E-01 18780   0.445E-01    0.210E-01
DAV:   3    -0.175826565338E+04   -0.14263E-02   -0.14881E-02 31092   0.867E-02    0.126E-01
DAV:   4    -0.175826587285E+04   -0.21947E-03   -0.57031E-04 26160   0.352E-02    0.755E-02
DAV:   5    -0.175826598680E+04   -0.11395E-03   -0.22218E-04 25800   0.265E-02    0.240E-02
DAV:   6    -0.175826600879E+04   -0.21985E-04   -0.72172E-05 27420   0.134E-02    0.137E-02
DAV:   7    -0.175826600918E+04   -0.39124E-06   -0.10185E-05 24180   0.475E-03    0.885E-03
DAV:   8    -0.175826600936E+04   -0.18300E-06   -0.15736E-06 13980   0.216E-03
  23 F= -.17582660E+04 E0= -.17582660E+04  d E =-.344670E-02  mag=     1.0000
 BRION: g(F)=  0.818E-03 g(S)=  0.000E+00 retain N=  4 mean eig= 2.07
 eig:   7.302  0.680  0.154  0.154
 bond charge predicted
       N       E                     dE             d eps       ncg     rms          rms(c)
DAV:   1    -0.175826422631E+04    0.17829E-02   -0.50260E-01 18816   0.756E-01    0.107E-01
DAV:   2    -0.175826540964E+04   -0.11833E-02   -0.12889E-02 18900   0.137E-01    0.683E-02
DAV:   3    -0.175826544465E+04   -0.35011E-04   -0.49042E-04 30660   0.272E-02    0.399E-02
DAV:   4    -0.175826546417E+04   -0.19512E-04   -0.59287E-05 26808   0.137E-02    0.254E-02
DAV:   5    -0.175826547024E+04   -0.60766E-05   -0.25352E-05 26556   0.911E-03    0.703E-03
DAV:   6    -0.175826547129E+04   -0.10479E-05   -0.45505E-06 19296   0.364E-03    0.480E-03
DAV:   7    -0.175826547142E+04   -0.12771E-06   -0.10481E-06 12192   0.182E-03
  24 F= -.17582655E+04 E0= -.17582655E+04  d E =0.537944E-03  mag=     1.0000
 BRION: g(F)=  0.725E-03 g(S)=  0.000E+00 retain N=  4 mean eig= 1.78
 eig:   6.173  0.452  0.452  0.027
 bond charge predicted
       N       E                     dE             d eps       ncg     rms          rms(c)
DAV:   1    -0.175826496395E+04    0.50734E-03   -0.24948E-01 18672   0.602E-01    0.688E-02
DAV:   2    -0.175826563829E+04   -0.67434E-03   -0.70712E-03 18852   0.108E-01    0.445E-02
DAV:   3    -0.175826564265E+04   -0.43575E-05   -0.17371E-04 27384   0.182E-02    0.300E-02
DAV:   4    -0.175826563956E+04    0.30920E-05   -0.24585E-05 26388   0.868E-03    0.180E-02
DAV:   5    -0.175826563977E+04   -0.21822E-06   -0.16070E-05 26052   0.690E-03    0.481E-03
DAV:   6    -0.175826564002E+04   -0.24258E-06   -0.30191E-06 16236   0.281E-03
  25 F= -.17582656E+04 E0= -.17582656E+04  d E =-.168599E-03  mag=     1.0000
 BRION: g(F)=  0.721E-03 g(S)=  0.000E+00 retain N=  4 mean eig= 1.92
 eig:   5.567  0.669  0.723  0.723
 bond charge predicted
       N       E                     dE             d eps       ncg     rms          rms(c)
DAV:   1    -0.175826578922E+04   -0.14945E-03   -0.12322E-01 18684   0.419E-01    0.481E-02
DAV:   2    -0.175826611275E+04   -0.32353E-03   -0.33954E-03 19812   0.754E-02    0.367E-02
DAV:   3    -0.175826611447E+04   -0.17222E-05   -0.86774E-05 26112   0.133E-02    0.248E-02
DAV:   4    -0.175826611195E+04    0.25290E-05   -0.12436E-05 26460   0.654E-03    0.170E-02
DAV:   5    -0.175826611113E+04    0.81485E-06   -0.10115E-05 22776   0.566E-03    0.407E-03
DAV:   6    -0.175826611131E+04   -0.17669E-06   -0.28430E-06 15540   0.250E-03
  26 F= -.17582661E+04 E0= -.17582661E+04  d E =-.471290E-03  mag=     1.0000
 BRION: g(F)=  0.736E-03 g(S)=  0.000E+00 retain N=  4 mean eig= 1.86
 eig:   5.715  0.587  0.587  0.537
 bond charge predicted
       N       E                     dE             d eps       ncg     rms          rms(c)
DAV:   1    -0.175826633320E+04   -0.22207E-03   -0.72387E-02 18696   0.308E-01    0.376E-02
DAV:   2    -0.175826650661E+04   -0.17340E-03   -0.18509E-03 21000   0.561E-02    0.326E-02
DAV:   3    -0.175826650834E+04   -0.17297E-05   -0.57778E-05 27060   0.107E-02    0.213E-02
DAV:   4    -0.175826650751E+04    0.82501E-06   -0.77875E-06 23724   0.533E-03
  27 F= -.17582665E+04 E0= -.17582665E+04  d E =-.396203E-03  mag=     1.0000
 BRION: g(F)=  0.698E-03 g(S)=  0.000E+00 retain N=  5 mean eig= 2.10
 eig:   4.055  4.055  1.228  0.569  0.569
 bond charge predicted
       N       E                     dE             d eps       ncg     rms          rms(c)
DAV:   1    -0.175826385974E+04    0.26486E-02   -0.13520E+00 18624   0.141E+00    0.152E-01
DAV:   2    -0.175826745315E+04   -0.35934E-02   -0.37182E-02 18852   0.246E-01    0.949E-02
DAV:   3    -0.175826745474E+04   -0.15873E-05   -0.74118E-04 25308   0.383E-02    0.676E-02
DAV:   4    -0.175826741549E+04    0.39245E-04   -0.12106E-04 25164   0.184E-02    0.321E-02
DAV:   5    -0.175826741646E+04   -0.96674E-06   -0.82322E-05 26028   0.139E-02    0.110E-02
DAV:   6    -0.175826741699E+04   -0.52579E-06   -0.12503E-05 22692   0.551E-03    0.804E-03
DAV:   7    -0.175826741705E+04   -0.59808E-07   -0.22558E-06 14520   0.225E-03
  28 F= -.17582674E+04 E0= -.17582674E+04  d E =-.909537E-03  mag=     1.0000
 BRION: g(F)=  0.734E-03 g(S)=  0.000E+00 retain N=  4 mean eig= 2.51
 eig:   4.317  4.317  0.694  0.694
 bond charge predicted
       N       E                     dE             d eps       ncg     rms          rms(c)
DAV:   1    -0.175826769632E+04   -0.27933E-03   -0.20985E-01 18696   0.469E-01    0.677E-02
DAV:   2    -0.175826814811E+04   -0.45179E-03   -0.49404E-03 20256   0.834E-02    0.481E-02
DAV:   3    -0.175826816181E+04   -0.13702E-04   -0.19838E-04 30000   0.171E-02    0.290E-02
DAV:   4    -0.175826817001E+04   -0.81998E-05   -0.24925E-05 26976   0.918E-03    0.200E-02
DAV:   5    -0.175826817280E+04   -0.27919E-05   -0.13163E-05 25980   0.659E-03    0.526E-03
DAV:   6    -0.175826817323E+04   -0.42946E-06   -0.24663E-06 15120   0.281E-03
  29 F= -.17582682E+04 E0= -.17582682E+04  d E =-.756186E-03  mag=     1.0000
 BRION: g(F)=  0.737E-03 g(S)=  0.000E+00 retain N=  3 mean eig= 1.70
 eig:   4.403  0.354  0.354
 bond charge predicted
       N       E                     dE             d eps       ncg     rms          rms(c)
DAV:   1    -0.175826838328E+04   -0.21048E-03   -0.28628E-02 18744   0.185E-01    0.260E-02
DAV:   2    -0.175826844987E+04   -0.66593E-04   -0.73970E-04 21672   0.354E-02    0.247E-02
DAV:   3    -0.175826845138E+04   -0.15041E-05   -0.31221E-05 29040   0.763E-03    0.160E-02
DAV:   4    -0.175826845203E+04   -0.65181E-06   -0.39521E-06 19572   0.403E-03
  30 F= -.17582685E+04 E0= -.17582685E+04  d E =-.278797E-03  mag=     1.0000
 BRION: g(F)=  0.731E-03 g(S)=  0.000E+00 retain N=  3 mean eig= 1.29
 eig:   0.496  0.496  2.869
 bond charge predicted
       N       E                     dE             d eps       ncg     rms          rms(c)
DAV:   1    -0.175826462950E+04    0.38219E-02   -0.10182E+00 18624   0.117E+00    0.128E-01
DAV:   2    -0.175826715201E+04   -0.25225E-02   -0.26017E-02 18876   0.200E-01    0.777E-02
DAV:   3    -0.175826715359E+04   -0.15846E-05   -0.52442E-04 26460   0.300E-02    0.568E-02
DAV:   4    -0.175826712550E+04    0.28088E-04   -0.94566E-05 23136   0.152E-02    0.200E-02
DAV:   5    -0.175826712990E+04   -0.43933E-05   -0.53686E-05 25380   0.977E-03    0.942E-03
DAV:   6    -0.175826713013E+04   -0.23018E-06   -0.59626E-06 20868   0.382E-03
  31 F= -.17582671E+04 E0= -.17582671E+04  d E =0.132190E-02  mag=     1.0000
 BRION: g(F)=  0.722E-03 g(S)=  0.000E+00 retain N=  4 mean eig= 1.40
 eig:   3.163  1.240  0.593  0.593
 bond charge predicted
       N       E                     dE             d eps       ncg     rms          rms(c)
DAV:   1    -0.175826532539E+04    0.18045E-02   -0.39182E-01 18636   0.720E-01    0.823E-02
DAV:   2    -0.175826628115E+04   -0.95576E-03   -0.98944E-03 18936   0.122E-01    0.479E-02
DAV:   3    -0.175826628449E+04   -0.33398E-05   -0.20969E-04 27024   0.188E-02    0.344E-02
DAV:   4    -0.175826627711E+04    0.73832E-05   -0.35694E-05 24180   0.931E-03    0.144E-02
DAV:   5    -0.175826627865E+04   -0.15444E-05   -0.20791E-05 25512   0.649E-03    0.593E-03
DAV:   6    -0.175826627881E+04   -0.15361E-06   -0.24424E-06 14904   0.257E-03
  32 F= -.17582663E+04 E0= -.17582663E+04  d E =0.851322E-03  mag=     1.0000
 BRION: g(F)=  0.734E-03 g(S)=  0.000E+00 retain N=  5 mean eig= 2.60
 eig:   4.279  5.328  2.357  0.509  0.509
 bond charge predicted
       N       E                     dE             d eps       ncg     rms          rms(c)
DAV:   1    -0.175826226602E+04    0.40126E-02   -0.25659E+00 18624   0.184E+00    0.204E-01
DAV:   2    -0.175826849473E+04   -0.62287E-02   -0.64397E-02 18888   0.311E-01    0.123E-01
DAV:   3    -0.175826850649E+04   -0.11754E-04   -0.13571E-03 26796   0.471E-02    0.899E-02
DAV:   4    -0.175826844648E+04    0.60012E-04   -0.23840E-04 23616   0.239E-02    0.332E-02
DAV:   5    -0.175826845688E+04   -0.10407E-04   -0.13134E-04 25536   0.157E-02    0.146E-02
DAV:   6    -0.175826845775E+04   -0.86220E-06   -0.16173E-05 25908   0.627E-03    0.996E-03
DAV:   7    -0.175826845772E+04    0.29686E-07   -0.22115E-06 14664   0.240E-03
  33 F= -.17582685E+04 E0= -.17582685E+04  d E =-.217891E-02  mag=     1.0000
 BRION: g(F)=  0.756E-03 g(S)=  0.000E+00 retain N=  2 mean eig= 4.11
 eig:   4.110  4.110
 bond charge predicted
       N       E                     dE             d eps       ncg     rms          rms(c)
DAV:   1    -0.175826869056E+04   -0.23281E-03   -0.77037E-02 18696   0.312E-01    0.486E-02
DAV:   2    -0.175826888082E+04   -0.19026E-03   -0.22861E-03 22416   0.692E-02    0.629E-02
DAV:   3    -0.175826888586E+04   -0.50436E-05   -0.13127E-04 27600   0.159E-02    0.443E-02
DAV:   4    -0.175826888876E+04   -0.29001E-05   -0.19608E-05 26736   0.818E-03    0.339E-02
DAV:   5    -0.175826888730E+04    0.14630E-05   -0.15596E-05 25188   0.778E-03    0.988E-03
DAV:   6    -0.175826888701E+04    0.28819E-06   -0.61018E-06 19428   0.399E-03
  34 F= -.17582689E+04 E0= -.17582689E+04  d E =-.429298E-03  mag=     1.0000
 BRION: g(F)=  0.877E-03 g(S)=  0.000E+00 retain N=  3 mean eig= 2.99
 eig:   4.345  4.345  0.266
 bond charge predicted
       N       E                     dE             d eps       ncg     rms          rms(c)
DAV:   1    -0.175826569560E+04    0.31917E-02   -0.21919E+00 18624   0.169E+00    0.193E-01
DAV:   2    -0.175827099296E+04   -0.52974E-02   -0.54998E-02 19020   0.288E-01    0.120E-01
DAV:   3    -0.175827101424E+04   -0.21287E-04   -0.12360E-03 27132   0.453E-02    0.847E-02
DAV:   4    -0.175827097602E+04    0.38220E-04   -0.19619E-04 24744   0.226E-02    0.407E-02
DAV:   5    -0.175827098214E+04   -0.61189E-05   -0.12405E-04 25896   0.170E-02    0.131E-02
DAV:   6    -0.175827098351E+04   -0.13676E-05   -0.18595E-05 24444   0.678E-03    0.963E-03
DAV:   7    -0.175827098366E+04   -0.15143E-06   -0.32139E-06 16656   0.266E-03
  35 F= -.17582710E+04 E0= -.17582710E+04  d E =-.209665E-02  mag=     1.0000
 BRION: g(F)=  0.735E-03 g(S)=  0.000E+00 retain N=  1 mean eig= 0.49
 eig:   0.495
 bond charge predicted
       N       E                     dE             d eps       ncg     rms          rms(c)
DAV:   1    -0.175827124558E+04   -0.26207E-03   -0.22380E-01 18648   0.509E-01    0.668E-02
DAV:   2    -0.175827174821E+04   -0.50263E-03   -0.53891E-03 20520   0.894E-02    0.472E-02
DAV:   3    -0.175827175728E+04   -0.90656E-05   -0.18006E-04 29016   0.169E-02    0.301E-02
DAV:   4    -0.175827176013E+04   -0.28581E-05   -0.23618E-05 26676   0.865E-03    0.203E-02
DAV:   5    -0.175827176166E+04   -0.15243E-05   -0.15800E-05 25836   0.674E-03    0.510E-03
DAV:   6    -0.175827176209E+04   -0.43251E-06   -0.36085E-06 17064   0.296E-03
  36 F= -.17582718E+04 E0= -.17582718E+04  d E =-.778429E-03  mag=     1.0000
 BRION: g(F)=  0.775E-03 g(S)=  0.000E+00 retain N=  2 mean eig= 0.39
 eig:   0.390  0.390
 bond charge predicted
       N       E                     dE             d eps       ncg     rms          rms(c)
DAV:   1    -0.175827186766E+04   -0.10600E-03   -0.53967E-03 18816   0.873E-02    0.149E-02
DAV:   2    -0.175827188399E+04   -0.16327E-04   -0.20330E-04 22476   0.212E-02    0.195E-02
DAV:   3    -0.175827188455E+04   -0.55673E-06   -0.13294E-05 24192   0.514E-03    0.137E-02
DAV:   4    -0.175827188481E+04   -0.26563E-06   -0.16360E-06 13992   0.272E-03
  37 F= -.17582719E+04 E0= -.17582719E+04  d E =-.122720E-03  mag=     1.0000
 BRION: g(F)=  0.745E-03 g(S)=  0.000E+00 retain N=  1 mean eig= 0.30
 eig:   0.298
 bond charge predicted
       N       E                     dE             d eps       ncg     rms          rms(c)
DAV:   1    -0.175827219942E+04   -0.31488E-03   -0.19226E-01 18720   0.461E-01    0.610E-02
DAV:   2    -0.175827261318E+04   -0.41376E-03   -0.44229E-03 19188   0.779E-02    0.368E-02
DAV:   3    -0.175827262173E+04   -0.85516E-05   -0.14215E-04 30024   0.139E-02    0.241E-02
DAV:   4    -0.175827262502E+04   -0.32910E-05   -0.18708E-05 25764   0.727E-03    0.135E-02
DAV:   5    -0.175827262665E+04   -0.16243E-05   -0.93831E-06 23772   0.500E-03    0.442E-03
DAV:   6    -0.175827262689E+04   -0.24828E-06   -0.17831E-06 12804   0.236E-03
  38 F= -.17582726E+04 E0= -.17582726E+04  d E =-.742084E-03  mag=     1.0000
 BRION: g(F)=  0.753E-03 g(S)=  0.000E+00 retain N=  2 mean eig= 0.34
 eig:   0.356  0.316
 bond charge predicted
       N       E                     dE             d eps       ncg     rms          rms(c)
DAV:   1    -0.175827286929E+04   -0.24265E-03   -0.38570E-02 18720   0.214E-01    0.288E-02
DAV:   2    -0.175827295758E+04   -0.88291E-04   -0.95793E-04 20700   0.385E-02    0.227E-02
DAV:   3    -0.175827295945E+04   -0.18674E-05   -0.35455E-05 28800   0.774E-03    0.144E-02
DAV:   4    -0.175827296013E+04   -0.67768E-06   -0.44807E-06 20424   0.408E-03
  39 F= -.17582730E+04 E0= -.17582730E+04  d E =-.333234E-03  mag=     1.0000
 BRION: g(F)=  0.744E-03 g(S)=  0.000E+00 retain N=  2 mean eig= 1.09
 eig:   0.205  1.969
 bond charge predicted
       N       E                     dE             d eps       ncg     rms          rms(c)
DAV:   1    -0.175827316517E+04   -0.20572E-03   -0.22021E-02 18744   0.158E-01    0.228E-02
DAV:   2    -0.175827321230E+04   -0.47128E-04   -0.52902E-04 21588   0.296E-02    0.208E-02
DAV:   3    -0.175827321351E+04   -0.12076E-05   -0.23491E-05 29664   0.653E-03    0.130E-02
DAV:   4    -0.175827321416E+04   -0.65714E-06   -0.25792E-06 16596   0.341E-03
  40 F= -.17582732E+04 E0= -.17582732E+04  d E =-.254034E-03  mag=     1.0000
 BRION: g(F)=  0.769E-03 g(S)=  0.000E+00 retain N=  2 mean eig= 0.77
 eig:   0.495  1.037
 bond charge predicted
       N       E                     dE             d eps       ncg     rms          rms(c)
DAV:   1    -0.175827342001E+04   -0.20651E-03   -0.24775E-02 18696   0.170E-01    0.237E-02
DAV:   2    -0.175827347476E+04   -0.54746E-04   -0.60645E-04 21180   0.311E-02    0.187E-02
DAV:   3    -0.175827347628E+04   -0.15181E-05   -0.26340E-05 28668   0.669E-03    0.116E-02
DAV:   4    -0.175827347673E+04   -0.45024E-06   -0.35128E-06 18780   0.358E-03
  41 F= -.17582735E+04 E0= -.17582735E+04  d E =-.262564E-03  mag=     1.0000
 BRION: g(F)=  0.800E-03 g(S)=  0.000E+00 retain N=  2 mean eig= 1.59
 eig:   0.400  2.784
 bond charge predicted
       N       E                     dE             d eps       ncg     rms          rms(c)
DAV:   1    -0.175827366476E+04   -0.18848E-03   -0.42187E-02 18792   0.251E-01    0.386E-02
DAV:   2    -0.175827378874E+04   -0.12398E-03   -0.15277E-03 22356   0.583E-02    0.537E-02
DAV:   3    -0.175827379189E+04   -0.31581E-05   -0.91869E-05 26916   0.135E-02    0.385E-02
DAV:   4    -0.175827379236E+04   -0.46194E-06   -0.13317E-05 25632   0.699E-03    0.292E-02
DAV:   5    -0.175827379031E+04    0.20508E-05   -0.10633E-05 23088   0.697E-03    0.960E-03
DAV:   6    -0.175827379008E+04    0.22646E-06   -0.65797E-06 19860   0.401E-03
  42 F= -.17582738E+04 E0= -.17582738E+04  d E =-.313352E-03  mag=     1.0000
 BRION: g(F)=  0.956E-03 g(S)=  0.000E+00 retain N=  2 mean eig= 0.35
 eig:   0.335  0.364
 bond charge predicted
       N       E                     dE             d eps       ncg     rms          rms(c)
DAV:   1    -0.175827385412E+04   -0.63818E-04   -0.94477E-03 18996   0.154E-01    0.297E-02
DAV:   2    -0.175827391459E+04   -0.60466E-04   -0.83707E-04 23400   0.486E-02    0.548E-02
DAV:   3    -0.175827391698E+04   -0.23941E-05   -0.62696E-05 21864   0.115E-02    0.418E-02
DAV:   4    -0.175827391658E+04    0.40824E-06   -0.72278E-06 21384   0.541E-03
  43 F= -.17582739E+04 E0= -.17582739E+04  d E =-.126496E-03  mag=     1.0000
 BRION: g(F)=  0.774E-03 g(S)=  0.000E+00 retain N=  2 mean eig= 0.91
 eig:   0.295  1.532
 bond charge predicted
       N       E                     dE             d eps       ncg     rms          rms(c)
DAV:   1    -0.175827425535E+04   -0.33837E-03   -0.11542E-01 18648   0.351E-01    0.498E-02
DAV:   2    -0.175827449965E+04   -0.24430E-03   -0.26465E-03 20400   0.606E-02    0.304E-02
DAV:   3    -0.175827450520E+04   -0.55409E-05   -0.91400E-05 29772   0.119E-02    0.187E-02
DAV:   4    -0.175827450775E+04   -0.25535E-05   -0.11046E-05 25296   0.620E-03    0.118E-02
DAV:   5    -0.175827450899E+04   -0.12388E-05   -0.60009E-06 21684   0.422E-03    0.390E-03
DAV:   6    -0.175827450914E+04   -0.15489E-06   -0.11411E-06 11496   0.195E-03
  44 F= -.17582745E+04 E0= -.17582745E+04  d E =-.592567E-03  mag=     1.0000
 BRION: g(F)=  0.766E-03 g(S)=  0.000E+00 retain N=  2 mean eig= 0.38
 eig:   0.308  0.456
 bond charge predicted
       N       E                     dE             d eps       ncg     rms          rms(c)
DAV:   1    -0.175827483777E+04   -0.32879E-03   -0.98544E-02 18648   0.329E-01    0.449E-02
DAV:   2    -0.175827505033E+04   -0.21255E-03   -0.22966E-03 20484   0.572E-02    0.303E-02
DAV:   3    -0.175827505512E+04   -0.47978E-05   -0.81396E-05 29472   0.110E-02    0.190E-02
DAV:   4    -0.175827505728E+04   -0.21533E-05   -0.99490E-06 24720   0.564E-03    0.122E-02
DAV:   5    -0.175827505817E+04   -0.89532E-06   -0.55519E-06 21744   0.413E-03
  45 F= -.17582751E+04 E0= -.17582751E+04  d E =-.549029E-03  mag=     1.0000
 BRION: g(F)=  0.764E-03 g(S)=  0.000E+00 retain N=  3 mean eig= 0.54
 eig:   0.720  0.335  0.556
 bond charge predicted
       N       E                     dE             d eps       ncg     rms          rms(c)
DAV:   1    -0.175827523434E+04   -0.17706E-03   -0.16490E-02 18828   0.149E-01    0.226E-02
DAV:   2    -0.175827527777E+04   -0.43430E-04   -0.51646E-04 22056   0.319E-02    0.267E-02
DAV:   3    -0.175827527886E+04   -0.10878E-05   -0.28591E-05 27600   0.733E-03    0.183E-02
DAV:   4    -0.175827527928E+04   -0.42657E-06   -0.37942E-06 20136   0.377E-03
  46 F= -.17582753E+04 E0= -.17582753E+04  d E =-.221112E-03  mag=     1.0000
 BRION: g(F)=  0.798E-03 g(S)=  0.000E+00 retain N=  1 mean eig= 0.21
 eig:   0.214
 bond charge predicted
       N       E                     dE             d eps       ncg     rms          rms(c)
DAV:   1    -0.175827562341E+04   -0.34455E-03   -0.11170E-01 18648   0.349E-01    0.485E-02
DAV:   2    -0.175827586067E+04   -0.23726E-03   -0.25796E-03 20328   0.607E-02    0.334E-02
DAV:   3    -0.175827586699E+04   -0.63190E-05   -0.95180E-05 29748   0.120E-02    0.209E-02
DAV:   4    -0.175827587003E+04   -0.30381E-05   -0.13458E-05 26424   0.661E-03    0.141E-02
DAV:   5    -0.175827587113E+04   -0.11053E-05   -0.67461E-06 22188   0.477E-03    0.424E-03
DAV:   6    -0.175827587127E+04   -0.13303E-06   -0.14686E-06 11976   0.221E-03
  47 F= -.17582759E+04 E0= -.17582759E+04  d E =-.591983E-03  mag=     1.0000
 BRION: g(F)=  0.845E-03 g(S)=  0.000E+00 retain N=  2 mean eig= 0.19
 eig:   0.199  0.184
 bond charge predicted
       N       E                     dE             d eps       ncg     rms          rms(c)
DAV:   1    -0.175827602634E+04   -0.15521E-03   -0.98973E-03 18744   0.109E-01    0.163E-02
DAV:   2    -0.175827604943E+04   -0.23092E-04   -0.26343E-04 21876   0.219E-02    0.164E-02
DAV:   3    -0.175827605003E+04   -0.59805E-06   -0.12939E-05 26364   0.503E-03    0.105E-02
DAV:   4    -0.175827605032E+04   -0.29319E-06   -0.13493E-06 14004   0.257E-03
  48 F= -.17582761E+04 E0= -.17582761E+04  d E =-.179058E-03  mag=     1.0000
 BRION: g(F)=  0.851E-03 g(S)=  0.000E+00 retain N=  1 mean eig= 0.15
 eig:   0.154
 bond charge predicted
       N       E                     dE             d eps       ncg     rms          rms(c)
DAV:   1    -0.175827632599E+04   -0.27596E-03   -0.15247E-01 18624   0.441E-01    0.634E-02
DAV:   2    -0.175827669564E+04   -0.36965E-03   -0.43184E-03 22008   0.911E-02    0.728E-02
DAV:   3    -0.175827670464E+04   -0.89954E-05   -0.23179E-04 27396   0.207E-02    0.491E-02
DAV:   4    -0.175827670758E+04   -0.29448E-05   -0.34645E-05 26916   0.106E-02    0.381E-02
DAV:   5    -0.175827670537E+04    0.22095E-05   -0.23842E-05 23664   0.955E-03    0.117E-02
DAV:   6    -0.175827670512E+04    0.25122E-06   -0.11579E-05 24900   0.530E-03    0.631E-03
DAV:   7    -0.175827670508E+04    0.41473E-07   -0.18244E-06 14160   0.214E-03
  49 F= -.17582767E+04 E0= -.17582767E+04  d E =-.654754E-03  mag=     1.0000
 BRION: g(F)=  0.108E-02 g(S)=  0.000E+00 retain N=  2 mean eig= 0.24
 eig:   0.313  0.165
 bond charge predicted
       N       E                     dE             d eps       ncg     rms          rms(c)
DAV:   1    -0.175827679183E+04   -0.86711E-04   -0.95020E-03 18864   0.147E-01    0.300E-02
DAV:   2    -0.175827684756E+04   -0.55724E-04   -0.82658E-04 22548   0.487E-02    0.548E-02
DAV:   3    -0.175827685026E+04   -0.27083E-05   -0.69751E-05 23076   0.116E-02    0.424E-02
DAV:   4    -0.175827684997E+04    0.29296E-06   -0.91654E-06 23460   0.546E-03
  50 F= -.17582768E+04 E0= -.17582768E+04  d E =-.144892E-03  mag=     1.0000
 BRION: g(F)=  0.865E-03 g(S)=  0.000E+00 retain N=  1 mean eig= 0.30
 eig:   0.300
 bond charge predicted
       N       E                     dE             d eps       ncg     rms          rms(c)
DAV:   1    -0.175827711446E+04   -0.26420E-03   -0.20476E-01 18624   0.508E-01    0.749E-02
DAV:   2    -0.175827760930E+04   -0.49484E-03   -0.57451E-03 21996   0.105E-01    0.837E-02
DAV:   3    -0.175827762199E+04   -0.12682E-04   -0.30184E-04 28260   0.242E-02    0.559E-02
DAV:   4    -0.175827762708E+04   -0.50916E-05   -0.46584E-05 26844   0.125E-02    0.430E-02
DAV:   5    -0.175827762584E+04    0.12362E-05   -0.31888E-05 25992   0.110E-02    0.129E-02
DAV:   6    -0.175827762537E+04    0.46898E-06   -0.11155E-05 24336   0.565E-03    0.776E-03
DAV:   7    -0.175827762530E+04    0.74127E-07   -0.31320E-06 16308   0.266E-03
  51 F= -.17582776E+04 E0= -.17582776E+04  d E =-.775327E-03  mag=     1.0000
 BRION: g(F)=  0.108E-02 g(S)=  0.000E+00 retain N=  2 mean eig= 0.29
 eig:   0.307  0.275
 bond charge predicted
       N       E                     dE             d eps       ncg     rms          rms(c)
DAV:   1    -0.175827782573E+04   -0.20036E-03   -0.20736E-02 18648   0.187E-01    0.321E-02
DAV:   2    -0.175827789757E+04   -0.71833E-04   -0.94968E-04 22728   0.499E-02    0.512E-02
DAV:   3    -0.175827790008E+04   -0.25118E-05   -0.69209E-05 26028   0.120E-02    0.380E-02
DAV:   4    -0.175827790047E+04   -0.39488E-06   -0.98303E-06 24084   0.564E-03
  52 F= -.17582779E+04 E0= -.17582779E+04  d E =-.275176E-03  mag=     1.0000
 BRION: g(F)=  0.841E-03 g(S)=  0.000E+00 retain N=  1 mean eig= 0.30
 eig:   0.298
 bond charge predicted
       N       E                     dE             d eps       ncg     rms          rms(c)
DAV:   1    -0.175827829295E+04   -0.39287E-03   -0.20965E-01 18624   0.467E-01    0.669E-02
DAV:   2    -0.175827872645E+04   -0.43351E-03   -0.47187E-03 19512   0.796E-02    0.373E-02
DAV:   3    -0.175827873917E+04   -0.12717E-04   -0.16943E-04 30384   0.152E-02    0.237E-02
DAV:   4    -0.175827874529E+04   -0.61212E-05   -0.22657E-05 26148   0.793E-03    0.134E-02
DAV:   5    -0.175827874725E+04   -0.19613E-05   -0.92257E-06 23412   0.531E-03    0.490E-03
DAV:   6    -0.175827874758E+04   -0.32518E-06   -0.23704E-06 14316   0.274E-03
  53 F= -.17582787E+04 E0= -.17582787E+04  d E =-.847105E-03  mag=     1.0000
 BRION: g(F)=  0.873E-03 g(S)=  0.000E+00 retain N=  2 mean eig= 0.17
 eig:   0.305  0.045
 bond charge predicted
       N       E                     dE             d eps       ncg     rms          rms(c)
DAV:   1    -0.175827882893E+04   -0.81677E-04   -0.21088E-03 18816   0.494E-02    0.811E-03
DAV:   2    -0.175827883383E+04   -0.48991E-05   -0.54582E-05 20952   0.933E-03    0.582E-03
DAV:   3    -0.175827883397E+04   -0.14409E-06   -0.18298E-06 13872   0.207E-03
  54 F= -.17582788E+04 E0= -.17582788E+04  d E =-.863950E-04  mag=     1.0000
 BRION: g(F)=  0.877E-03 g(S)=  0.000E+00 retain N=  2 mean eig= 3.23
 eig:   0.615  5.841
 bond charge predicted
       N       E                     dE             d eps       ncg     rms          rms(c)
DAV:   1    -0.175827017433E+04    0.86595E-02   -0.25771E+00 18636   0.163E+00    0.225E-01
DAV:   2    -0.175827560148E+04   -0.54271E-02   -0.57900E-02 19320   0.274E-01    0.135E-01
DAV:   3    -0.175827575136E+04   -0.14988E-03   -0.22590E-03 29820   0.491E-02    0.858E-02
DAV:   4    -0.175827579678E+04   -0.45417E-04   -0.21856E-04 24996   0.255E-02    0.472E-02
DAV:   5    -0.175827581964E+04   -0.22864E-04   -0.11570E-04 26016   0.177E-02    0.136E-02
DAV:   6    -0.175827582314E+04   -0.34974E-05   -0.22731E-05 26592   0.775E-03    0.935E-03
DAV:   7    -0.175827582353E+04   -0.38356E-06   -0.48372E-06 19848   0.324E-03
  55 F= -.17582758E+04 E0= -.17582758E+04  d E =0.301045E-02  mag=     1.0000
 BRION: g(F)=  0.119E-02 g(S)=  0.000E+00 retain N=  2 mean eig= 0.27
 eig:   0.267  0.267
 bond charge predicted
       N       E                     dE             d eps       ncg     rms          rms(c)
DAV:   1    -0.175827216145E+04    0.36617E-02   -0.31258E+00 18672   0.181E+00    0.250E-01
DAV:   2    -0.175827881186E+04   -0.66504E-02   -0.71456E-02 19140   0.307E-01    0.149E-01
DAV:   3    -0.175827902374E+04   -0.21188E-03   -0.31317E-03 29964   0.559E-02    0.969E-02
DAV:   4    -0.175827908237E+04   -0.58625E-04   -0.26982E-04 25680   0.281E-02    0.556E-02
DAV:   5    -0.175827911312E+04   -0.30755E-04   -0.14638E-04 25200   0.202E-02    0.156E-02
DAV:   6    -0.175827911944E+04   -0.63149E-05   -0.36546E-05 26304   0.972E-03    0.109E-02
DAV:   7    -0.175827911972E+04   -0.28839E-06   -0.59901E-06 21732   0.368E-03
  56 F= -.17582791E+04 E0= -.17582791E+04  d E =-.329620E-02  mag=     1.0000
 BRION: g(F)=  0.102E-02 g(S)=  0.000E+00 retain N=  2 mean eig= 1.82
 eig:   0.057  3.581
 bond charge predicted
       N       E                     dE             d eps       ncg     rms          rms(c)
DAV:   1    -0.175827937021E+04   -0.25077E-03   -0.35102E-02 18744   0.226E-01    0.343E-02
DAV:   2    -0.175827947249E+04   -0.10228E-03   -0.12190E-03 22080   0.503E-02    0.397E-02
DAV:   3    -0.175827947541E+04   -0.29260E-05   -0.71168E-05 27036   0.118E-02    0.271E-02
DAV:   4    -0.175827947600E+04   -0.59235E-06   -0.11304E-05 24936   0.617E-03    0.218E-02
DAV:   5    -0.175827947501E+04    0.99902E-06   -0.68139E-06 21732   0.540E-03
  57 F= -.17582795E+04 E0= -.17582795E+04  d E =-.355281E-03  mag=     1.0000
 BRION: g(F)=  0.877E-03 g(S)=  0.000E+00 retain N=  2 mean eig= 0.17
 eig:   0.233  0.097
 bond charge predicted
       N       E                     dE             d eps       ncg     rms          rms(c)
DAV:   1    -0.175827952526E+04   -0.49257E-04   -0.11379E-03 18948   0.408E-02    0.908E-03
DAV:   2    -0.175827952887E+04   -0.36135E-05   -0.51922E-05 23400   0.116E-02    0.129E-02
DAV:   3    -0.175827952889E+04   -0.11205E-07   -0.34282E-06 16068   0.305E-03
  58 F= -.17582795E+04 E0= -.17582795E+04  d E =-.538806E-04  mag=     1.0000
 BRION: g(F)=  0.893E-03 g(S)=  0.000E+00 retain N=  3 mean eig= 1.12
 eig:   2.172  0.591  0.591
 bond charge predicted
       N       E                     dE             d eps       ncg     rms          rms(c)
DAV:   1    -0.175827905316E+04    0.47572E-03   -0.39213E-02 18648   0.212E-01    0.307E-02
DAV:   2    -0.175827914478E+04   -0.91623E-04   -0.10102E-03 21708   0.404E-02    0.313E-02
DAV:   3    -0.175827914646E+04   -0.16802E-05   -0.40809E-05 28524   0.839E-03    0.213E-02
DAV:   4    -0.175827914727E+04   -0.81401E-06   -0.62524E-06 21936   0.486E-03
  59 F= -.17582791E+04 E0= -.17582791E+04  d E =0.381611E-03  mag=     1.0000
 BRION: g(F)=  0.994E-03 g(S)=  0.000E+00 retain N=  3 mean eig= 1.67
 eig:   4.407  0.306  0.306
 bond charge predicted
       N       E                     dE             d eps       ncg     rms          rms(c)
DAV:   1    -0.175827950080E+04   -0.35433E-03   -0.30117E-01 18624   0.573E-01    0.796E-02
DAV:   2    -0.175828015308E+04   -0.65228E-03   -0.71741E-03 21348   0.105E-01    0.667E-02
DAV:   3    -0.175828016717E+04   -0.14094E-04   -0.29418E-04 29208   0.224E-02    0.412E-02
DAV:   4    -0.175828017470E+04   -0.75270E-05   -0.35863E-05 26664   0.114E-02    0.295E-02
DAV:   5    -0.175828017702E+04   -0.23201E-05   -0.24418E-05 26184   0.923E-03    0.670E-03
DAV:   6    -0.175828017757E+04   -0.54619E-06   -0.59478E-06 19740   0.394E-03
  60 F= -.17582802E+04 E0= -.17582802E+04  d E =-.103029E-02  mag=     1.0000
 BRION: g(F)=  0.102E-02 g(S)=  0.000E+00 retain N=  3 mean eig= 1.79
 eig:   4.875  0.338  0.145
 bond charge predicted
       N       E                     dE             d eps       ncg     rms          rms(c)
DAV:   1    -0.175828026790E+04   -0.90880E-04   -0.77300E-03 18792   0.130E-01    0.216E-02
DAV:   2    -0.175828030792E+04   -0.40015E-04   -0.52092E-04 21948   0.358E-02    0.312E-02
DAV:   3    -0.175828030925E+04   -0.13300E-05   -0.39153E-05 25164   0.870E-03    0.227E-02
DAV:   4    -0.175828030861E+04    0.64095E-06   -0.49240E-06 20520   0.445E-03
  61 F= -.17582803E+04 E0= -.17582803E+04  d E =-.131038E-03  mag=     1.0000
 BRION: g(F)=  0.962E-03 g(S)=  0.000E+00 retain N=  3 mean eig= 1.14
 eig:   2.879  0.266  0.266
 bond charge predicted
       N       E                     dE             d eps       ncg     rms          rms(c)
DAV:   1    -0.175828047271E+04   -0.16346E-03   -0.14280E-02 18840   0.138E-01    0.228E-02
DAV:   2    -0.175828051063E+04   -0.37925E-04   -0.46201E-04 22296   0.313E-02    0.269E-02
DAV:   3    -0.175828051113E+04   -0.49680E-06   -0.25247E-05 27936   0.742E-03    0.181E-02
DAV:   4    -0.175828051130E+04   -0.16572E-06   -0.32471E-06 17856   0.426E-03
  62 F= -.17582805E+04 E0= -.17582805E+04  d E =-.202690E-03  mag=     1.0000
 BRION: g(F)=  0.909E-03 g(S)=  0.000E+00 retain N=  3 mean eig= 1.82
 eig:   4.692  0.377  0.377
 bond charge predicted
       N       E                     dE             d eps       ncg     rms          rms(c)
DAV:   1    -0.175828093169E+04   -0.42056E-03   -0.27719E-01 18624   0.532E-01    0.759E-02
DAV:   2    -0.175828150753E+04   -0.57585E-03   -0.62484E-03 19260   0.906E-02    0.462E-02
DAV:   3    -0.175828152420E+04   -0.16665E-04   -0.22466E-04 30312   0.172E-02    0.285E-02
DAV:   4    -0.175828153371E+04   -0.95053E-05   -0.28310E-05 26340   0.927E-03    0.167E-02
DAV:   5    -0.175828153694E+04   -0.32377E-05   -0.13320E-05 26076   0.626E-03    0.506E-03
DAV:   6    -0.175828153735E+04   -0.40681E-06   -0.23496E-06 15420   0.274E-03
  63 F= -.17582815E+04 E0= -.17582815E+04  d E =-.102605E-02  mag=     1.0000
 BRION: g(F)=  0.936E-03 g(S)=  0.000E+00 retain N=  4 mean eig= 2.00
 eig:   7.052  0.029  0.452  0.452
 bond charge predicted
       N       E                     dE             d eps       ncg     rms          rms(c)
DAV:   1    -0.175828161435E+04   -0.77405E-04   -0.18012E-03 18912   0.482E-02    0.803E-03
DAV:   2    -0.175828161896E+04   -0.46153E-05   -0.54194E-05 22128   0.104E-02    0.844E-03
DAV:   3    -0.175828161906E+04   -0.97411E-07   -0.23950E-06 15000   0.243E-03
  64 F= -.17582816E+04 E0= -.17582816E+04  d E =-.817112E-04  mag=     1.0000
 BRION: g(F)=  0.939E-03 g(S)=  0.000E+00 retain N=  4 mean eig= 1.73
 eig:   5.805  0.051  0.532  0.532
 bond charge predicted
       N       E                     dE             d eps       ncg     rms          rms(c)
DAV:   1    -0.175827724297E+04    0.43760E-02   -0.10816E+00 18744   0.105E+00    0.147E-01
DAV:   2    -0.175827949219E+04   -0.22492E-02   -0.24095E-02 19608   0.176E-01    0.900E-02
DAV:   3    -0.175827954654E+04   -0.54353E-04   -0.85063E-04 29772   0.321E-02    0.558E-02
DAV:   4    -0.175827957169E+04   -0.25150E-04   -0.11081E-04 25344   0.170E-02    0.320E-02
DAV:   5    -0.175827958161E+04   -0.99170E-05   -0.48312E-05 26304   0.116E-02    0.899E-03
DAV:   6    -0.175827958314E+04   -0.15343E-05   -0.91865E-06 24552   0.491E-03    0.619E-03
DAV:   7    -0.175827958329E+04   -0.14692E-06   -0.18270E-06 14616   0.219E-03
  65 F= -.17582796E+04 E0= -.17582796E+04  d E =0.203577E-02  mag=     1.0000
 BRION: g(F)=  0.106E-02 g(S)=  0.000E+00 retain N=  2 mean eig= 0.36
 eig:   0.259  0.469
 bond charge predicted
       N       E                     dE             d eps       ncg     rms          rms(c)
DAV:   1    -0.175827895543E+04    0.62771E-03   -0.13210E+00 18624   0.116E+00    0.165E-01
DAV:   2    -0.175828167450E+04   -0.27191E-02   -0.29643E-02 21168   0.201E-01    0.117E-01
DAV:   3    -0.175828175542E+04   -0.80925E-04   -0.12249E-03 29760   0.393E-02    0.724E-02
DAV:   4    -0.175828179474E+04   -0.39314E-04   -0.14025E-04 26352   0.211E-02    0.487E-02
DAV:   5    -0.175828180957E+04   -0.14834E-04   -0.79576E-05 26136   0.158E-02    0.118E-02
DAV:   6    -0.175828181195E+04   -0.23830E-05   -0.17562E-05 25452   0.686E-03    0.835E-03
DAV:   7    -0.175828181225E+04   -0.29744E-06   -0.44764E-06 19536   0.311E-03
  66 F= -.17582818E+04 E0= -.17582818E+04  d E =-.222896E-02  mag=     1.0000
 BRION: g(F)=  0.109E-02 g(S)=  0.000E+00 retain N=  2 mean eig= 1.34
 eig:   0.069  2.606
 bond charge predicted
       N       E                     dE             d eps       ncg     rms          rms(c)
DAV:   1    -0.175828208188E+04   -0.26993E-03   -0.36980E-02 18648   0.230E-01    0.364E-02
DAV:   2    -0.175828219139E+04   -0.10951E-03   -0.13224E-03 22428   0.529E-02    0.475E-02
DAV:   3    -0.175828219445E+04   -0.30604E-05   -0.77784E-05 27084   0.125E-02    0.331E-02
DAV:   4    -0.175828219579E+04   -0.13359E-05   -0.11594E-05 25572   0.612E-03    0.254E-02
DAV:   5    -0.175828219488E+04    0.90798E-06   -0.82406E-06 22704   0.582E-03
  67 F= -.17582822E+04 E0= -.17582822E+04  d E =-.382630E-03  mag=     1.0000
 BRION: g(F)=  0.945E-03 g(S)=  0.000E+00 retain N=  2 mean eig= 0.40
 eig:   0.222  0.579
 bond charge predicted
       N       E                     dE             d eps       ncg     rms          rms(c)
DAV:   1    -0.175828225383E+04   -0.58040E-04   -0.13672E-03 18816   0.469E-02    0.105E-02
DAV:   2    -0.175828225884E+04   -0.50133E-05   -0.72833E-05 23568   0.142E-02    0.154E-02
DAV:   3    -0.175828225891E+04   -0.64436E-07   -0.55870E-06 18396   0.383E-03
  68 F= -.17582823E+04 E0= -.17582823E+04  d E =-.640260E-04  mag=     1.0000
 BRION: g(F)=  0.959E-03 g(S)=  0.000E+00 retain N=  3 mean eig= 3.02
 eig:   7.857  0.606  0.606
 bond charge predicted
       N       E                     dE             d eps       ncg     rms          rms(c)
DAV:   1    -0.175828041271E+04    0.18461E-02   -0.32043E-01 18624   0.574E-01    0.816E-02
DAV:   2    -0.175828108528E+04   -0.67257E-03   -0.72913E-03 20532   0.101E-01    0.598E-02
DAV:   3    -0.175828110104E+04   -0.15761E-04   -0.27842E-04 29448   0.206E-02    0.365E-02
DAV:   4    -0.175828110924E+04   -0.81935E-05   -0.34946E-05 26736   0.113E-02    0.247E-02
DAV:   5    -0.175828111208E+04   -0.28492E-05   -0.20067E-05 26280   0.831E-03    0.596E-03
DAV:   6    -0.175828111254E+04   -0.45600E-06   -0.44091E-06 18492   0.349E-03
  69 F= -.17582811E+04 E0= -.17582811E+04  d E =0.114637E-02  mag=     1.0000
 BRION: g(F)=  0.111E-02 g(S)=  0.000E+00 retain N=  3 mean eig= 1.60
 eig:   4.186  0.307  0.307
 bond charge predicted
       N       E                     dE             d eps       ncg     rms          rms(c)
DAV:   1    -0.175828139516E+04   -0.28307E-03   -0.44802E-01 18624   0.705E-01    0.101E-01
DAV:   2    -0.175828237250E+04   -0.97734E-03   -0.10996E-02 21828   0.134E-01    0.970E-02
DAV:   3    -0.175828239644E+04   -0.23945E-04   -0.50472E-04 29448   0.294E-02    0.626E-02
DAV:   4    -0.175828241146E+04   -0.15015E-04   -0.72405E-05 26628   0.155E-02    0.461E-02
DAV:   5    -0.175828241406E+04   -0.25982E-05   -0.47217E-05 26196   0.128E-02    0.118E-02
DAV:   6    -0.175828241451E+04   -0.45521E-06   -0.12983E-05 23808   0.581E-03    0.725E-03
DAV:   7    -0.175828241459E+04   -0.76281E-07   -0.28517E-06 15900   0.265E-03
  70 F= -.17582824E+04 E0= -.17582824E+04  d E =-.130205E-02  mag=     1.0000
 BRION: g(F)=  0.120E-02 g(S)=  0.000E+00 retain N=  3 mean eig= 1.35
 eig:   3.593  0.274  0.190
 bond charge predicted
       N       E                     dE             d eps       ncg     rms          rms(c)
DAV:   1    -0.175828241128E+04    0.32321E-05   -0.93671E-03 19428   0.152E-01    0.353E-02
DAV:   2    -0.175828247833E+04   -0.67052E-04   -0.10461E-03 22584   0.556E-02    0.697E-02
DAV:   3    -0.175828248189E+04   -0.35545E-05   -0.86580E-05 21864   0.131E-02    0.557E-02
DAV:   4    -0.175828248153E+04    0.35524E-06   -0.15397E-05 24672   0.670E-03    0.443E-02
DAV:   5    -0.175828247769E+04    0.38386E-05   -0.12169E-05 24276   0.713E-03    0.172E-02
DAV:   6    -0.175828247594E+04    0.17578E-05   -0.65452E-06 22008   0.478E-03    0.103E-02
DAV:   7    -0.175828247554E+04    0.39084E-06   -0.31666E-06 16500   0.253E-03
  71 F= -.17582825E+04 E0= -.17582825E+04  d E =-.609557E-04  mag=     1.0000
 BRION: g(F)=  0.114E-02 g(S)=  0.000E+00 retain N=  3 mean eig= 2.06
 eig:   5.726  0.117  0.340
 bond charge predicted
       N       E                     dE             d eps       ncg     rms          rms(c)
DAV:   1    -0.175828290556E+04   -0.42963E-03   -0.12924E-01 18648   0.379E-01    0.563E-02
DAV:   2    -0.175828319586E+04   -0.29030E-03   -0.32928E-03 21948   0.736E-02    0.561E-02
DAV:   3    -0.175828320245E+04   -0.65950E-05   -0.15050E-04 28956   0.165E-02    0.361E-02
DAV:   4    -0.175828320700E+04   -0.45519E-05   -0.19233E-05 26628   0.844E-03    0.257E-02
DAV:   5    -0.175828320779E+04   -0.78927E-06   -0.14680E-05 26244   0.723E-03    0.594E-03
DAV:   6    -0.175828320792E+04   -0.12497E-06   -0.30249E-06 17472   0.291E-03
  72 F= -.17582832E+04 E0= -.17582832E+04  d E =-.732375E-03  mag=     1.0000
 BRION: g(F)=  0.981E-03 g(S)=  0.000E+00 retain N=  3 mean eig= 1.14
 eig:   2.785  0.320  0.320
 bond charge predicted
       N       E                     dE             d eps       ncg     rms          rms(c)
DAV:   1    -0.175828344434E+04   -0.23655E-03   -0.18567E-02 18648   0.137E-01    0.208E-02
DAV:   2    -0.175828348289E+04   -0.38547E-04   -0.42238E-04 20016   0.237E-02    0.123E-02
DAV:   3    -0.175828348415E+04   -0.12596E-05   -0.15563E-05 28956   0.464E-03    0.741E-03
DAV:   4    -0.175828348481E+04   -0.66331E-06   -0.14715E-06 14844   0.250E-03
  73 F= -.17582835E+04 E0= -.17582835E+04  d E =-.276892E-03  mag=     1.0000
 BRION: g(F)=  0.100E-02 g(S)=  0.000E+00 retain N=  4 mean eig= 1.07
 eig:   2.769  0.591  0.452  0.452
 bond charge predicted
       N       E                     dE             d eps       ncg     rms          rms(c)
DAV:   1    -0.175828300491E+04    0.47924E-03   -0.36998E-02 18696   0.203E-01    0.287E-02
DAV:   2    -0.175828308783E+04   -0.82924E-04   -0.91604E-04 21192   0.382E-02    0.258E-02
DAV:   3    -0.175828308959E+04   -0.17578E-05   -0.40125E-05 28416   0.832E-03    0.164E-02
DAV:   4    -0.175828309028E+04   -0.68778E-06   -0.52732E-06 21624   0.456E-03
  74 F= -.17582831E+04 E0= -.17582831E+04  d E =0.394535E-03  mag=     1.0000
 BRION: g(F)=  0.106E-02 g(S)=  0.000E+00 retain N=  4 mean eig= 2.04
 eig:   7.019  0.316  0.316  0.516
 bond charge predicted
       N       E                     dE             d eps       ncg     rms          rms(c)
DAV:   1    -0.175827460142E+04    0.84882E-02   -0.24841E+00 18624   0.155E+00    0.227E-01
DAV:   2    -0.175827966847E+04   -0.50670E-02   -0.54529E-02 19320   0.259E-01    0.131E-01
DAV:   3    -0.175827985345E+04   -0.18498E-03   -0.24267E-03 30408   0.477E-02    0.801E-02
DAV:   4    -0.175827991858E+04   -0.65134E-04   -0.20973E-04 25128   0.246E-02    0.442E-02
DAV:   5    -0.175827994560E+04   -0.27016E-04   -0.10218E-04 26460   0.169E-02    0.130E-02
DAV:   6    -0.175827994986E+04   -0.42642E-05   -0.20225E-05 26760   0.717E-03    0.877E-03
DAV:   7    -0.175827995012E+04   -0.25568E-06   -0.32444E-06 18156   0.282E-03
  75 F= -.17582800E+04 E0= -.17582800E+04  d E =0.314015E-02  mag=     1.0000
 BRION: g(F)=  0.974E-03 g(S)=  0.000E+00 retain N=  5 mean eig= 2.03
 eig:   6.769  2.383  0.272  0.185  0.522
 bond charge predicted
       N       E                     dE             d eps       ncg     rms          rms(c)
DAV:   1    -0.175827080482E+04    0.91450E-02   -0.27449E+00 18624   0.163E+00    0.239E-01
DAV:   2    -0.175827643873E+04   -0.56339E-02   -0.60610E-02 19308   0.273E-01    0.133E-01
DAV:   3    -0.175827666486E+04   -0.22612E-03   -0.28191E-03 30444   0.498E-02    0.816E-02
DAV:   4    -0.175827674203E+04   -0.77173E-04   -0.23285E-04 24144   0.245E-02    0.437E-02
DAV:   5    -0.175827677154E+04   -0.29515E-04   -0.99403E-05 26712   0.164E-02    0.135E-02
DAV:   6    -0.175827677658E+04   -0.50388E-05   -0.20145E-05 26664   0.720E-03    0.880E-03
DAV:   7    -0.175827677718E+04   -0.59616E-06   -0.41646E-06 18540   0.292E-03
  76 F= -.17582768E+04 E0= -.17582768E+04  d E =0.317294E-02  mag=     1.0000
 BRION: g(F)=  0.947E-03 g(S)=  0.000E+00 retain N=  3 mean eig= 2.52
 eig:   6.954  0.355  0.261
 bond charge predicted
       N       E                     dE             d eps       ncg     rms          rms(c)
DAV:   1    -0.175827639748E+04    0.37910E-03   -0.30015E-02 18648   0.256E-01    0.454E-02
DAV:   2    -0.175827659051E+04   -0.19303E-03   -0.23795E-03 22296   0.760E-02    0.713E-02
DAV:   3    -0.175827659790E+04   -0.73881E-05   -0.16169E-04 25692   0.181E-02    0.525E-02
DAV:   4    -0.175827659811E+04   -0.20588E-06   -0.20113E-05 26664   0.815E-03    0.423E-02
DAV:   5    -0.175827659409E+04    0.40205E-05   -0.17218E-05 23820   0.909E-03    0.144E-02
DAV:   6    -0.175827659293E+04    0.11546E-05   -0.79055E-06 21852   0.507E-03    0.911E-03
DAV:   7    -0.175827659273E+04    0.20233E-06   -0.29199E-06 15012   0.247E-03
  77 F= -.17582766E+04 E0= -.17582766E+04  d E =0.184450E-03  mag=     1.0000
 BRION: g(F)=  0.967E-03 g(S)=  0.000E+00 retain N=  3 mean eig= 1.79
 eig:   4.709  0.340  0.317
 bond charge predicted
       N       E                     dE             d eps       ncg     rms          rms(c)
DAV:   1    -0.175827277074E+04    0.38222E-02   -0.94416E-01 18624   0.961E-01    0.143E-01
DAV:   2    -0.175827471043E+04   -0.19397E-02   -0.21150E-02 20316   0.169E-01    0.951E-02
DAV:   3    -0.175827477439E+04   -0.63959E-04   -0.89699E-04 30132   0.343E-02    0.570E-02
DAV:   4    -0.175827480845E+04   -0.34060E-04   -0.11442E-04 26508   0.187E-02    0.377E-02
DAV:   5    -0.175827481934E+04   -0.10895E-04   -0.52404E-05 26268   0.131E-02    0.965E-03
DAV:   6    -0.175827482122E+04   -0.18754E-05   -0.11214E-05 24780   0.535E-03    0.679E-03
DAV:   7    -0.175827482150E+04   -0.28042E-06   -0.27516E-06 15588   0.254E-03
  78 F= -.17582748E+04 E0= -.17582748E+04  d E =0.177123E-02  mag=     1.0000
 BRION: g(F)=  0.882E-03 g(S)=  0.000E+00 retain N=  2 mean eig= 1.15
 eig:   0.327  1.965
 bond charge predicted
       N       E                     dE             d eps       ncg     rms          rms(c)
DAV:   1    -0.175827441097E+04    0.41025E-03   -0.10419E+00 18624   0.103E+00    0.147E-01
DAV:   2    -0.175827658043E+04   -0.21695E-02   -0.23529E-02 19404   0.177E-01    0.906E-02
DAV:   3    -0.175827664702E+04   -0.66595E-04   -0.94453E-04 30120   0.334E-02    0.564E-02
DAV:   4    -0.175827668131E+04   -0.34289E-04   -0.12114E-04 26220   0.179E-02    0.345E-02
DAV:   5    -0.175827669230E+04   -0.10993E-04   -0.51692E-05 26304   0.124E-02    0.931E-03
DAV:   6    -0.175827669454E+04   -0.22351E-05   -0.11416E-05 25476   0.548E-03    0.622E-03
DAV:   7    -0.175827669470E+04   -0.15972E-06   -0.20059E-06 15444   0.234E-03
  79 F= -.17582767E+04 E0= -.17582767E+04  d E =-.187320E-02  mag=     1.0000
 BRION: g(F)=  0.860E-03 g(S)=  0.000E+00 retain N=  2 mean eig= 0.56
 eig:   0.078  1.033
 bond charge predicted
       N       E                     dE             d eps       ncg     rms          rms(c)
DAV:   1    -0.175827667270E+04    0.21835E-04   -0.42409E-03 18648   0.905E-02    0.158E-02
DAV:   2    -0.175827669009E+04   -0.17386E-04   -0.23334E-04 22896   0.258E-02    0.266E-02
DAV:   3    -0.175827669076E+04   -0.67143E-06   -0.17624E-05 22584   0.613E-03    0.201E-02
DAV:   4    -0.175827669070E+04    0.64640E-07   -0.17586E-06 14496   0.306E-03
  80 F= -.17582767E+04 E0= -.17582767E+04  d E =0.400183E-05  mag=     1.0000
 BRION: g(F)=  0.825E-03 g(S)=  0.000E+00 retain N=  3 mean eig= 2.43
 eig:   6.853  0.056  0.375
 bond charge predicted
       N       E                     dE             d eps       ncg     rms          rms(c)
DAV:   1    -0.175827675907E+04   -0.68304E-04   -0.18660E-03 18792   0.487E-02    0.103E-02
DAV:   2    -0.175827676289E+04   -0.38224E-05   -0.54643E-05 22320   0.110E-02    0.785E-03
DAV:   3    -0.175827676286E+04    0.31781E-07   -0.31504E-06 16776   0.333E-03
  81 F= -.17582768E+04 E0= -.17582768E+04  d E =-.721590E-04  mag=     1.0000
 BRION: g(F)=  0.822E-03 g(S)=  0.000E+00 retain N=  3 mean eig= 1.16
 eig:   2.633  0.427  0.427
 bond charge predicted
       N       E                     dE             d eps       ncg     rms          rms(c)
DAV:   1    -0.175827663843E+04    0.12445E-03   -0.39814E-03 18648   0.744E-02    0.115E-02
DAV:   2    -0.175827665002E+04   -0.11584E-04   -0.13512E-04 22080   0.168E-02    0.150E-02
DAV:   3    -0.175827665025E+04   -0.22902E-06   -0.70327E-06 20388   0.380E-03
  82 F= -.17582767E+04 E0= -.17582767E+04  d E =0.112609E-03  mag=     1.0000
 BRION: g(F)=  0.830E-03 g(S)=  0.000E+00 retain N=  3 mean eig= 0.72
 eig:   1.499  0.328  0.328
 bond charge predicted
       N       E                     dE             d eps       ncg     rms          rms(c)
DAV:   1    -0.175827699281E+04   -0.34279E-03   -0.18907E-01 18624   0.461E-01    0.643E-02
DAV:   2    -0.175827741402E+04   -0.42121E-03   -0.46426E-03 21324   0.859E-02    0.538E-02
DAV:   3    -0.175827742304E+04   -0.90177E-05   -0.19693E-04 28740   0.188E-02    0.327E-02
DAV:   4    -0.175827742711E+04   -0.40670E-05   -0.22278E-05 26724   0.928E-03    0.242E-02
DAV:   5    -0.175827742838E+04   -0.12736E-05   -0.16093E-05 25956   0.751E-03    0.542E-03
DAV:   6    -0.175827742870E+04   -0.31752E-06   -0.38232E-06 18072   0.318E-03
  83 F= -.17582774E+04 E0= -.17582774E+04  d E =-.778451E-03  mag=     1.0000
 BRION: g(F)=  0.896E-03 g(S)=  0.000E+00 retain N=  3 mean eig= 1.97
 eig:   5.383  0.148  0.377
 bond charge predicted
       N       E                     dE             d eps       ncg     rms          rms(c)
DAV:   1    -0.175827745368E+04   -0.25296E-04   -0.48387E-03 18744   0.112E-01    0.212E-02
DAV:   2    -0.175827748758E+04   -0.33904E-04   -0.45624E-04 22620   0.357E-02    0.375E-02
DAV:   3    -0.175827748898E+04   -0.14036E-05   -0.33926E-05 24192   0.830E-03    0.289E-02
DAV:   4    -0.175827748885E+04    0.13851E-06   -0.43614E-06 19992   0.403E-03
  84 F= -.17582775E+04 E0= -.17582775E+04  d E =-.601484E-04  mag=     1.0000
 BRION: g(F)=  0.868E-03 g(S)=  0.000E+00 retain N=  3 mean eig= 0.82
 eig:   2.103  0.346  0.011
 bond charge predicted
       N       E                     dE             d eps       ncg     rms          rms(c)
DAV:   1    -0.175827766418E+04   -0.17519E-03   -0.20671E-02 18648   0.173E-01    0.259E-02
DAV:   2    -0.175827772074E+04   -0.56563E-04   -0.67213E-04 22248   0.385E-02    0.335E-02
DAV:   3    -0.175827772155E+04   -0.81165E-06   -0.33619E-05 25992   0.890E-03    0.231E-02
DAV:   4    -0.175827772134E+04    0.21319E-06   -0.45093E-06 20184   0.426E-03
  85 F= -.17582777E+04 E0= -.17582777E+04  d E =-.232494E-03  mag=     1.0000
 BRION: g(F)=  0.820E-03 g(S)=  0.000E+00 retain N=  3 mean eig= 1.84
 eig:   0.181  0.436  4.910
 bond charge predicted
       N       E                     dE             d eps       ncg     rms          rms(c)
DAV:   1    -0.175827796838E+04   -0.24682E-03   -0.28330E-02 18648   0.173E-01    0.253E-02
DAV:   2    -0.175827802623E+04   -0.57853E-04   -0.63674E-04 21168   0.304E-02    0.173E-02
DAV:   3    -0.175827802781E+04   -0.15820E-05   -0.25151E-05 29988   0.637E-03    0.105E-02
DAV:   4    -0.175827802856E+04   -0.74884E-06   -0.24644E-06 17268   0.338E-03
  86 F= -.17582780E+04 E0= -.17582780E+04  d E =-.307220E-03  mag=     1.0000
 BRION: g(F)=  0.834E-03 g(S)=  0.000E+00 retain N=  3 mean eig= 1.71
 eig:   4.674  0.298  0.150
 bond charge predicted
       N       E                     dE             d eps       ncg     rms          rms(c)
DAV:   1    -0.175827811178E+04   -0.83972E-04   -0.67149E-03 18840   0.113E-01    0.207E-02
DAV:   2    -0.175827814133E+04   -0.29549E-04   -0.40209E-04 22824   0.330E-02    0.330E-02
DAV:   3    -0.175827814288E+04   -0.15511E-05   -0.33993E-05 25704   0.811E-03    0.246E-02
DAV:   4    -0.175827814315E+04   -0.26944E-06   -0.49032E-06 21204   0.403E-03
  87 F= -.17582781E+04 E0= -.17582781E+04  d E =-.114593E-03  mag=     1.0000
 BRION: g(F)=  0.917E-03 g(S)=  0.000E+00 retain N=  2 mean eig= 0.52
 eig:   0.340  0.701
 bond charge predicted
       N       E                     dE             d eps       ncg     rms          rms(c)
DAV:   1    -0.175827833851E+04   -0.19563E-03   -0.23290E-02 18648   0.184E-01    0.312E-02
DAV:   2    -0.175827840401E+04   -0.65505E-04   -0.84586E-04 22296   0.468E-02    0.458E-02
DAV:   3    -0.175827840557E+04   -0.15569E-05   -0.56759E-05 27096   0.113E-02    0.324E-02
DAV:   4    -0.175827840582E+04   -0.25216E-06   -0.60725E-06 20988   0.544E-03
  88 F= -.17582784E+04 E0= -.17582784E+04  d E =-.262670E-03  mag=     1.0000
 BRION: g(F)=  0.900E-03 g(S)=  0.000E+00 retain N=  2 mean eig= 1.51
 eig:   0.289  2.733
 bond charge predicted
       N       E                     dE             d eps       ncg     rms          rms(c)
DAV:   1    -0.175827869660E+04   -0.29103E-03   -0.55012E-02 18648   0.262E-01    0.382E-02
DAV:   2    -0.175827882859E+04   -0.13199E-03   -0.15079E-03 21900   0.535E-02    0.438E-02
DAV:   3    -0.175827883164E+04   -0.30458E-05   -0.73640E-05 28752   0.121E-02    0.292E-02
DAV:   4    -0.175827883304E+04   -0.13978E-05   -0.84280E-06 23316   0.590E-03    0.207E-02
DAV:   5    -0.175827883306E+04   -0.19209E-07   -0.76231E-06 22944   0.560E-03
  89 F= -.17582788E+04 E0= -.17582788E+04  d E =-.427234E-03  mag=     1.0000
 BRION: g(F)=  0.815E-03 g(S)=  0.000E+00 retain N=  2 mean eig= 0.31
 eig:   0.242  0.373
 bond charge predicted
       N       E                     dE             d eps       ncg     rms          rms(c)
DAV:   1    -0.175827923462E+04   -0.40158E-03   -0.16049E-01 18624   0.406E-01    0.584E-02
DAV:   2    -0.175827956802E+04   -0.33340E-03   -0.36214E-03 20304   0.697E-02    0.372E-02
DAV:   3    -0.175827957743E+04   -0.94090E-05   -0.13258E-04 29952   0.137E-02    0.225E-02
DAV:   4    -0.175827958271E+04   -0.52823E-05   -0.16120E-05 26880   0.740E-03    0.145E-02
DAV:   5    -0.175827958463E+04   -0.19181E-05   -0.79037E-06 23208   0.499E-03    0.408E-03
DAV:   6    -0.175827958491E+04   -0.28129E-06   -0.14608E-06 12756   0.206E-03
  90 F= -.17582796E+04 E0= -.17582796E+04  d E =-.751856E-03  mag=     1.0000
 BRION: g(F)=  0.863E-03 g(S)=  0.000E+00 retain N=  3 mean eig= 1.66
 eig:   4.256  0.358  0.358
 bond charge predicted
       N       E                     dE             d eps       ncg     rms          rms(c)
DAV:   1    -0.175827866494E+04    0.91969E-03   -0.12199E-01 18636   0.353E-01    0.485E-02
DAV:   2    -0.175827891581E+04   -0.25087E-03   -0.26931E-03 20040   0.598E-02    0.313E-02
DAV:   3    -0.175827892113E+04   -0.53152E-05   -0.91848E-05 29628   0.110E-02    0.201E-02
DAV:   4    -0.175827892374E+04   -0.26062E-05   -0.11539E-05 24792   0.607E-03    0.116E-02
DAV:   5    -0.175827892482E+04   -0.10899E-05   -0.62104E-06 22236   0.426E-03    0.348E-03
DAV:   6    -0.175827892497E+04   -0.14916E-06   -0.12079E-06 12024   0.191E-03
  91 F= -.17582789E+04 E0= -.17582789E+04  d E =0.659938E-03  mag=     1.0000
 BRION: g(F)=  0.919E-03 g(S)=  0.000E+00 retain N=  3 mean eig= 2.28
 eig:   6.083  0.444  0.306
 bond charge predicted
       N       E                     dE             d eps       ncg     rms          rms(c)
DAV:   1    -0.175827478537E+04    0.41395E-02   -0.10275E+00 18624   0.102E+00    0.144E-01
DAV:   2    -0.175827694390E+04   -0.21585E-02   -0.23162E-02 19560   0.173E-01    0.883E-02
DAV:   3    -0.175827700097E+04   -0.57067E-04   -0.85931E-04 29976   0.328E-02    0.539E-02
DAV:   4    -0.175827702758E+04   -0.26604E-04   -0.10388E-04 26328   0.175E-02    0.325E-02
DAV:   5    -0.175827703720E+04   -0.96274E-05   -0.49649E-05 26664   0.121E-02    0.859E-03
DAV:   6    -0.175827703906E+04   -0.18586E-05   -0.87174E-06 23052   0.473E-03    0.593E-03
DAV:   7    -0.175827703919E+04   -0.12864E-06   -0.16409E-06 14436   0.208E-03
  92 F= -.17582770E+04 E0= -.17582770E+04  d E =0.188578E-02  mag=     1.0000
 BRION: g(F)=  0.964E-03 g(S)=  0.000E+00 retain N=  3 mean eig= 0.98
 eig:   2.323  0.226  0.384
 bond charge predicted
       N       E                     dE             d eps       ncg     rms          rms(c)
DAV:   1    -0.175827724177E+04   -0.20270E-03   -0.42303E-02 18708   0.256E-01    0.420E-02
DAV:   2    -0.175827736751E+04   -0.12574E-03   -0.16403E-03 22488   0.669E-02    0.702E-02
DAV:   3    -0.175827737227E+04   -0.47582E-05   -0.12060E-04 25572   0.156E-02    0.533E-02
DAV:   4    -0.175827737322E+04   -0.95138E-06   -0.14368E-05 26316   0.709E-03    0.422E-02
DAV:   5    -0.175827736979E+04    0.34228E-05   -0.15861E-05 25428   0.857E-03    0.128E-02
DAV:   6    -0.175827736887E+04    0.92879E-06   -0.53613E-06 19608   0.418E-03
  93 F= -.17582774E+04 E0= -.17582774E+04  d E =-.329675E-03  mag=     1.0000
 BRION: g(F)=  0.977E-03 g(S)=  0.000E+00 retain N=  3 mean eig= 2.26
 eig:   5.990  0.391  0.391
 bond charge predicted
       N       E                     dE             d eps       ncg     rms          rms(c)
DAV:   1    -0.175827499386E+04    0.23759E-02   -0.23921E+00 18624   0.156E+00    0.223E-01
DAV:   2    -0.175828000103E+04   -0.50072E-02   -0.54037E-02 19572   0.265E-01    0.137E-01
DAV:   3    -0.175828017528E+04   -0.17426E-03   -0.23755E-03 30096   0.506E-02    0.834E-02
DAV:   4    -0.175828024084E+04   -0.65559E-04   -0.20836E-04 26232   0.259E-02    0.523E-02
DAV:   5    -0.175828026928E+04   -0.28434E-04   -0.11008E-04 26376   0.189E-02    0.128E-02
DAV:   6    -0.175828027455E+04   -0.52685E-05   -0.21279E-05 26256   0.750E-03    0.936E-03
DAV:   7    -0.175828027480E+04   -0.25486E-06   -0.41101E-06 18900   0.311E-03
  94 F= -.17582803E+04 E0= -.17582803E+04  d E =-.290593E-02  mag=     1.0000
 BRION: g(F)=  0.925E-03 g(S)=  0.000E+00 retain N=  3 mean eig= 2.33
 eig:   0.512  0.453  6.013
 bond charge predicted
       N       E                     dE             d eps       ncg     rms          rms(c)
DAV:   1    -0.175827833711E+04    0.19374E-02   -0.37139E-01 18624   0.601E-01    0.849E-02
DAV:   2    -0.175827908920E+04   -0.75209E-03   -0.80610E-03 19152   0.999E-02    0.505E-02
DAV:   3    -0.175827910803E+04   -0.18835E-04   -0.28030E-04 30216   0.181E-02    0.314E-02
DAV:   4    -0.175827911825E+04   -0.10218E-04   -0.33856E-05 24468   0.966E-03    0.159E-02
DAV:   5    -0.175827912203E+04   -0.37744E-05   -0.14709E-05 26352   0.620E-03    0.526E-03
DAV:   6    -0.175827912244E+04   -0.41391E-06   -0.22158E-06 16044   0.266E-03
  95 F= -.17582791E+04 E0= -.17582791E+04  d E =0.115236E-02  mag=     1.0000
 BRION: g(F)=  0.881E-03 g(S)=  0.000E+00 retain N=  3 mean eig= 2.10
 eig:   5.930  0.345  0.022
 bond charge predicted
       N       E                     dE             d eps       ncg     rms          rms(c)
DAV:   1    -0.175827936129E+04   -0.23926E-03   -0.22640E-02 18648   0.147E-01    0.211E-02
DAV:   2    -0.175827940521E+04   -0.43923E-04   -0.48067E-04 20640   0.251E-02    0.147E-02
