 vasp.5.4.4.18Apr17-6-g9f103f2a35 (build Apr 30 2017 20:10:35) complex          
  
 executed on             LinuxIFC date 2017.08.07  12:57:34
 running on   64 total cores
 distrk:  each k-point on   64 cores,    1 groups
 distr:  one band on NCORES_PER_BAND=   8 cores,    8 groups


--------------------------------------------------------------------------------------------------------


 INCAR:
 POTCAR:   PAW_PBE Ti_pv 07Sep2000                
 POTCAR:   PAW_PBE O 08Apr2002                    
 POTCAR:    PAW_PBE F 08Apr2002                   
 POTCAR:   PAW_PBE Ti_pv 07Sep2000                
   VRHFIN =Ti: d3 s1                                                            
   LEXCH  = PE                                                                  
   EATOM  =  1042.3781 eV,   76.6126 Ry                                         
                                                                                
   TITEL  = PAW_PBE Ti_pv 07Sep2000                                             
   LULTRA =        F    use ultrasoft PP ?                                      
   IUNSCR =        1    unscreen: 0-lin 1-nonlin 2-no                           
   RPACOR =    2.200    partial core radius                                     
   POMASS =   47.880; ZVAL   =   10.000    mass and valenz                      
   RCORE  =    2.500    outmost cutoff radius                                   
   RWIGS  =    2.500; RWIGS  =    1.323    wigner-seitz radius (au A)           
   ENMAX  =  222.338; ENMIN  =  166.753 eV                                      
   RCLOC  =    1.701    cutoff for local pot                                    
   LCOR   =        T    correct aug charges                                     
   LPAW   =        T    paw PP                                                  
   EAUG   =  482.848                                                            
   DEXC   =    -.008                                                            
   RMAX   =    3.092    core radius for proj-oper                               
   RAUG   =    1.300    factor for augmentation sphere                          
   RDEP   =    2.538    radius for radial grids                                 
   QCUT   =   -4.042; QGAM   =    8.085    optimization parameters              
                                                                                
   Description                                                                  
     l     E      TYP  RCUT    TYP  RCUT                                        
     1   .000     23  2.300                                                     
     1  -.100     23  2.300                                                     
     2   .000     23  2.500                                                     
     2   .000     23  2.500                                                     
     0   .000     23  2.500                                                     
     0  1.500     23  2.500                                                     
     3   .000      7   .000                                                     
  local pseudopotential read in
  partial core-charges read in
  atomic valenz-charges read in
  non local Contribution for L=           1  read in
    real space projection operators read in
  non local Contribution for L=           1  read in
    real space projection operators read in
  non local Contribution for L=           2  read in
    real space projection operators read in
  non local Contribution for L=           2  read in
    real space projection operators read in
  non local Contribution for L=           0  read in
    real space projection operators read in
  non local Contribution for L=           0  read in
    real space projection operators read in
    PAW grid and wavefunctions read in
 
   number of l-projection  operators is LMAX  =           6
   number of lm-projection operators is LMMAX =          18
 
 POTCAR:   PAW_PBE O 08Apr2002                    
   VRHFIN =O: s2p4                                                              
   LEXCH  = PE                                                                  
   EATOM  =   432.3788 eV,   31.7789 Ry                                         
                                                                                
   TITEL  = PAW_PBE O 08Apr2002                                                 
   LULTRA =        F    use ultrasoft PP ?                                      
   IUNSCR =        0    unscreen: 0-lin 1-nonlin 2-no                           
   RPACOR =     .000    partial core radius                                     
   POMASS =   16.000; ZVAL   =    6.000    mass and valenz                      
   RCORE  =    1.520    outmost cutoff radius                                   
   RWIGS  =    1.550; RWIGS  =     .820    wigner-seitz radius (au A)           
   ENMAX  =  400.000; ENMIN  =  300.000 eV                                      
   ICORE  =        2    local potential                                         
   LCOR   =        T    correct aug charges                                     
   LPAW   =        T    paw PP                                                  
   EAUG   =  605.392                                                            
   DEXC   =     .000                                                            
   RMAX   =    2.264    core radius for proj-oper                               
   RAUG   =    1.300    factor for augmentation sphere                          
   RDEP   =    1.550    radius for radial grids                                 
   QCUT   =   -5.520; QGAM   =   11.041    optimization parameters              
                                                                                
   Description                                                                  
     l     E      TYP  RCUT    TYP  RCUT                                        
     0   .000     23  1.200                                                     
     0  -.700     23  1.200                                                     
     1   .000     23  1.520                                                     
     1   .600     23  1.520                                                     
     2   .000      7  1.500                                                     
  local pseudopotential read in
  atomic valenz-charges read in
  non local Contribution for L=           0  read in
    real space projection operators read in
  non local Contribution for L=           0  read in
    real space projection operators read in
  non local Contribution for L=           1  read in
    real space projection operators read in
  non local Contribution for L=           1  read in
    real space projection operators read in
    PAW grid and wavefunctions read in
 
   number of l-projection  operators is LMAX  =           4
   number of lm-projection operators is LMMAX =           8
 
 POTCAR:    PAW_PBE F 08Apr2002                   
   VRHFIN =F: s2p5                                                              
   LEXCH  = PE                                                                  
   EATOM  =   659.6475 eV,   48.4827 Ry                                         
                                                                                
   TITEL  = PAW_PBE F 08Apr2002                                                 
   LULTRA =        F    use ultrasoft PP ?                                      
   IUNSCR =        1    unscreen: 0-lin 1-nonlin 2-no                           
   RPACOR =    1.200    partial core radius                                     
   POMASS =   18.998; ZVAL   =    7.000    mass and valenz                      
   RCORE  =    1.520    outmost cutoff radius                                   
   RWIGS  =    1.500; RWIGS  =    0.794    wigner-seitz radius (au A)           
   ENMAX  =  400.000; ENMIN  =  300.000 eV                                      
   ICORE  =        2    local potential                                         
   LCOR   =        T    correct aug charges                                     
   LPAW   =        T    paw PP                                                  
   EAUG   =  613.614                                                            
   RMAX   =    1.555    core radius for proj-oper                               
   RAUG   =    1.300    factor for augmentation sphere                          
   RDEP   =    1.539    radius for radial grids                                 
   RDEPT  =    1.299    core radius for aug-charge                              
                                                                                
   Atomic configuration                                                         
    4 entries                                                                   
     n  l   j            E        occ.                                          
     1  0  0.50      -663.3661   2.0000                                         
     2  0  0.50       -29.8995   2.0000                                         
     2  1  0.50       -11.1114   5.0000                                         
     3  2  1.50       -10.8847   0.0000                                         
   Description                                                                  
     l       E           TYP  RCUT    TYP  RCUT                                 
     0    -29.8995018     23  1.200                                             
     0     -9.5240782     23  1.200                                             
     1    -11.1113914     23  1.520                                             
     1      1.3605826     23  1.520                                             
     2    -10.8846608      7  1.500                                             
  local pseudopotential read in
  partial core-charges read in
  partial kinetic energy density read in
  atomic valenz-charges read in
  non local Contribution for L=           0  read in
    real space projection operators read in
  non local Contribution for L=           0  read in
    real space projection operators read in
  non local Contribution for L=           1  read in
    real space projection operators read in
  non local Contribution for L=           1  read in
    real space projection operators read in
    PAW grid and wavefunctions read in
 
   number of l-projection  operators is LMAX  =           4
   number of lm-projection operators is LMMAX =           8
 
 Optimization of the real space projectors (new method)

 maximal supplied QI-value         = 15.12
 optimisation between [QCUT,QGAM] = [ 13.45, 27.06] = [ 50.69,205.06] Ry 
 Optimized for a Real-space Cutoff    1.49 Angstroem

   l    n(q)    QCUT    max X(q) W(low)/X(q) W(high)/X(q)  e(spline) 
   1     12    13.455     4.841    0.13E-05    0.83E-06    0.56E-07
   1     12    13.455     5.701    0.32E-04    0.25E-04    0.17E-06
   2     11    13.455     4.569    0.64E-05    0.34E-05    0.50E-07
   2     11    13.455    32.276    0.49E-04    0.38E-04    0.46E-06
   0     12    13.455    30.046    0.17E-04    0.41E-05    0.51E-07
   0     12    13.455    45.433    0.12E-04    0.27E-04    0.38E-06
 Optimization of the real space projectors (new method)

 maximal supplied QI-value         = 24.76
 optimisation between [QCUT,QGAM] = [ 13.37, 26.98] = [ 50.04,203.89] Ry 
 Optimized for a Real-space Cutoff    1.17 Angstroem

   l    n(q)    QCUT    max X(q) W(low)/X(q) W(high)/X(q)  e(spline) 
   0      9    13.368     4.192    0.20E-04    0.58E-05    0.56E-07
   0      9    13.368     8.473    0.60E-04    0.52E-04    0.21E-06
   1      9    13.368     2.474    0.22E-04    0.17E-04    0.28E-07
   1      9    13.368     3.912    0.94E-04    0.97E-04    0.20E-06
 Optimization of the real space projectors (new method)

 maximal supplied QI-value         = 24.76
 optimisation between [QCUT,QGAM] = [ 13.37, 26.98] = [ 50.04,203.89] Ry 
 Optimized for a Real-space Cutoff    1.17 Angstroem

   l    n(q)    QCUT    max X(q) W(low)/X(q) W(high)/X(q)  e(spline) 
   0      9    13.368    14.049    0.39E-04    0.34E-04    0.16E-06
   0      9    13.368     8.945    0.54E-04    0.47E-04    0.20E-06
   1      9    13.368     7.086    0.99E-04    0.10E-03    0.23E-06
   1      9    13.368     6.747    0.86E-04    0.89E-04    0.21E-06

 ----------------------------------------------------------------------------- 
|                                                                             |
|  ADVICE TO THIS USER RUNNING 'VASP/VAMP'   (HEAR YOUR MASTER'S VOICE ...):  |
|                                                                             |
|      You enforced a specific xc-type in the INCAR file,                     |
|      a different type was found on the POTCAR file                          |
|          I HOPE YOU KNOW, WHAT YOU ARE  DOING                               |
|                                                                             |
 ----------------------------------------------------------------------------- 

 PAW_PBE Ti_pv 07Sep2000                :
 energy of atom  1       EATOM=-1042.3781
 kinetic energy error for atom=    0.0006 (will be added to EATOM!!)
 PAW_PBE O 08Apr2002                    :
 energy of atom  2       EATOM= -432.3788
 kinetic energy error for atom=    0.0091 (will be added to EATOM!!)
  PAW_PBE F 08Apr2002                   :
 energy of atom  3       EATOM= -659.6475
 kinetic energy error for atom=    0.0140 (will be added to EATOM!!)
 
 
 POSCAR: TiOF2 2x2x2 config 1053                 
  positions in direct lattice
  velocities in cartesian coordinates
 exchange correlation table for  LEXCH =       14
   RHO(1)=    0.500       N(1)  =     2000
   RHO(2)=  100.500       N(2)  =     4000

 VTST: version 3.1, (03/28/14)

 CHAIN: initializing optimizer
 
 OPT: Using VASP QUASI-newton optimizer
 CHAIN: Read ICHAIN            0
 
 POSCAR: TiOF2 2x2x2 config 1053                 
  positions in direct lattice
  velocities in cartesian coordinates
 


--------------------------------------------------------------------------------------------------------


 ion  position               nearest neighbor table
   1  0.000  0.986  0.996-  10 1.79  14 1.93  21 1.93  17 1.93  28 1.99  24 2.01
   2  0.001  0.001  0.520-  14 1.76  25 1.90  26 1.91  18 1.93  22 1.93  28 2.06
   3  0.000  0.509  0.986-  15 1.83  10 1.85  19 1.94  23 1.94  24 1.99  29 2.04
   4  0.983  0.500  0.511-   9 1.82  15 1.85  25 1.94  26 1.95  29 2.02  20 2.08
   5  0.500  1.000  0.008-  16 1.89  11 1.93  12 1.93  21 1.99  17 1.99  30 2.03
   6  0.500  0.991  0.483-  16 1.78  13 1.84  27 1.99  18 1.99  22 2.00  30 2.03
   7  0.500  0.498  0.001-  11 1.87  12 1.89  32 1.95  31 1.95  19 1.98  23 1.98
   8  0.511  0.514  0.501-  13 1.80   9 1.89  32 1.92  31 1.93  27 2.01  20 2.06
   9  0.751  0.500  0.500-   4 1.82   8 1.89
  10  1.000  0.751  0.004-   1 1.79   3 1.85
  11  0.501  0.252  0.998-   7 1.87   5 1.93
  12  0.501  0.746  0.998-   7 1.89   5 1.93
  13  0.499  0.750  0.503-   8 1.80   6 1.84
  14  1.000  0.002  0.748-   2 1.76   1 1.93
  15  0.001  0.498  0.749-   3 1.83   4 1.85
  16  0.501  0.002  0.252-   6 1.78   5 1.89
  17  0.246  0.005  1.000-   1 1.93   5 1.99
  18  0.247  0.004  0.500-   2 1.93   6 1.99
  19  0.247  0.496  0.005-   3 1.94   7 1.98
  20  0.248  0.499  0.498-   8 2.06   4 2.08
  21  0.755  0.005  0.000-   1 1.93   5 1.99
  22  0.755  0.005  0.499-   2 1.93   6 2.00
  23  0.753  0.496  0.005-   3 1.94   7 1.98
  24  1.000  0.249  0.007-   3 1.99   1 2.01
  25  0.007  0.248  0.487-   2 1.90   4 1.94
  26  0.007  0.753  0.485-   2 1.91   4 1.95
  27  0.497  0.251  0.506-   6 1.99   8 2.01
  28  1.000  0.004  0.253-   1 1.99   2 2.06
  29  0.002  0.497  0.250-   4 2.02   3 2.04
  30  0.501  0.003  0.746-   5 2.03   6 2.03
  31  0.495  0.492  0.253-   8 1.93   7 1.95
  32  0.493  0.494  0.749-   8 1.92   7 1.95
 

IMPORTANT INFORMATION: All symmetrisations will be switched off!
NOSYMM: (Re-)initialisation of all symmetry stuff for point group C_1.

 
 
 KPOINTS: Title                                   

Automatic generation of k-mesh.
Space group operators:
 irot       det(A)        alpha          n_x          n_y          n_z        tau_x        tau_y        tau_z
    1     1.000000     0.000000     1.000000     0.000000     0.000000     0.000000     0.000000     0.000000
 
 Subroutine IBZKPT returns following result:
 ===========================================
 
 Found     32 irreducible k-points:
 
 Following reciprocal coordinates:
            Coordinates               Weight
  0.125000  0.125000  0.125000      2.000000
  0.375000  0.125000  0.125000      2.000000
 -0.375000  0.125000  0.125000      2.000000
 -0.125000  0.125000  0.125000      2.000000
  0.125000  0.375000  0.125000      2.000000
  0.375000  0.375000  0.125000      2.000000
 -0.375000  0.375000  0.125000      2.000000
 -0.125000  0.375000  0.125000      2.000000
  0.125000 -0.375000  0.125000      2.000000
  0.375000 -0.375000  0.125000      2.000000
 -0.375000 -0.375000  0.125000      2.000000
 -0.125000 -0.375000  0.125000      2.000000
  0.125000 -0.125000  0.125000      2.000000
  0.375000 -0.125000  0.125000      2.000000
 -0.375000 -0.125000  0.125000      2.000000
 -0.125000 -0.125000  0.125000      2.000000
  0.125000  0.125000  0.375000      2.000000
  0.375000  0.125000  0.375000      2.000000
 -0.375000  0.125000  0.375000      2.000000
 -0.125000  0.125000  0.375000      2.000000
  0.125000  0.375000  0.375000      2.000000
  0.375000  0.375000  0.375000      2.000000
 -0.375000  0.375000  0.375000      2.000000
 -0.125000  0.375000  0.375000      2.000000
  0.125000 -0.375000  0.375000      2.000000
  0.375000 -0.375000  0.375000      2.000000
 -0.375000 -0.375000  0.375000      2.000000
 -0.125000 -0.375000  0.375000      2.000000
  0.125000 -0.125000  0.375000      2.000000
  0.375000 -0.125000  0.375000      2.000000
 -0.375000 -0.125000  0.375000      2.000000
 -0.125000 -0.125000  0.375000      2.000000
 
 Following cartesian coordinates:
            Coordinates               Weight
  0.015973  0.016406  0.016181      2.000000
  0.047918  0.016405  0.016182      2.000000
 -0.047918  0.016407  0.016178      2.000000
 -0.015972  0.016406  0.016180      2.000000
  0.015972  0.049219  0.016179      2.000000
  0.047918  0.049219  0.016180      2.000000
 -0.047919  0.049221  0.016176      2.000000
 -0.015973  0.049220  0.016178      2.000000
  0.015975 -0.049222  0.016185      2.000000
  0.047920 -0.049223  0.016186      2.000000
 -0.047916 -0.049221  0.016182      2.000000
 -0.015971 -0.049221  0.016184      2.000000
  0.015974 -0.016408  0.016183      2.000000
  0.047919 -0.016409  0.016184      2.000000
 -0.047917 -0.016407  0.016180      2.000000
 -0.015972 -0.016407  0.016182      2.000000
  0.015974  0.016404  0.048544      2.000000
  0.047920  0.016403  0.048545      2.000000
 -0.047916  0.016405  0.048541      2.000000
 -0.015971  0.016404  0.048542      2.000000
  0.015974  0.049217  0.048542      2.000000
  0.047919  0.049217  0.048543      2.000000
 -0.047917  0.049219  0.048539      2.000000
 -0.015972  0.049218  0.048540      2.000000
  0.015976 -0.049224  0.048548      2.000000
  0.047921 -0.049225  0.048549      2.000000
 -0.047915 -0.049222  0.048545      2.000000
 -0.015969 -0.049223  0.048546      2.000000
  0.015975 -0.016410  0.048546      2.000000
  0.047921 -0.016411  0.048547      2.000000
 -0.047916 -0.016409  0.048543      2.000000
 -0.015970 -0.016409  0.048544      2.000000
 


--------------------------------------------------------------------------------------------------------




 Dimension of arrays:
   k-points           NKPTS =     32   k-points in BZ     NKDIM =     32   number of bands    NBANDS=    160
   number of dos      NEDOS =   3001   number of ions     NIONS =     32
   non local maximal  LDIM  =      6   non local SUM 2l+1 LMDIM =     18
   total plane-waves  NPLWV = 343000
   max r-space proj   IRMAX =  10325   max aug-charges    IRDMAX= 231473
   dimension x,y,z NGX =    70 NGY =   70 NGZ =   70
   dimension x,y,z NGXF=   140 NGYF=  140 NGZF=  140
   support grid    NGXF=   280 NGYF=  280 NGZF=  280
   ions per type =               8   8  16
   NGX,Y,Z   is equivalent  to a cutoff of  14.87, 15.27, 15.06 a.u.
   NGXF,Y,Z  is equivalent  to a cutoff of  29.74, 30.55, 30.13 a.u.

 SYSTEM =  LTO                                     
 POSCAR =  TiOF2 2x2x2 config 1053                 

 Startparameter for this run:
   NWRITE =      2    write-flag & timer
   PREC   = accura    normal or accurate (medium, high low for compatibility)
   ISTART =      1    job   : 0-new  1-cont  2-samecut
   ICHARG =      0    charge: 1-file 2-atom 10-const
   ISPIN  =      2    spin polarized calculation?
   LNONCOLLINEAR =      F non collinear calculations
   LSORBIT =      F    spin-orbit coupling
   INIWAV =      1    electr: 0-lowe 1-rand  2-diag
   LASPH  =      T    aspherical Exc in radial PAW
   METAGGA=      F    non-selfconsistent MetaGGA calc.

 Electronic Relaxation 1
   ENCUT  =  700.0 eV  51.45 Ry    7.17 a.u.  16.88 16.44 16.66*2*pi/ulx,y,z
   ENINI  =  700.0     initial cutoff
   ENAUG  =  613.6 eV  augmentation charge cutoff
   NELM   =     60;   NELMIN=  2; NELMDL=  0     # of ELM steps 
   EDIFF  = 0.1E-05   stopping-criterion for ELM
   LREAL  =      T    real-space projection
   NLSPLINE    = F    spline interpolate recip. space projectors
   LCOMPAT=      F    compatible to vasp.4.4
   GGA_COMPAT  = T    GGA compatible to vasp.4.4-vasp.4.6
   LMAXPAW     = -100 max onsite density
   LMAXMIX     =    4 max onsite mixed and CHGCAR
   VOSKOWN=      0    Vosko Wilk Nusair interpolation
   ROPT   =   -0.00010  -0.00010  -0.00010
 Ionic relaxation
   EDIFFG = -.1E-01   stopping-criterion for IOM
   NSW    =    100    number of steps for IOM
   NBLOCK =      1;   KBLOCK =    100    inner block; outer block 
   IBRION =      1    ionic relax: 0-MD 1-quasi-New 2-CG
   NFREE  =      0    steps in history (QN), initial steepest desc. (CG)
   ISIF   =      3    stress and relaxation
   IWAVPR =     11    prediction:  0-non 1-charg 2-wave 3-comb
   ISYM   =      0    0-nonsym 1-usesym 2-fastsym
   LCORR  =      T    Harris-Foulkes like correction to forces

   POTIM  = 0.5000    time-step for ionic-motion
   TEIN   =    0.0    initial temperature
   TEBEG  =    0.0;   TEEND  =   0.0 temperature during run
   SMASS  =  -3.00    Nose mass-parameter (am)
   estimated Nose-frequenzy (Omega)   =  0.10E-29 period in steps =****** mass=  -0.140E-26a.u.
   SCALEE = 1.0000    scale energy and forces
   NPACO  =    256;   APACO  = 16.0  distance and # of slots for P.C.
   PSTRESS=    0.0 pullay stress

  Mass of Ions in am
   POMASS =  47.88 16.00 19.00
  Ionic Valenz
   ZVAL   =  10.00  6.00  7.00
  Atomic Wigner-Seitz radii
   RWIGS  =  -1.00 -1.00 -1.00
  virtual crystal weights 
   VCA    =   1.00  1.00  1.00
   NELECT =     240.0000    total number of electrons
   NUPDOWN=      -1.0000    fix difference up-down

 DOS related values:
   EMIN   =  10.00;   EMAX   =-10.00  energy-range for DOS
   EFERMI =   0.00
   ISMEAR =     0;   SIGMA  =   0.01  broadening in eV -4-tet -1-fermi 0-gaus

 Electronic relaxation 2 (details)
   IALGO  =     38    algorithm
   LDIAG  =      T    sub-space diagonalisation (order eigenvalues)
   LSUBROT=      F    optimize rotation matrix (better conditioning)
   TURBO    =      0    0=normal 1=particle mesh
   IRESTART =      0    0=no restart 2=restart with 2 vectors
   NREBOOT  =      0    no. of reboots
   NMIN     =      0    reboot dimension
   EREF     =   0.00    reference energy to select bands
   IMIX   =      4    mixing-type and parameters
     AMIX     =   0.40;   BMIX     =  1.00
     AMIX_MAG =   1.60;   BMIX_MAG =  1.00
     AMIN     =   0.10
     WC   =   100.;   INIMIX=   1;  MIXPRE=   1;  MAXMIX= -45

 Intra band minimization:
   WEIMIN = 0.0010     energy-eigenvalue tresh-hold
   EBREAK =  0.16E-08  absolut break condition
   DEPER  =   0.30     relativ break condition  

   TIME   =   0.40     timestep for ELM

  volume/ion in A,a.u.               =      14.39        97.13
  Fermi-wavevector in a.u.,A,eV,Ry     =   1.317371  2.489470 23.612444  1.735466
  Thomas-Fermi vector in A             =   2.447417
 
 Write flags
   LWAVE        =      T    write WAVECAR
   LDOWNSAMPLE  =      F    k-point downsampling of WAVECAR
   LCHARG       =      T    write CHGCAR
   LVTOT        =      F    write LOCPOT, total local potential
   LVHAR        =      F    write LOCPOT, Hartree potential only
   LELF         =      F    write electronic localiz. function (ELF)
   LORBIT       =     11    0 simple, 1 ext, 2 COOP (PROOUT), +10 PAW based schemes


 Dipole corrections
   LMONO  =      F    monopole corrections only (constant potential shift)
   LDIPOL =      F    correct potential (dipole corrections)
   IDIPOL =      0    1-x, 2-y, 3-z, 4-all directions 
   EPSILON=  1.0000000 bulk dielectric constant

 LDA+U is selected, type is set to LDAUTYPE =  2
   angular momentum for each species LDAUL =     2   -1   -1
   U (eV)           for each species LDAUU =   4.2  0.0  0.0
   J (eV)           for each species LDAUJ =   0.0  0.0  0.0
 Exchange correlation treatment:
   GGA     =    PS    GGA type
   LEXCH   =    14    internal setting for exchange type
   VOSKOWN=      0    Vosko Wilk Nusair interpolation
   LHFCALC =     F    Hartree Fock is set to
   LHFONE  =     F    Hartree Fock one center treatment
   AEXX    =    0.0000 exact exchange contribution

 Linear response parameters
   LEPSILON=     F    determine dielectric tensor
   LRPA    =     F    only Hartree local field effects (RPA)
   LNABLA  =     F    use nabla operator in PAW spheres
   LVEL    =     F    velocity operator in full k-point grid
   LINTERFAST=   F  fast interpolation
   KINTER  =     0    interpolate to denser k-point grid
   CSHIFT  =0.1000    complex shift for real part using Kramers Kronig
   OMEGAMAX=  -1.0    maximum frequency
   DEG_THRESHOLD= 0.2000000E-02 threshold for treating states as degnerate
   RTIME   =   -0.100 relaxation time in fs
  (WPLASMAI=    0.000 imaginary part of plasma frequency in eV, 0.658/RTIME)
   DFIELD  = 0.0000000 0.0000000 0.0000000 field for delta impulse in time
 
 Orbital magnetization related:
   ORBITALMAG=     F  switch on orbital magnetization
   LCHIMAG   =     F  perturbation theory with respect to B field
   DQ        =  0.001000  dq finite difference perturbation B field
   LLRAUG    =     F  two centre corrections for induced B field



--------------------------------------------------------------------------------------------------------


 quasi-Newton-method for relaxation of ions
 charge density and potential will be updated during run
 spin polarized calculation
 Variant of blocked Davidson
 Davidson routine will perform the subspace rotation
 perform sub-space diagonalisation
    after iterative eigenvector-optimisation
 modified Broyden-mixing scheme, WC =      100.0
 initial mixing is a Kerker type mixing with AMIX =  0.4000 and BMIX =      1.0000
 Hartree-type preconditioning will be used
 using additional bands           40
 real space projection scheme for non local part
 use partial core corrections
 calculate Harris-corrections to forces 
   (improved forces if not selfconsistent)
 use gradient corrections 
 use of overlap-Matrix (Vanderbilt PP)
 Gauss-broadening in eV      SIGMA  =   0.01


--------------------------------------------------------------------------------------------------------


  energy-cutoff  :      700.00
  volume of cell :      460.59
      direct lattice vectors                 reciprocal lattice vectors
     7.825847558  0.000192739 -0.000340070     0.127781687 -0.000003169  0.000005878
     0.000188912  7.618736311  0.000451891    -0.000003233  0.131255364 -0.000007974
    -0.000355324  0.000469278  7.724980210     0.000005625 -0.000007678  0.129450171

  length of vectors
     7.825847568  7.618736327  7.724980232     0.127781687  0.131255364  0.129450171


 
 old parameters found on file WAVECAR:
  energy-cutoff  :      700.00
  volume of cell :      460.39
      direct lattice vectors                 reciprocal lattice vectors
     7.824504081  0.000446690 -0.000432780     0.127803628 -0.000007319  0.000007396
     0.000436202  7.618304918  0.001167435    -0.000007495  0.131262799 -0.000020308
    -0.000446913  0.001194860  7.723437732     0.000007163 -0.000019841  0.129476026

  length of vectors

 
 k-points in units of 2pi/SCALE and weight: Title                                   
   0.01597301  0.01640556  0.01618101       0.031
   0.04791843  0.01640477  0.01618248       0.031
  -0.04791783  0.01640715  0.01617807       0.031
  -0.01597241  0.01640636  0.01617954       0.031
   0.01597220  0.04921941  0.01617902       0.031
   0.04791762  0.04921861  0.01618049       0.031
  -0.04791864  0.04922099  0.01617608       0.031
  -0.01597322  0.04922020  0.01617755       0.031
   0.01597463 -0.04922212  0.01618500       0.031
   0.04792005 -0.04922291  0.01618647       0.031
  -0.04791622 -0.04922053  0.01618206       0.031
  -0.01597080 -0.04922133  0.01618353       0.031
   0.01597382 -0.01640828  0.01618300       0.031
   0.04791924 -0.01640907  0.01618447       0.031
  -0.04791703 -0.01640669  0.01618006       0.031
  -0.01597160 -0.01640748  0.01618153       0.031
   0.01597442  0.01640365  0.04854355       0.031
   0.04791984  0.01640285  0.04854502       0.031
  -0.04791643  0.01640523  0.04854061       0.031
  -0.01597101  0.01640444  0.04854208       0.031
   0.01597361  0.04921749  0.04854156       0.031
   0.04791903  0.04921669  0.04854303       0.031
  -0.04791724  0.04921907  0.04853862       0.031
  -0.01597181  0.04921828  0.04854009       0.031
   0.01597603 -0.04922404  0.04854754       0.031
   0.04792145 -0.04922483  0.04854901       0.031
  -0.04791481 -0.04922245  0.04854460       0.031
  -0.01596939 -0.04922324  0.04854607       0.031
   0.01597522 -0.01641020  0.04854555       0.031
   0.04792065 -0.01641099  0.04854701       0.031
  -0.04791562 -0.01640861  0.04854261       0.031
  -0.01597020 -0.01640940  0.04854408       0.031
 
 k-points in reciprocal lattice and weights: Title                                   
   0.12500000  0.12500000  0.12500000       0.031
   0.37500000  0.12500000  0.12500000       0.031
  -0.37500000  0.12500000  0.12500000       0.031
  -0.12500000  0.12500000  0.12500000       0.031
   0.12500000  0.37500000  0.12500000       0.031
   0.37500000  0.37500000  0.12500000       0.031
  -0.37500000  0.37500000  0.12500000       0.031
  -0.12500000  0.37500000  0.12500000       0.031
   0.12500000 -0.37500000  0.12500000       0.031
   0.37500000 -0.37500000  0.12500000       0.031
  -0.37500000 -0.37500000  0.12500000       0.031
  -0.12500000 -0.37500000  0.12500000       0.031
   0.12500000 -0.12500000  0.12500000       0.031
   0.37500000 -0.12500000  0.12500000       0.031
  -0.37500000 -0.12500000  0.12500000       0.031
  -0.12500000 -0.12500000  0.12500000       0.031
   0.12500000  0.12500000  0.37500000       0.031
   0.37500000  0.12500000  0.37500000       0.031
  -0.37500000  0.12500000  0.37500000       0.031
  -0.12500000  0.12500000  0.37500000       0.031
   0.12500000  0.37500000  0.37500000       0.031
   0.37500000  0.37500000  0.37500000       0.031
  -0.37500000  0.37500000  0.37500000       0.031
  -0.12500000  0.37500000  0.37500000       0.031
   0.12500000 -0.37500000  0.37500000       0.031
   0.37500000 -0.37500000  0.37500000       0.031
  -0.37500000 -0.37500000  0.37500000       0.031
  -0.12500000 -0.37500000  0.37500000       0.031
   0.12500000 -0.12500000  0.37500000       0.031
   0.37500000 -0.12500000  0.37500000       0.031
  -0.37500000 -0.12500000  0.37500000       0.031
  -0.12500000 -0.12500000  0.37500000       0.031
 
 position of ions in fractional coordinates (direct lattice) 
   0.00022318  0.98574963  0.99643339
   0.00113199  0.00117103  0.52000601
   0.00033446  0.50877380  0.98611634
   0.98315361  0.50020366  0.51078286
   0.50039152  0.99960471  0.00788389
   0.50021654  0.99141067  0.48289887
   0.49959549  0.49795839  0.00067612
   0.51067981  0.51444015  0.50097021
   0.75118718  0.49989985  0.49980425
   0.99998265  0.75061368  0.00419584
   0.50088738  0.25214081  0.99760256
   0.50084366  0.74634100  0.99771577
   0.49911656  0.75015207  0.50320994
   0.99971331  0.00172306  0.74772389
   0.00066908  0.49827494  0.74910141
   0.50069043  0.00227210  0.25232603
   0.24585322  0.00467998  0.99996359
   0.24672429  0.00382046  0.49988259
   0.24688882  0.49551310  0.00483010
   0.24825137  0.49850791  0.49788891
   0.75475148  0.00469312  0.00003989
   0.75507414  0.00479221  0.49926289
   0.75291173  0.49565171  0.00529033
   0.99993602  0.24873961  0.00701605
   0.00662334  0.24831262  0.48672204
   0.00677098  0.75322042  0.48492369
   0.49688714  0.25104085  0.50617475
   0.99965936  0.00359388  0.25342850
   0.00230004  0.49690341  0.24984566
   0.50104356  0.00343328  0.74557477
   0.49452907  0.49226079  0.25313739
   0.49297859  0.49410713  0.74857147
 
 position of ions in cartesian coordinates  (Angst):
   0.00157877  7.51063412  7.69787360
   0.00867426  0.00916598  4.01703629
   0.00236314  3.87667622  7.61795898
   7.69392330  3.81134900  3.94567918
   3.91617379  7.61582482  0.06118441
   3.91463410  7.55361949  3.73066210
   3.90985194  3.79391025  0.00527812
   3.99642155  3.91971737  3.87004375
   5.87859317  3.80898449  3.86094841
   7.82585212  5.71892244  0.03241191
   3.91956140  1.92155906  7.70640364
   3.91931264  5.68673999  7.70750152
   3.90597305  5.71554316  3.88745612
   7.82333864  0.01367112  5.77581305
   0.00506407  3.79657701  5.78701850
   3.91823775  0.01752541  1.94904438
   1.92365540  0.03617215  7.72461747
   1.93064975  0.02938922  3.86150094
   1.93220614  3.77523351  0.03745242
   1.94269463  3.79828178  3.84632282
   5.90657089  0.03590114  0.00005358
   5.90891861  0.03689041  3.85654134
   5.89226419  3.77638728  0.04083564
   7.82539135  1.89527752  0.05397121
   0.05170722  1.89205808  3.76002806
   0.05295865  5.73881663  3.74636397
   3.88843056  1.91294737  3.91013443
   7.82309239  0.02769239  1.95739181
   0.01800482  3.78589373  1.93027656
   3.92082627  0.02660368  5.75938147
   3.87011217  3.75061926  1.95553557
   3.85780263  3.76491823  5.78275543
 


--------------------------------------------------------------------------------------------------------


 k-point  1 :   0.1250 0.1250 0.1250  plane waves:   19381
 k-point  2 :   0.3750 0.1250 0.1250  plane waves:   19389
 k-point  3 :  -0.3750 0.1250 0.1250  plane waves:   19389
 k-point  4 :  -0.1250 0.1250 0.1250  plane waves:   19380
 k-point  5 :   0.1250 0.3750 0.1250  plane waves:   19357
 k-point  6 :   0.3750 0.3750 0.1250  plane waves:   19370
 k-point  7 :  -0.3750 0.3750 0.1250  plane waves:   19371
 k-point  8 :  -0.1250 0.3750 0.1250  plane waves:   19358
 k-point  9 :   0.1250-0.3750 0.1250  plane waves:   19358
 k-point 10 :   0.3750-0.3750 0.1250  plane waves:   19371
 k-point 11 :  -0.3750-0.3750 0.1250  plane waves:   19372
 k-point 12 :  -0.1250-0.3750 0.1250  plane waves:   19359
 k-point 13 :   0.1250-0.1250 0.1250  plane waves:   19382
 k-point 14 :   0.3750-0.1250 0.1250  plane waves:   19387
 k-point 15 :  -0.3750-0.1250 0.1250  plane waves:   19390
 k-point 16 :  -0.1250-0.1250 0.1250  plane waves:   19379
 k-point 17 :   0.1250 0.1250 0.3750  plane waves:   19371
 k-point 18 :   0.3750 0.1250 0.3750  plane waves:   19371
 k-point 19 :  -0.3750 0.1250 0.3750  plane waves:   19372
 k-point 20 :  -0.1250 0.1250 0.3750  plane waves:   19371
 k-point 21 :   0.1250 0.3750 0.3750  plane waves:   19335
 k-point 22 :   0.3750 0.3750 0.3750  plane waves:   19386
 k-point 23 :  -0.3750 0.3750 0.3750  plane waves:   19388
 k-point 24 :  -0.1250 0.3750 0.3750  plane waves:   19335
 k-point 25 :   0.1250-0.3750 0.3750  plane waves:   19338
 k-point 26 :   0.3750-0.3750 0.3750  plane waves:   19386
 k-point 27 :  -0.3750-0.3750 0.3750  plane waves:   19387
 k-point 28 :  -0.1250-0.3750 0.3750  plane waves:   19339
 k-point 29 :   0.1250-0.1250 0.3750  plane waves:   19371
 k-point 30 :   0.3750-0.1250 0.3750  plane waves:   19370
 k-point 31 :  -0.3750-0.1250 0.3750  plane waves:   19368
 k-point 32 :  -0.1250-0.1250 0.3750  plane waves:   19371

 maximum and minimum number of plane-waves per node :      2456     2391

 maximum number of plane-waves:     19390
 maximum index in each direction: 
   IXMAX=   17   IYMAX=   16   IZMAX=   16
   IXMIN=  -17   IYMIN=  -16   IZMIN=  -17


 real space projection operators:
  total allocation   :      18577.23 KBytes
  max/ min on nodes  :       2469.33       1936.55


 parallel 3D FFT for wavefunctions:
    minimum data exchange during FFTs selected (reduces bandwidth)
 parallel 3D FFT for charge:
    minimum data exchange during FFTs selected (reduces bandwidth)


 total amount of memory used by VASP MPI-rank0   106888. kBytes
=======================================================================

   base      :      30000. kBytes
   nonlr-proj:       8604. kBytes
   fftplans  :       8423. kBytes
   grid      :       8783. kBytes
   one-center:        124. kBytes
   wavefun   :      50954. kBytes
 
     INWAV:  cpu time   29.8475: real time   35.6214
 Broyden mixing: mesh for mixing (old mesh)
   NGX = 33   NGY = 33   NGZ = 33
  (NGX  =140   NGY  =140   NGZ  =140)
  gives a total of  35937 points

 charge density for first step will be calculated from the start-wavefunctions


--------------------------------------------------------------------------------------------------------


 Maximum index for non-local projection operator         1380
 Maximum index for augmentation-charges         7756 (set IRDMAX)


--------------------------------------------------------------------------------------------------------


 initial charge from wavefunction
 First call to EWALD:  gamma=   0.230
 Maximum number of real-space cells 3x 3x 3
 Maximum number of reciprocal cells 3x 3x 3

    FEWALD:  cpu time    0.0030: real time    0.0031


--------------------------------------- Iteration      1(   1)  ---------------------------------------


    POTLOK:  cpu time    0.2000: real time    0.2555
    SETDIJ:  cpu time    0.8399: real time    0.8400
     EDDAV:  cpu time   28.1077: real time   28.1048
       DOS:  cpu time    0.0040: real time    0.0036
    CHARGE:  cpu time    1.1688: real time    1.1655
    MIXING:  cpu time    0.0400: real time    0.0400
    --------------------------------------------
      LOOP:  cpu time   30.3604: real time   30.4096

 eigenvalue-minimisations  : 20608
 total energy-change (2. order) :-0.2125764E+03  (-0.5737854E-03)
 number of electron     240.0000003 magnetization       0.0000000
 augmentation part       61.9533324 magnetization       0.0000000

 Broyden mixing:
  rms(total) = 0.19828E-03    rms(broyden)= 0.19589E-03
  rms(prec ) = 0.32518E-03
  weight for this iteration     100.00

 Free energy of the ion-electron system (eV)
  ---------------------------------------------------
  alpha Z        PSCENC =       760.26046061
  Ewald energy   TEWEN  =    -12807.17846474
  -Hartree energ DENC   =     -8232.04457941
  -exchange      EXHF   =         0.00000000
  -V(xc)+E(xc)   XCENC  =      1119.71129996
  PAW double counting   =     18017.03324616   -18140.59675721
  entropy T*S    EENTRO =        -0.00000000
  eigenvalues    EBANDS =     -3232.11477511
  atomic energy  EATOM  =     22302.35321627
  Solvation  Ediel_sol  =         0.00000000
  ---------------------------------------------------
  free energy    TOTEN  =      -212.57635348 eV

  energy without entropy =     -212.57635348  energy(sigma->0) =     -212.57635348


--------------------------------------------------------------------------------------------------------




--------------------------------------- Iteration      1(   2)  ---------------------------------------


    POTLOK:  cpu time    0.1510: real time    0.1663
    SETDIJ:  cpu time    0.8399: real time    0.8368
     EDDAV:  cpu time   18.1922: real time   18.1834
       DOS:  cpu time    0.0040: real time    0.0036
    --------------------------------------------
      LOOP:  cpu time   19.1871: real time   19.1901

 eigenvalue-minimisations  : 10448
 total energy-change (2. order) : 0.4824324E-07  (-0.3527423E-07)
 number of electron     240.0000003 magnetization       0.0000000
 augmentation part       61.9533324 magnetization       0.0000000

 Free energy of the ion-electron system (eV)
  ---------------------------------------------------
  alpha Z        PSCENC =       760.26046061
  Ewald energy   TEWEN  =    -12807.17846474
  -Hartree energ DENC   =     -8232.04568261
  -exchange      EXHF   =         0.00000000
  -V(xc)+E(xc)   XCENC  =      1119.71127373
  PAW double counting   =     18017.04047219   -18140.60375368
  entropy T*S    EENTRO =        -0.00000000
  eigenvalues    EBANDS =     -3232.11387521
  atomic energy  EATOM  =     22302.35321627
  Solvation  Ediel_sol  =         0.00000000
  ---------------------------------------------------
  free energy    TOTEN  =      -212.57635343 eV

  energy without entropy =     -212.57635343  energy(sigma->0) =     -212.57635343


--------------------------------------------------------------------------------------------------------




 average (electrostatic) potential at core
  the test charge radii are     1.0397  0.7215  0.7167
  (the norm of the test charge is              1.0000)
       1 -59.1666       2 -59.5238       3 -59.0108       4 -58.9339       5 -58.4392
       6 -58.6437       7 -58.5902       8 -58.8057       9 -74.0672      10 -74.3344
      11 -73.0433      12 -73.0255      13 -74.0485      14 -74.6036      15 -74.1783
      16 -73.8591      17 -79.2692      18 -79.5835      19 -79.2395      20 -78.2803
      21 -79.2667      22 -79.5978      23 -79.2399      24 -78.8881      25 -79.9564
      26 -79.9645      27 -78.6751      28 -78.8730      29 -78.5639      30 -78.3022
      31 -79.2984      32 -79.3018
 
 
 
 E-fermi :  -0.2805     XC(G=0):  -8.9984     alpha+bet : -7.6719


 spin component 1

 k-point     1 :       0.1250    0.1250    0.1250
  band No.  band energies     occupation 
      1     -35.5748      1.00000
      2     -35.5231      1.00000
      3     -35.3252      1.00000
      4     -35.1631      1.00000
      5     -35.0241      1.00000
      6     -35.0091      1.00000
      7     -35.0028      1.00000
      8     -34.9967      1.00000
      9     -34.8712      1.00000
     10     -34.8473      1.00000
     11     -34.8427      1.00000
     12     -34.7706      1.00000
     13     -34.7438      1.00000
     14     -34.7025      1.00000
     15     -34.6794      1.00000
     16     -34.6362      1.00000
     17     -34.6332      1.00000
     18     -34.6306      1.00000
     19     -34.5162      1.00000
     20     -34.4845      1.00000
     21     -34.4755      1.00000
     22     -34.3034      1.00000
     23     -34.1443      1.00000
     24     -34.0352      1.00000
     25     -23.8857      1.00000
     26     -23.4284      1.00000
     27     -23.3341      1.00000
     28     -23.2396      1.00000
     29     -23.1378      1.00000
     30     -23.0562      1.00000
     31     -23.0075      1.00000
     32     -22.6955      1.00000
     33     -22.6810      1.00000
     34     -22.6562      1.00000
     35     -22.5924      1.00000
     36     -22.4916      1.00000
     37     -22.3638      1.00000
     38     -22.2266      1.00000
     39     -21.9584      1.00000
     40     -21.9104      1.00000
     41     -17.0452      1.00000
     42     -16.8120      1.00000
     43     -16.6720      1.00000
     44     -16.5830      1.00000
     45     -16.4590      1.00000
     46     -16.3135      1.00000
     47     -15.8928      1.00000
     48     -15.1690      1.00000
     49      -7.4574      1.00000
     50      -7.0459      1.00000
     51      -6.8668      1.00000
     52      -6.7401      1.00000
     53      -6.6627      1.00000
     54      -6.2546      1.00000
     55      -6.1557      1.00000
     56      -6.0678      1.00000
     57      -5.9475      1.00000
     58      -5.8380      1.00000
     59      -5.8301      1.00000
     60      -5.7767      1.00000
     61      -5.6214      1.00000
     62      -5.5354      1.00000
     63      -5.4970      1.00000
     64      -5.4327      1.00000
     65      -5.3708      1.00000
     66      -5.3556      1.00000
     67      -5.3060      1.00000
     68      -5.2308      1.00000
     69      -5.1449      1.00000
     70      -4.9867      1.00000
     71      -4.8974      1.00000
     72      -4.7794      1.00000
     73      -4.5984      1.00000
     74      -4.5562      1.00000
     75      -4.5146      1.00000
     76      -4.4284      1.00000
     77      -4.3833      1.00000
     78      -4.3610      1.00000
     79      -4.3371      1.00000
     80      -4.3100      1.00000
     81      -4.2657      1.00000
     82      -4.2406      1.00000
     83      -4.1900      1.00000
     84      -4.1167      1.00000
     85      -4.0488      1.00000
     86      -4.0095      1.00000
     87      -3.8414      1.00000
     88      -3.7904      1.00000
     89      -3.7001      1.00000
     90      -3.6587      1.00000
     91      -3.6470      1.00000
     92      -3.5200      1.00000
     93      -3.4328      1.00000
     94      -3.3707      1.00000
     95      -3.2825      1.00000
     96      -3.2221      1.00000
     97      -3.1510      1.00000
     98      -3.0970      1.00000
     99      -3.0444      1.00000
    100      -3.0049      1.00000
    101      -2.8991      1.00000
    102      -2.8428      1.00000
    103      -2.7921      1.00000
    104      -2.6964      1.00000
    105      -2.4873      1.00000
    106      -2.3695      1.00000
    107      -2.3413      1.00000
    108      -2.2422      1.00000
    109      -2.2106      1.00000
    110      -2.1685      1.00000
    111      -1.8280      1.00000
    112      -1.6599      1.00000
    113      -1.4804      1.00000
    114      -1.4143      1.00000
    115      -1.3656      1.00000
    116      -1.0874      1.00000
    117      -1.0505      1.00000
    118      -0.6244      1.00000
    119      -0.5998      1.00000
    120      -0.3851      1.00000
    121       1.7848      0.00000
    122       1.8552      0.00000
    123       1.8678      0.00000
    124       2.0364      0.00000
    125       2.0696      0.00000
    126       2.2909      0.00000
    127       2.6365      0.00000
    128       2.7338      0.00000
    129       2.7915      0.00000
    130       2.9086      0.00000
    131       2.9233      0.00000
    132       3.0033      0.00000
    133       3.0247      0.00000
    134       3.0913      0.00000
    135       3.1529      0.00000
    136       3.1882      0.00000
    137       3.2284      0.00000
    138       3.2910      0.00000
    139       3.3121      0.00000
    140       3.4062      0.00000
    141       3.5375      0.00000
    142       3.6740      0.00000
    143       3.8183      0.00000
    144       3.8667      0.00000
    145       3.9000      0.00000
    146       3.9183      0.00000
    147       3.9508      0.00000
    148       4.0194      0.00000
    149       4.1443      0.00000
    150       4.2850      0.00000
    151       4.3113      0.00000
    152       4.5009      0.00000
    153       4.8538      0.00000
    154       4.9938      0.00000
    155       5.2024      0.00000
    156       6.0310      0.00000
    157       6.0633      0.00000
    158       6.1934      0.00000
    159       6.2674      0.00000
    160       6.7099      0.00000

 k-point     2 :       0.3750    0.1250    0.1250
  band No.  band energies     occupation 
      1     -35.5748      1.00000
      2     -35.5211      1.00000
      3     -35.3252      1.00000
      4     -35.1606      1.00000
      5     -35.0241      1.00000
      6     -35.0091      1.00000
      7     -34.9979      1.00000
      8     -34.9967      1.00000
      9     -34.8712      1.00000
     10     -34.8472      1.00000
     11     -34.8428      1.00000
     12     -34.7683      1.00000
     13     -34.7387      1.00000
     14     -34.7052      1.00000
     15     -34.6805      1.00000
     16     -34.6420      1.00000
     17     -34.6394      1.00000
     18     -34.6309      1.00000
     19     -34.5162      1.00000
     20     -34.4845      1.00000
     21     -34.4787      1.00000
     22     -34.3034      1.00000
     23     -34.1443      1.00000
     24     -34.0352      1.00000
     25     -23.8806      1.00000
     26     -23.3480      1.00000
     27     -23.3047      1.00000
     28     -23.2150      1.00000
     29     -23.1302      1.00000
     30     -23.0276      1.00000
     31     -22.9654      1.00000
     32     -22.8096      1.00000
     33     -22.7803      1.00000
     34     -22.6922      1.00000
     35     -22.5823      1.00000
     36     -22.4891      1.00000
     37     -22.3620      1.00000
     38     -22.2252      1.00000
     39     -21.9571      1.00000
     40     -21.9065      1.00000
     41     -17.0450      1.00000
     42     -16.8125      1.00000
     43     -16.6809      1.00000
     44     -16.5846      1.00000
     45     -16.4640      1.00000
     46     -16.3132      1.00000
     47     -15.8924      1.00000
     48     -15.1691      1.00000
     49      -7.4515      1.00000
     50      -6.8287      1.00000
     51      -6.6852      1.00000
     52      -6.3916      1.00000
     53      -6.3452      1.00000
     54      -6.2249      1.00000
     55      -6.1528      1.00000
     56      -6.1238      1.00000
     57      -6.0649      1.00000
     58      -5.9388      1.00000
     59      -5.8299      1.00000
     60      -5.7869      1.00000
     61      -5.7383      1.00000
     62      -5.7046      1.00000
     63      -5.6196      1.00000
     64      -5.5233      1.00000
     65      -5.3657      1.00000
     66      -5.2837      1.00000
     67      -5.2414      1.00000
     68      -5.1472      1.00000
     69      -5.0506      1.00000
     70      -4.9853      1.00000
     71      -4.9328      1.00000
     72      -4.8606      1.00000
     73      -4.7516      1.00000
     74      -4.6981      1.00000
     75      -4.6149      1.00000
     76      -4.5372      1.00000
     77      -4.5104      1.00000
     78      -4.4705      1.00000
     79      -4.3664      1.00000
     80      -4.3311      1.00000
     81      -4.2789      1.00000
     82      -4.2503      1.00000
     83      -4.1946      1.00000
     84      -4.1374      1.00000
     85      -4.0536      1.00000
     86      -3.9634      1.00000
     87      -3.8227      1.00000
     88      -3.7728      1.00000
     89      -3.7204      1.00000
     90      -3.6487      1.00000
     91      -3.5550      1.00000
     92      -3.5197      1.00000
     93      -3.4790      1.00000
     94      -3.3396      1.00000
     95      -3.2930      1.00000
     96      -3.2778      1.00000
     97      -3.1783      1.00000
     98      -3.1180      1.00000
     99      -3.0868      1.00000
    100      -3.0294      1.00000
    101      -2.9218      1.00000
    102      -2.8726      1.00000
    103      -2.8576      1.00000
    104      -2.7026      1.00000
    105      -2.4042      1.00000
    106      -2.3444      1.00000
    107      -2.3052      1.00000
    108      -2.2537      1.00000
    109      -2.2359      1.00000
    110      -2.0545      1.00000
    111      -1.8343      1.00000
    112      -1.7727      1.00000
    113      -1.4929      1.00000
    114      -1.4009      1.00000
    115      -1.3769      1.00000
    116      -1.1127      1.00000
    117      -1.0885      1.00000
    118      -0.6302      1.00000
    119      -0.6236      1.00000
    120      -0.3856      1.00000
    121       1.8111      0.00000
    122       2.0112      0.00000
    123       2.0307      0.00000
    124       2.1994      0.00000
    125       2.2722      0.00000
    126       2.3001      0.00000
    127       2.5408      0.00000
    128       2.6435      0.00000
    129       2.7244      0.00000
    130       2.7454      0.00000
    131       2.8012      0.00000
    132       3.0085      0.00000
    133       3.0841      0.00000
    134       3.1900      0.00000
    135       3.2147      0.00000
    136       3.2726      0.00000
    137       3.2994      0.00000
    138       3.4188      0.00000
    139       3.4641      0.00000
    140       3.5845      0.00000
    141       3.6709      0.00000
    142       3.7508      0.00000
    143       3.8111      0.00000
    144       3.8420      0.00000
    145       3.8892      0.00000
    146       3.8993      0.00000
    147       3.9506      0.00000
    148       4.0286      0.00000
    149       4.2357      0.00000
    150       4.2752      0.00000
    151       4.4873      0.00000
    152       4.5421      0.00000
    153       4.6560      0.00000
    154       5.1203      0.00000
    155       5.3339      0.00000
    156       5.6444      0.00000
    157       5.8135      0.00000
    158       6.1566      0.00000
    159       6.4176      0.00000
    160       6.5584      0.00000

 k-point     3 :      -0.3750    0.1250    0.1250
  band No.  band energies     occupation 
      1     -35.5748      1.00000
      2     -35.5211      1.00000
      3     -35.3252      1.00000
      4     -35.1606      1.00000
      5     -35.0241      1.00000
      6     -35.0091      1.00000
      7     -34.9979      1.00000
      8     -34.9967      1.00000
      9     -34.8712      1.00000
     10     -34.8472      1.00000
     11     -34.8428      1.00000
     12     -34.7683      1.00000
     13     -34.7387      1.00000
     14     -34.7052      1.00000
     15     -34.6805      1.00000
     16     -34.6420      1.00000
     17     -34.6394      1.00000
     18     -34.6309      1.00000
     19     -34.5162      1.00000
     20     -34.4845      1.00000
     21     -34.4787      1.00000
     22     -34.3034      1.00000
     23     -34.1443      1.00000
     24     -34.0352      1.00000
     25     -23.8806      1.00000
     26     -23.3479      1.00000
     27     -23.3049      1.00000
     28     -23.2149      1.00000
     29     -23.1302      1.00000
     30     -23.0276      1.00000
     31     -22.9654      1.00000
     32     -22.8096      1.00000
     33     -22.7802      1.00000
     34     -22.6924      1.00000
     35     -22.5823      1.00000
     36     -22.4891      1.00000
     37     -22.3620      1.00000
     38     -22.2252      1.00000
     39     -21.9571      1.00000
     40     -21.9065      1.00000
     41     -17.0450      1.00000
     42     -16.8125      1.00000
     43     -16.6808      1.00000
     44     -16.5846      1.00000
     45     -16.4640      1.00000
     46     -16.3132      1.00000
     47     -15.8924      1.00000
     48     -15.1691      1.00000
     49      -7.4514      1.00000
     50      -6.8290      1.00000
     51      -6.6859      1.00000
     52      -6.3913      1.00000
     53      -6.3447      1.00000
     54      -6.2250      1.00000
     55      -6.1492      1.00000
     56      -6.1270      1.00000
     57      -6.0630      1.00000
     58      -5.9360      1.00000
     59      -5.8298      1.00000
     60      -5.7890      1.00000
     61      -5.7396      1.00000
     62      -5.7045      1.00000
     63      -5.6198      1.00000
     64      -5.5237      1.00000
     65      -5.3686      1.00000
     66      -5.3042      1.00000
     67      -5.2336      1.00000
     68      -5.1367      1.00000
     69      -5.0490      1.00000
     70      -4.9851      1.00000
     71      -4.9362      1.00000
     72      -4.8516      1.00000
     73      -4.7561      1.00000
     74      -4.6924      1.00000
     75      -4.6071      1.00000
     76      -4.5400      1.00000
     77      -4.5082      1.00000
     78      -4.4706      1.00000
     79      -4.3673      1.00000
     80      -4.3302      1.00000
     81      -4.2801      1.00000
     82      -4.2498      1.00000
     83      -4.2008      1.00000
     84      -4.1403      1.00000
     85      -4.0537      1.00000
     86      -3.9718      1.00000
     87      -3.8116      1.00000
     88      -3.7815      1.00000
     89      -3.7164      1.00000
     90      -3.6610      1.00000
     91      -3.5455      1.00000
     92      -3.5156      1.00000
     93      -3.4736      1.00000
     94      -3.3278      1.00000
     95      -3.3151      1.00000
     96      -3.2857      1.00000
     97      -3.1757      1.00000
     98      -3.1218      1.00000
     99      -3.0809      1.00000
    100      -3.0412      1.00000
    101      -2.9126      1.00000
    102      -2.8691      1.00000
    103      -2.8444      1.00000
    104      -2.7020      1.00000
    105      -2.3848      1.00000
    106      -2.3583      1.00000
    107      -2.3137      1.00000
    108      -2.2573      1.00000
    109      -2.2373      1.00000
    110      -2.0516      1.00000
    111      -1.8359      1.00000
    112      -1.7727      1.00000
    113      -1.5002      1.00000
    114      -1.4068      1.00000
    115      -1.3645      1.00000
    116      -1.1084      1.00000
    117      -1.0926      1.00000
    118      -0.6304      1.00000
    119      -0.6231      1.00000
    120      -0.3857      1.00000
    121       1.8122      0.00000
    122       2.0123      0.00000
    123       2.0464      0.00000
    124       2.1988      0.00000
    125       2.2539      0.00000
    126       2.3021      0.00000
    127       2.5112      0.00000
    128       2.6426      0.00000
    129       2.7267      0.00000
    130       2.7461      0.00000
    131       2.8307      0.00000
    132       3.0252      0.00000
    133       3.0912      0.00000
    134       3.1896      0.00000
    135       3.1928      0.00000
    136       3.2752      0.00000
    137       3.3059      0.00000
    138       3.3930      0.00000
    139       3.4690      0.00000
    140       3.5994      0.00000
    141       3.6653      0.00000
    142       3.7496      0.00000
    143       3.7860      0.00000
    144       3.8536      0.00000
    145       3.8750      0.00000
    146       3.9113      0.00000
    147       3.9661      0.00000
    148       4.0378      0.00000
    149       4.2263      0.00000
    150       4.2731      0.00000
    151       4.4904      0.00000
    152       4.5182      0.00000
    153       4.6875      0.00000
    154       5.1071      0.00000
    155       5.3373      0.00000
    156       5.6432      0.00000
    157       5.8174      0.00000
    158       6.1550      0.00000
    159       6.4153      0.00000
    160       6.5589      0.00000

 k-point     4 :      -0.1250    0.1250    0.1250
  band No.  band energies     occupation 
      1     -35.5748      1.00000
      2     -35.5231      1.00000
      3     -35.3252      1.00000
      4     -35.1631      1.00000
      5     -35.0241      1.00000
      6     -35.0091      1.00000
      7     -35.0028      1.00000
      8     -34.9967      1.00000
      9     -34.8712      1.00000
     10     -34.8473      1.00000
     11     -34.8427      1.00000
     12     -34.7706      1.00000
     13     -34.7438      1.00000
     14     -34.7025      1.00000
     15     -34.6794      1.00000
     16     -34.6362      1.00000
     17     -34.6332      1.00000
     18     -34.6306      1.00000
     19     -34.5162      1.00000
     20     -34.4845      1.00000
     21     -34.4755      1.00000
     22     -34.3034      1.00000
     23     -34.1443      1.00000
     24     -34.0352      1.00000
     25     -23.8857      1.00000
     26     -23.4284      1.00000
     27     -23.3341      1.00000
     28     -23.2396      1.00000
     29     -23.1378      1.00000
     30     -23.0562      1.00000
     31     -23.0075      1.00000
     32     -22.6952      1.00000
     33     -22.6810      1.00000
     34     -22.6564      1.00000
     35     -22.5924      1.00000
     36     -22.4916      1.00000
     37     -22.3638      1.00000
     38     -22.2266      1.00000
     39     -21.9584      1.00000
     40     -21.9104      1.00000
     41     -17.0452      1.00000
     42     -16.8120      1.00000
     43     -16.6720      1.00000
     44     -16.5831      1.00000
     45     -16.4590      1.00000
     46     -16.3135      1.00000
     47     -15.8928      1.00000
     48     -15.1690      1.00000
     49      -7.4574      1.00000
     50      -7.0462      1.00000
     51      -6.8672      1.00000
     52      -6.7400      1.00000
     53      -6.6620      1.00000
     54      -6.2547      1.00000
     55      -6.1556      1.00000
     56      -6.0672      1.00000
     57      -5.9416      1.00000
     58      -5.8405      1.00000
     59      -5.8348      1.00000
     60      -5.7750      1.00000
     61      -5.6212      1.00000
     62      -5.5373      1.00000
     63      -5.5045      1.00000
     64      -5.4298      1.00000
     65      -5.3754      1.00000
     66      -5.3536      1.00000
     67      -5.2997      1.00000
     68      -5.2309      1.00000
     69      -5.1441      1.00000
     70      -4.9871      1.00000
     71      -4.8996      1.00000
     72      -4.7829      1.00000
     73      -4.5832      1.00000
     74      -4.5566      1.00000
     75      -4.5146      1.00000
     76      -4.4298      1.00000
     77      -4.3812      1.00000
     78      -4.3594      1.00000
     79      -4.3252      1.00000
     80      -4.3033      1.00000
     81      -4.2655      1.00000
     82      -4.2537      1.00000
     83      -4.2021      1.00000
     84      -4.1138      1.00000
     85      -4.0527      1.00000
     86      -4.0148      1.00000
     87      -3.8308      1.00000
     88      -3.8004      1.00000
     89      -3.7021      1.00000
     90      -3.6677      1.00000
     91      -3.6480      1.00000
     92      -3.5192      1.00000
     93      -3.4164      1.00000
     94      -3.3671      1.00000
     95      -3.2991      1.00000
     96      -3.2195      1.00000
     97      -3.1466      1.00000
     98      -3.0961      1.00000
     99      -3.0483      1.00000
    100      -3.0118      1.00000
    101      -2.8943      1.00000
    102      -2.8442      1.00000
    103      -2.7771      1.00000
    104      -2.6936      1.00000
    105      -2.4850      1.00000
    106      -2.3737      1.00000
    107      -2.3439      1.00000
    108      -2.2537      1.00000
    109      -2.2080      1.00000
    110      -2.1610      1.00000
    111      -1.8298      1.00000
    112      -1.6602      1.00000
    113      -1.4887      1.00000
    114      -1.4196      1.00000
    115      -1.3534      1.00000
    116      -1.0856      1.00000
    117      -1.0522      1.00000
    118      -0.6242      1.00000
    119      -0.5997      1.00000
    120      -0.3853      1.00000
    121       1.7897      0.00000
    122       1.8546      0.00000
    123       1.8737      0.00000
    124       2.0329      0.00000
    125       2.0640      0.00000
    126       2.2918      0.00000
    127       2.6147      0.00000
    128       2.7342      0.00000
    129       2.7910      0.00000
    130       2.9092      0.00000
    131       2.9433      0.00000
    132       3.0188      0.00000
    133       3.0318      0.00000
    134       3.1046      0.00000
    135       3.1274      0.00000
    136       3.1796      0.00000
    137       3.2329      0.00000
    138       3.2914      0.00000
    139       3.3080      0.00000
    140       3.4000      0.00000
    141       3.5384      0.00000
    142       3.6759      0.00000
    143       3.8073      0.00000
    144       3.8654      0.00000
    145       3.9076      0.00000
    146       3.9315      0.00000
    147       3.9488      0.00000
    148       4.0225      0.00000
    149       4.1324      0.00000
    150       4.2814      0.00000
    151       4.3140      0.00000
    152       4.5000      0.00000
    153       4.8618      0.00000
    154       4.9968      0.00000
    155       5.1953      0.00000
    156       6.0284      0.00000
    157       6.0642      0.00000
    158       6.1969      0.00000
    159       6.2659      0.00000
    160       6.7092      0.00000

 k-point     5 :       0.1250    0.3750    0.1250
  band No.  band energies     occupation 
      1     -35.5693      1.00000
      2     -35.5231      1.00000
      3     -35.3253      1.00000
      4     -35.1631      1.00000
      5     -35.0208      1.00000
      6     -35.0034      1.00000
      7     -35.0028      1.00000
      8     -35.0007      1.00000
      9     -34.8815      1.00000
     10     -34.8492      1.00000
     11     -34.8428      1.00000
     12     -34.7705      1.00000
     13     -34.7438      1.00000
     14     -34.7025      1.00000
     15     -34.6702      1.00000
     16     -34.6360      1.00000
     17     -34.6322      1.00000
     18     -34.6305      1.00000
     19     -34.5256      1.00000
     20     -34.4864      1.00000
     21     -34.4755      1.00000
     22     -34.3034      1.00000
     23     -34.1364      1.00000
     24     -34.0434      1.00000
     25     -23.7459      1.00000
     26     -23.5147      1.00000
     27     -23.3964      1.00000
     28     -23.2386      1.00000
     29     -23.1363      1.00000
     30     -23.0569      1.00000
     31     -23.0074      1.00000
     32     -22.6953      1.00000
     33     -22.6794      1.00000
     34     -22.6576      1.00000
     35     -22.5869      1.00000
     36     -22.4891      1.00000
     37     -22.3562      1.00000
     38     -22.2258      1.00000
     39     -21.9588      1.00000
     40     -21.9103      1.00000
     41     -17.0487      1.00000
     42     -16.8339      1.00000
     43     -16.6770      1.00000
     44     -16.5998      1.00000
     45     -16.4618      1.00000
     46     -16.3047      1.00000
     47     -15.7109      1.00000
     48     -15.3916      1.00000
     49      -7.1201      1.00000
     50      -7.0165      1.00000
     51      -6.8636      1.00000
     52      -6.7364      1.00000
     53      -6.6572      1.00000
     54      -6.5179      1.00000
     55      -6.2294      1.00000
     56      -5.9218      1.00000
     57      -5.8003      1.00000
     58      -5.7954      1.00000
     59      -5.7527      1.00000
     60      -5.6182      1.00000
     61      -5.5182      1.00000
     62      -5.4601      1.00000
     63      -5.4103      1.00000
     64      -5.3933      1.00000
     65      -5.3655      1.00000
     66      -5.3454      1.00000
     67      -5.3041      1.00000
     68      -5.2447      1.00000
     69      -5.0806      1.00000
     70      -5.0229      1.00000
     71      -4.9813      1.00000
     72      -4.8935      1.00000
     73      -4.6570      1.00000
     74      -4.6077      1.00000
     75      -4.5552      1.00000
     76      -4.5402      1.00000
     77      -4.4342      1.00000
     78      -4.4077      1.00000
     79      -4.3434      1.00000
     80      -4.3209      1.00000
     81      -4.2545      1.00000
     82      -4.2309      1.00000
     83      -4.1493      1.00000
     84      -4.1001      1.00000
     85      -4.0051      1.00000
     86      -3.9384      1.00000
     87      -3.8406      1.00000
     88      -3.8029      1.00000
     89      -3.7006      1.00000
     90      -3.6445      1.00000
     91      -3.6307      1.00000
     92      -3.6134      1.00000
     93      -3.4392      1.00000
     94      -3.3824      1.00000
     95      -3.3074      1.00000
     96      -3.2723      1.00000
     97      -3.1886      1.00000
     98      -3.1252      1.00000
     99      -3.0728      1.00000
    100      -3.0047      1.00000
    101      -2.9601      1.00000
    102      -2.8205      1.00000
    103      -2.8010      1.00000
    104      -2.7628      1.00000
    105      -2.4698      1.00000
    106      -2.3846      1.00000
    107      -2.3429      1.00000
    108      -2.2850      1.00000
    109      -2.1606      1.00000
    110      -2.1295      1.00000
    111      -2.0313      1.00000
    112      -1.6639      1.00000
    113      -1.6146      1.00000
    114      -1.5123      1.00000
    115      -1.4174      1.00000
    116      -1.3663      1.00000
    117      -0.9941      1.00000
    118      -0.8212      1.00000
    119      -0.8177      1.00000
    120      -0.3691      1.00000
    121       1.8551      0.00000
    122       1.9894      0.00000
    123       2.0314      0.00000
    124       2.0673      0.00000
    125       2.3759      0.00000
    126       2.4923      0.00000
    127       2.5613      0.00000
    128       2.6681      0.00000
    129       2.7950      0.00000
    130       2.9714      0.00000
    131       3.0022      0.00000
    132       3.0221      0.00000
    133       3.0860      0.00000
    134       3.1650      0.00000
    135       3.1805      0.00000
    136       3.2006      0.00000
    137       3.3048      0.00000
    138       3.3812      0.00000
    139       3.3984      0.00000
    140       3.4446      0.00000
    141       3.5843      0.00000
    142       3.6328      0.00000
    143       3.7775      0.00000
    144       3.8281      0.00000
    145       3.8609      0.00000
    146       3.8966      0.00000
    147       3.9269      0.00000
    148       3.9825      0.00000
    149       4.0649      0.00000
    150       4.1953      0.00000
    151       4.2869      0.00000
    152       4.6703      0.00000
    153       4.9433      0.00000
    154       5.2760      0.00000
    155       5.6690      0.00000
    156       5.7632      0.00000
    157       5.9996      0.00000
    158       6.1904      0.00000
    159       6.4532      0.00000
    160       6.6224      0.00000

 k-point     6 :       0.3750    0.3750    0.1250
  band No.  band energies     occupation 
      1     -35.5693      1.00000
      2     -35.5211      1.00000
      3     -35.3254      1.00000
      4     -35.1606      1.00000
      5     -35.0208      1.00000
      6     -35.0034      1.00000
      7     -35.0007      1.00000
      8     -34.9979      1.00000
      9     -34.8816      1.00000
     10     -34.8492      1.00000
     11     -34.8428      1.00000
     12     -34.7683      1.00000
     13     -34.7387      1.00000
     14     -34.7051      1.00000
     15     -34.6718      1.00000
     16     -34.6416      1.00000
     17     -34.6379      1.00000
     18     -34.6308      1.00000
     19     -34.5256      1.00000
     20     -34.4863      1.00000
     21     -34.4787      1.00000
     22     -34.3034      1.00000
     23     -34.1364      1.00000
     24     -34.0434      1.00000
     25     -23.7375      1.00000
     26     -23.5040      1.00000
     27     -23.3016      1.00000
     28     -23.2143      1.00000
     29     -23.1291      1.00000
     30     -23.0239      1.00000
     31     -22.9674      1.00000
     32     -22.8074      1.00000
     33     -22.7821      1.00000
     34     -22.6922      1.00000
     35     -22.5773      1.00000
     36     -22.4866      1.00000
     37     -22.3546      1.00000
     38     -22.2243      1.00000
     39     -21.9575      1.00000
     40     -21.9063      1.00000
     41     -17.0485      1.00000
     42     -16.8342      1.00000
     43     -16.6867      1.00000
     44     -16.6000      1.00000
     45     -16.4674      1.00000
     46     -16.3044      1.00000
     47     -15.7106      1.00000
     48     -15.3915      1.00000
     49      -7.0883      1.00000
     50      -6.8263      1.00000
     51      -6.6842      1.00000
     52      -6.5176      1.00000
     53      -6.3787      1.00000
     54      -6.3268      1.00000
     55      -6.2162      1.00000
     56      -6.1206      1.00000
     57      -5.9226      1.00000
     58      -5.8019      1.00000
     59      -5.7908      1.00000
     60      -5.7418      1.00000
     61      -5.7135      1.00000
     62      -5.5496      1.00000
     63      -5.4953      1.00000
     64      -5.3982      1.00000
     65      -5.3604      1.00000
     66      -5.2627      1.00000
     67      -5.1952      1.00000
     68      -5.1370      1.00000
     69      -5.0781      1.00000
     70      -4.9749      1.00000
     71      -4.9073      1.00000
     72      -4.8737      1.00000
     73      -4.7819      1.00000
     74      -4.7498      1.00000
     75      -4.6383      1.00000
     76      -4.5956      1.00000
     77      -4.5649      1.00000
     78      -4.4902      1.00000
     79      -4.4548      1.00000
     80      -4.3415      1.00000
     81      -4.2953      1.00000
     82      -4.2523      1.00000
     83      -4.1953      1.00000
     84      -4.0652      1.00000
     85      -4.0025      1.00000
     86      -3.9387      1.00000
     87      -3.8966      1.00000
     88      -3.8540      1.00000
     89      -3.7120      1.00000
     90      -3.6554      1.00000
     91      -3.6110      1.00000
     92      -3.5188      1.00000
     93      -3.4825      1.00000
     94      -3.4243      1.00000
     95      -3.4124      1.00000
     96      -3.2413      1.00000
     97      -3.2240      1.00000
     98      -3.1471      1.00000
     99      -3.1118      1.00000
    100      -3.0389      1.00000
    101      -2.9641      1.00000
    102      -2.8651      1.00000
    103      -2.8343      1.00000
    104      -2.7773      1.00000
    105      -2.4057      1.00000
    106      -2.3574      1.00000
    107      -2.3153      1.00000
    108      -2.2950      1.00000
    109      -2.1693      1.00000
    110      -2.1040      1.00000
    111      -1.9633      1.00000
    112      -1.7787      1.00000
    113      -1.6183      1.00000
    114      -1.5161      1.00000
    115      -1.3820      1.00000
    116      -1.3601      1.00000
    117      -1.0008      1.00000
    118      -0.8212      1.00000
    119      -0.8035      1.00000
    120      -0.3688      1.00000
    121       1.9928      0.00000
    122       2.0119      0.00000
    123       2.1367      0.00000
    124       2.2806      0.00000
    125       2.4244      0.00000
    126       2.4997      0.00000
    127       2.5852      0.00000
    128       2.6530      0.00000
    129       2.6681      0.00000
    130       2.8004      0.00000
    131       2.9514      0.00000
    132       3.0798      0.00000
    133       3.1395      0.00000
    134       3.1844      0.00000
    135       3.2217      0.00000
    136       3.3022      0.00000
    137       3.3219      0.00000
    138       3.3731      0.00000
    139       3.5795      0.00000
    140       3.6309      0.00000
    141       3.6632      0.00000
    142       3.7015      0.00000
    143       3.7750      0.00000
    144       3.8261      0.00000
    145       3.8391      0.00000
    146       3.9090      0.00000
    147       3.9547      0.00000
    148       4.0829      0.00000
    149       4.2118      0.00000
    150       4.3190      0.00000
    151       4.5274      0.00000
    152       4.6326      0.00000
    153       4.9623      0.00000
    154       5.0835      0.00000
    155       5.4398      0.00000
    156       5.6900      0.00000
    157       5.7532      0.00000
    158       6.0196      0.00000
    159       6.2178      0.00000
    160       6.8087      0.00000

 k-point     7 :      -0.3750    0.3750    0.1250
  band No.  band energies     occupation 
      1     -35.5693      1.00000
      2     -35.5211      1.00000
      3     -35.3254      1.00000
      4     -35.1606      1.00000
      5     -35.0208      1.00000
      6     -35.0034      1.00000
      7     -35.0007      1.00000
      8     -34.9979      1.00000
      9     -34.8816      1.00000
     10     -34.8492      1.00000
     11     -34.8428      1.00000
     12     -34.7683      1.00000
     13     -34.7387      1.00000
     14     -34.7051      1.00000
     15     -34.6718      1.00000
     16     -34.6416      1.00000
     17     -34.6379      1.00000
     18     -34.6308      1.00000
     19     -34.5256      1.00000
     20     -34.4863      1.00000
     21     -34.4787      1.00000
     22     -34.3034      1.00000
     23     -34.1364      1.00000
     24     -34.0434      1.00000
     25     -23.7375      1.00000
     26     -23.5039      1.00000
     27     -23.3017      1.00000
     28     -23.2143      1.00000
     29     -23.1291      1.00000
     30     -23.0239      1.00000
     31     -22.9675      1.00000
     32     -22.8074      1.00000
     33     -22.7819      1.00000
     34     -22.6923      1.00000
     35     -22.5773      1.00000
     36     -22.4866      1.00000
     37     -22.3546      1.00000
     38     -22.2244      1.00000
     39     -21.9575      1.00000
     40     -21.9063      1.00000
     41     -17.0485      1.00000
     42     -16.8343      1.00000
     43     -16.6867      1.00000
     44     -16.6000      1.00000
     45     -16.4674      1.00000
     46     -16.3044      1.00000
     47     -15.7106      1.00000
     48     -15.3915      1.00000
     49      -7.0880      1.00000
     50      -6.8266      1.00000
     51      -6.6863      1.00000
     52      -6.5162      1.00000
     53      -6.3784      1.00000
     54      -6.3260      1.00000
     55      -6.2162      1.00000
     56      -6.1193      1.00000
     57      -5.9239      1.00000
     58      -5.8035      1.00000
     59      -5.7826      1.00000
     60      -5.7430      1.00000
     61      -5.7110      1.00000
     62      -5.5539      1.00000
     63      -5.4985      1.00000
     64      -5.3981      1.00000
     65      -5.3611      1.00000
     66      -5.2740      1.00000
     67      -5.2148      1.00000
     68      -5.1419      1.00000
     69      -5.0634      1.00000
     70      -4.9494      1.00000
     71      -4.9075      1.00000
     72      -4.8762      1.00000
     73      -4.7695      1.00000
     74      -4.7448      1.00000
     75      -4.6361      1.00000
     76      -4.6000      1.00000
     77      -4.5665      1.00000
     78      -4.4921      1.00000
     79      -4.4532      1.00000
     80      -4.3422      1.00000
     81      -4.3004      1.00000
     82      -4.2500      1.00000
     83      -4.2120      1.00000
     84      -4.0579      1.00000
     85      -3.9979      1.00000
     86      -3.9528      1.00000
     87      -3.8967      1.00000
     88      -3.8407      1.00000
     89      -3.7422      1.00000
     90      -3.6628      1.00000
     91      -3.5910      1.00000
     92      -3.5183      1.00000
     93      -3.4730      1.00000
     94      -3.4285      1.00000
     95      -3.4042      1.00000
     96      -3.2432      1.00000
     97      -3.2284      1.00000
     98      -3.1466      1.00000
     99      -3.1118      1.00000
    100      -3.0457      1.00000
    101      -2.9747      1.00000
    102      -2.8500      1.00000
    103      -2.8223      1.00000
    104      -2.7744      1.00000
    105      -2.3829      1.00000
    106      -2.3575      1.00000
    107      -2.3416      1.00000
    108      -2.3056      1.00000
    109      -2.1670      1.00000
    110      -2.0995      1.00000
    111      -1.9647      1.00000
    112      -1.7788      1.00000
    113      -1.6212      1.00000
    114      -1.5190      1.00000
    115      -1.3770      1.00000
    116      -1.3599      1.00000
    117      -1.0009      1.00000
    118      -0.8210      1.00000
    119      -0.8035      1.00000
    120      -0.3689      1.00000
    121       1.9934      0.00000
    122       2.0124      0.00000
    123       2.1628      0.00000
    124       2.2626      0.00000
    125       2.4251      0.00000
    126       2.4881      0.00000
    127       2.5521      0.00000
[...]
 -0.000  -0.000  -0.000  -0.000   0.000  -0.000   0.000  -0.000   0.000   0.000  -0.000   0.000   0.000  -0.000  -0.000   0.000
 -0.000   0.000   0.000  -0.000  -0.000  -0.000  -0.000  -0.000   0.000  -0.000  -0.000  -0.000   0.000  -0.000   0.000   0.000
 -0.000   0.000   0.000  -0.000  -0.000   0.000  -0.000   0.000   0.000   0.000  -0.000   0.000  -0.000  -0.000   0.000   0.000
 -0.000   0.000   0.000   0.000  -0.000  -0.000   0.000  -0.000   0.000   0.000   0.000  -0.000   0.000  -0.000  -0.000  -0.000
  0.000  -0.000  -0.000  -0.000  -0.000  -0.000   0.000   0.000   0.000  -0.000  -0.000  -0.000  -0.000  -0.000   0.000   0.000
  0.000   0.000   0.000   0.000  -0.000   0.000  -0.000   0.000  -0.000  -0.000   0.000   0.000  -0.000   0.000   0.000  -0.000
  0.000  -0.000  -0.000   0.000   0.000   0.000   0.000   0.000   0.000   0.000   0.000   0.000  -0.000   0.000  -0.000  -0.000
  0.000  -0.000  -0.000   0.000  -0.000  -0.000   0.000  -0.000   0.000   0.000   0.000  -0.000  -0.000   0.000   0.000  -0.000
  0.000  -0.000  -0.000  -0.000   0.000  -0.000   0.000  -0.000   0.000   0.000   0.000  -0.000   0.000  -0.000  -0.000  -0.000


------------------------ aborting loop because EDIFF is reached ----------------------------------------


 


 total charge     
 
# of ion       s       p       d       tot
------------------------------------------
    1        0.320   6.472   1.749   8.541
    2        0.321   6.479   1.795   8.595
    3        0.320   6.467   1.750   8.537
    4        0.317   6.457   1.771   8.546
    5        0.303   6.443   1.692   8.439
    6        0.317   6.464   1.794   8.575
    7        0.299   6.459   1.723   8.481
    8        0.320   6.467   1.764   8.552
    9        1.567   3.458   0.000   5.025
   10        1.572   3.475   0.000   5.046
   11        1.566   3.432   0.000   4.998
   12        1.564   3.427   0.000   4.991
   13        1.571   3.477   0.000   5.047
   14        1.571   3.461   0.000   5.032
   15        1.568   3.465   0.000   5.033
   16        1.570   3.465   0.000   5.036
   17        1.730   4.385   0.000   6.115
   18        1.730   4.388   0.000   6.117
   19        1.730   4.387   0.000   6.117
   20        1.727   4.364   0.000   6.092
   21        1.730   4.385   0.000   6.115
   22        1.729   4.385   0.000   6.115
   23        1.730   4.385   0.000   6.115
   24        1.730   4.381   0.000   6.111
   25        1.732   4.399   0.000   6.131
   26        1.732   4.397   0.000   6.128
   27        1.730   4.382   0.000   6.112
   28        1.729   4.375   0.000   6.104
   29        1.729   4.373   0.000   6.102
   30        1.729   4.373   0.000   6.102
   31        1.731   4.394   0.000   6.125
   32        1.731   4.394   0.000   6.125
--------------------------------------------------
tot         42.746 149.517  14.038 206.301
 


 magnetization (x)
 
# of ion       s       p       d       tot
------------------------------------------
    1        0.000   0.000  -0.000   0.000
    2       -0.000  -0.000   0.000  -0.000
    3        0.000   0.000  -0.000   0.000
    4       -0.000  -0.000  -0.000  -0.000
    5        0.000   0.000  -0.000   0.000
    6       -0.000  -0.000   0.000   0.000
    7        0.000  -0.000  -0.000  -0.000
    8        0.000   0.000   0.000   0.000
    9        0.000   0.000   0.000   0.000
   10       -0.000   0.000   0.000   0.000
   11        0.000  -0.000   0.000  -0.000
   12       -0.000   0.000   0.000  -0.000
   13       -0.000   0.000   0.000   0.000
   14       -0.000   0.000   0.000   0.000
   15        0.000   0.000   0.000   0.000
   16       -0.000  -0.000   0.000  -0.000
   17        0.000   0.000   0.000   0.000
   18        0.000  -0.000   0.000  -0.000
   19       -0.000   0.000   0.000   0.000
   20       -0.000   0.000   0.000   0.000
   21        0.000  -0.000   0.000  -0.000
   22        0.000  -0.000   0.000  -0.000
   23       -0.000   0.000   0.000   0.000
   24       -0.000  -0.000   0.000  -0.000
   25        0.000  -0.000   0.000  -0.000
   26        0.000  -0.000   0.000  -0.000
   27        0.000  -0.000   0.000   0.000
   28        0.000   0.000   0.000   0.000
   29        0.000  -0.000   0.000  -0.000
   30       -0.000   0.000   0.000  -0.000
   31       -0.000   0.000   0.000  -0.000
   32       -0.000   0.000   0.000   0.000
--------------------------------------------------
tot         -0.000   0.000  -0.000   0.000
 
    CHARGE:  cpu time    1.1488: real time    1.1690
    FORLOC:  cpu time    0.0100: real time    0.0098
    FORNL :  cpu time    6.8420: real time    6.8965
    STRESS:  cpu time   20.5709: real time   20.7389
    FORCOR:  cpu time    0.1630: real time    0.1680
    FORHAR:  cpu time    0.0240: real time    0.0236
    MIXING:  cpu time    0.0130: real time    0.0290
    OFIELD:  cpu time    0.0000: real time    0.0000

  FORCE on cell =-STRESS in cart. coord.  units (eV):
  Direction    XX          YY          ZZ          XY          YZ          ZX
  --------------------------------------------------------------------------------------
  Alpha Z   760.26046   760.26046   760.26046
  Ewald   -4337.65514 -4188.95223 -4280.62757    -4.40172    -3.42694     0.43855
  Hartree  2703.64909  2795.24023  2733.15192    -1.45438    -1.05620     0.57538
  E(xc)   -1232.01165 -1232.34102 -1232.26397     0.01000     0.00811    -0.01275
  Local   -2022.66515 -2307.36149 -2138.36632     6.23726     4.75113    -1.56872
  n-local  -971.41383  -963.27367  -966.01095    -0.24282    -0.16577     0.20152
  augment   748.69793   764.00835   758.61428    -0.23083    -0.19549     0.26278
  Kinetic  4351.12579  4372.39041  4365.14648     0.08231     0.08525     0.10441
  Fock        0.00000     0.00000     0.00000     0.00000     0.00000     0.00000
  -------------------------------------------------------------------------------------
  Total      -0.01249    -0.02894    -0.09568    -0.00017     0.00009     0.00117
  in kB      -0.04346    -0.10068    -0.33282    -0.00061     0.00032     0.00408
  external pressure =       -0.16 kB  Pullay stress =        0.00 kB


 VOLUME and BASIS-vectors are now :
 -----------------------------------------------------------------------------
  energy-cutoff  :      700.00
  volume of cell :      460.59
      direct lattice vectors                 reciprocal lattice vectors
     7.825847558  0.000192739 -0.000340070     0.127781687 -0.000003169  0.000005878
     0.000188912  7.618736311  0.000451891    -0.000003233  0.131255364 -0.000007974
    -0.000355324  0.000469278  7.724980210     0.000005625 -0.000007678  0.129450171

  length of vectors
     7.825847568  7.618736327  7.724980232     0.127781687  0.131255364  0.129450171


 FORCES acting on ions
    electron-ion (+dipol)            ewald-force                    non-local-force                 convergence-correction
 -----------------------------------------------------------------------------------------------
   0.197E+00 0.157E+02 0.278E+02   -.221E+00 -.163E+02 -.286E+02   0.266E-01 0.610E+00 0.771E+00   -.192E-03 0.549E-03 0.677E-04
   0.117E+02 0.166E+02 -.286E+02   -.116E+02 -.165E+02 0.287E+02   -.121E+00 -.137E+00 -.157E+00   -.228E-03 -.365E-03 -.153E-03
   0.665E+01 -.213E+02 0.267E+02   -.660E+01 0.222E+02 -.275E+02   -.520E-01 -.910E+00 0.807E+00   -.144E-03 -.408E-03 -.101E-02
   0.138E+02 -.155E+02 -.315E+02   -.147E+02 0.153E+02 0.324E+02   0.909E+00 0.144E+00 -.900E+00   -.137E-03 0.385E-03 0.936E-03
   -.155E+00 0.236E+02 0.222E+00   0.197E+00 -.235E+02 0.856E+00   -.403E-01 -.726E-01 -.108E+01   0.115E-03 0.206E-02 0.316E-03
   -.964E+01 0.200E+02 -.476E+00   0.952E+01 -.211E+02 -.239E+00   0.125E+00 0.109E+01 0.720E+00   0.181E-03 -.673E-03 -.193E-03
   -.118E+02 -.263E+02 0.356E+01   0.117E+02 0.263E+02 -.359E+01   0.109E+00 0.314E-01 0.357E-01   0.213E-03 0.162E-02 0.336E-05
   -.212E+02 -.175E+02 -.627E+00   0.222E+02 0.183E+02 0.656E+00   -.984E+00 -.784E+00 -.276E-01   0.317E-03 0.619E-03 0.707E-04
   0.205E+02 0.749E+00 0.123E+01   -.225E+02 -.178E+01 -.224E+01   0.203E+01 0.103E+01 0.101E+01   -.211E-03 0.285E-03 0.187E-03
   0.204E+01 0.163E+02 -.615E+01   -.207E+01 -.181E+02 0.831E+01   0.328E-01 0.182E+01 -.215E+01   -.110E-03 0.133E-02 -.265E-03
   -.380E+01 0.250E+02 0.747E+01   0.388E+01 -.262E+02 -.813E+01   -.773E-01 0.118E+01 0.646E+00   0.107E-03 -.507E-03 0.367E-04
   -.324E+01 -.212E+02 0.778E+01   0.331E+01 0.220E+02 -.842E+01   -.676E-01 -.755E+00 0.629E+00   0.876E-04 -.174E-02 0.303E-04
   0.351E+01 -.139E+02 -.142E+02   -.463E+01 0.154E+02 0.161E+02   0.112E+01 -.153E+01 -.183E+01   0.150E-03 -.275E-03 0.117E-03
   0.372E+01 -.139E+01 -.532E+02   -.387E+01 0.250E+01 0.585E+02   0.154E+00 -.111E+01 -.536E+01   -.171E-03 -.111E-03 -.321E-04
   -.648E+01 0.895E+00 0.324E+01   0.795E+01 -.188E+01 -.367E+01   -.147E+01 0.982E+00 0.433E+00   -.997E-04 0.869E-04 -.761E-03
   -.269E+01 -.434E-01 0.410E+02   0.273E+01 0.118E+01 -.444E+02   -.377E-01 -.114E+01 0.336E+01   0.663E-04 -.724E-04 -.111E-02
   -.380E+02 -.131E+01 0.782E+01   0.415E+02 0.372E+01 -.808E+01   -.354E+01 -.242E+01 0.260E+00   0.256E-03 0.159E-03 -.165E-03
   -.357E+02 0.278E+01 -.388E+01   0.392E+02 -.148E+01 0.323E+01   -.347E+01 -.129E+01 0.647E+00   -.624E-03 -.402E-03 0.277E-03
   -.178E+02 -.312E+01 -.372E+01   0.198E+02 0.158E+01 0.596E+01   -.206E+01 0.153E+01 -.223E+01   0.196E-02 0.394E-03 -.374E-03
   -.209E+00 -.400E+01 -.283E+01   -.436E+00 0.289E+01 0.186E+01   0.642E+00 0.111E+01 0.970E+00   0.235E-03 0.302E-03 0.267E-03
   0.380E+02 -.163E+01 0.751E+01   -.416E+02 0.405E+01 -.776E+01   0.355E+01 -.243E+01 0.251E+00   -.491E-03 0.154E-03 -.210E-03
   0.360E+02 -.506E+00 -.260E+01   -.397E+02 0.194E+01 0.181E+01   0.371E+01 -.143E+01 0.792E+00   0.303E-03 -.477E-03 0.287E-03
   0.200E+02 -.306E+01 -.553E+01   -.220E+02 0.157E+01 0.782E+01   0.192E+01 0.148E+01 -.229E+01   -.181E-02 0.332E-03 -.330E-03
   0.261E+01 0.118E+01 0.334E+00   -.264E+01 -.192E+01 0.222E+01   0.332E-01 0.741E+00 -.255E+01   -.100E-03 -.110E-02 -.342E-03
   -.969E+01 -.240E+02 0.172E+02   0.129E+02 0.263E+02 -.237E+02   -.318E+01 -.231E+01 0.649E+01   -.330E-03 -.713E-03 0.362E-03
   -.111E+02 0.240E+02 0.221E+02   0.142E+02 -.263E+02 -.289E+02   -.314E+01 0.235E+01 0.680E+01   -.113E-03 0.327E-03 0.479E-03
   0.307E+00 -.112E+01 -.130E+02   -.165E+01 0.219E+01 0.153E+02   0.134E+01 -.107E+01 -.227E+01   0.357E-03 0.222E-03 -.205E-03
   0.415E+01 0.157E+01 0.619E+01   -.428E+01 0.449E-01 -.359E+01   0.133E+00 -.161E+01 -.260E+01   -.286E-03 -.267E-03 -.103E-03
   -.245E+01 -.461E+01 0.563E+01   0.407E+01 0.361E+01 -.637E+01   -.162E+01 0.994E+00 0.745E+00   -.874E-04 0.206E-03 0.530E-03
   -.345E+01 0.617E+01 -.199E+02   0.351E+01 -.511E+01 0.199E+02   -.614E-01 -.106E+01 0.548E-02   -.806E-04 -.993E-04 0.886E-03
   0.470E+01 0.494E+01 0.126E+02   -.691E+01 -.791E+01 -.138E+02   0.221E+01 0.297E+01 0.127E+01   0.459E-03 0.738E-03 -.113E-02
   0.873E+01 0.382E+00 -.142E+02   -.113E+02 -.294E+01 0.155E+02   0.254E+01 0.256E+01 -.124E+01   0.574E-03 0.450E-03 0.110E-02
 -----------------------------------------------------------------------------------------------
   -.661E+00 -.577E+00 -.195E+01   -.728E-13 -.493E-13 -.284E-13   0.660E+00 0.575E+00 0.195E+01   0.174E-03 0.301E-02 -.435E-03
 
 
 POSITION                                       TOTAL-FORCE (eV/Angst)
 -----------------------------------------------------------------------------------
      0.00158      7.51063      7.69787         0.001924      0.001433     -0.000961
      0.00867      0.00917      4.01704         0.003634      0.003294      0.006183
      0.00236      3.87668      7.61796        -0.002536     -0.001566     -0.000070
      7.69392      3.81135      3.94568        -0.003752      0.002539     -0.002589
      3.91617      7.61582      0.06118         0.002256     -0.008326     -0.002162
      3.91463      7.55362      3.73066         0.004058      0.001675      0.004216
      3.90985      3.79391      0.00528        -0.002623     -0.007502     -0.000401
      3.99642      3.91972      3.87004        -0.002646      0.005128      0.001306
      5.87859      3.80898      3.86095        -0.002860      0.000225     -0.000714
      7.82585      5.71892      0.03241        -0.000520     -0.007891      0.004525
      3.91956      1.92156      7.70640         0.001667      0.002715     -0.009183
      3.91931      5.68674      7.70750         0.001513      0.002070     -0.004299
      3.90597      5.71554      3.88746        -0.000214     -0.002983      0.001086
      7.82334      0.01367      5.77581         0.002493      0.000646     -0.006738
      0.00506      3.79658      5.78702        -0.000705      0.000520      0.000688
      3.91824      0.01753      1.94904         0.003542      0.004562     -0.003096
      1.92366      0.03617      7.72462         0.003117     -0.002489      0.000304
      1.93065      0.02939      3.86150         0.001603      0.001955     -0.001136
      1.93221      3.77523      0.03745        -0.001713     -0.003612      0.004584
      1.94269      3.79828      3.84632        -0.002182      0.003026     -0.002240
      5.90657      0.03590      0.00005         0.000376     -0.002577      0.001395
      5.90892      0.03689      3.85654         0.003466      0.004998     -0.002628
      5.89226      3.77639      0.04084        -0.001724     -0.002522      0.003286
      7.82539      1.89528      0.05397        -0.001031     -0.000169      0.002578
      0.05171      1.89206      3.76003         0.003372      0.001762     -0.000027
      0.05296      5.73882      3.74636        -0.000797      0.002113     -0.003510
      3.88843      1.91295      3.91013        -0.003994      0.001948      0.008916
      7.82309      0.02769      1.95739         0.003796      0.004588      0.000858
      0.01800      3.78589      1.93028        -0.001192     -0.002399      0.000524
      3.92083      0.02660      5.75938         0.005664     -0.000975      0.000072
      3.87011      3.75062      1.95554        -0.005596     -0.005301     -0.000303
      3.85780      3.76492      5.78276        -0.008394      0.003114     -0.000460
 -----------------------------------------------------------------------------------
    total drift:                               -0.000719      0.000742      0.000326


--------------------------------------------------------------------------------------------------------



  FREE ENERGIE OF THE ION-ELECTRON SYSTEM (eV)
  ---------------------------------------------------
  free  energy   TOTEN  =      -212.57635343 eV

  energy  without entropy=     -212.57635343  energy(sigma->0) =     -212.57635343
 


--------------------------------------------------------------------------------------------------------


    POTLOK:  cpu time    1.0008: real time    1.0338


--------------------------------------------------------------------------------------------------------


 stress matrix after NEB project (eV)
     -0.01249     -0.00017      0.00117
     -0.00017     -0.02894      0.00009
      0.00117      0.00009     -0.09568
  FORCES: max atom, RMS     0.009962    0.005982
  FORCE total and by dimension    0.033837    0.009183
  Stress total and by dimension    0.100751    0.095678
 Quasi-Newton relaxation of ions (Broydens 2nd method)
  g(Force)  = 0.552E-04   g(Stress)= 0.153E-04

 Reset! Starting new Quasi-Newton update for ions 


--------------------------------------------------------------------------------------------------------


  
 reached required accuracy - stopping structural energy minimisation
 writing wavefunctions
     LOOP+:  cpu time  111.5140: real time  113.4404
    4ORBIT:  cpu time    0.0000: real time    0.0000
 


 total charge     
 
# of ion       s       p       d       tot
------------------------------------------
    1        0.320   6.472   1.749   8.541
    2        0.321   6.479   1.795   8.595
    3        0.320   6.467   1.750   8.537
    4        0.317   6.457   1.771   8.546
    5        0.303   6.443   1.692   8.439
    6        0.317   6.464   1.794   8.575
    7        0.299   6.459   1.723   8.481
    8        0.320   6.467   1.764   8.552
    9        1.567   3.458   0.000   5.025
   10        1.572   3.475   0.000   5.046
   11        1.566   3.432   0.000   4.998
   12        1.564   3.427   0.000   4.991
   13        1.571   3.477   0.000   5.047
   14        1.571   3.461   0.000   5.032
   15        1.568   3.465   0.000   5.033
   16        1.570   3.465   0.000   5.036
   17        1.730   4.385   0.000   6.115
   18        1.730   4.388   0.000   6.117
   19        1.730   4.387   0.000   6.117
   20        1.727   4.364   0.000   6.092
   21        1.730   4.385   0.000   6.115
   22        1.729   4.385   0.000   6.115
   23        1.730   4.385   0.000   6.115
   24        1.730   4.381   0.000   6.111
   25        1.732   4.399   0.000   6.131
   26        1.732   4.397   0.000   6.128
   27        1.730   4.382   0.000   6.112
   28        1.729   4.375   0.000   6.104
   29        1.729   4.373   0.000   6.102
   30        1.729   4.373   0.000   6.102
   31        1.731   4.394   0.000   6.125
   32        1.731   4.394   0.000   6.125
--------------------------------------------------
tot         42.746 149.517  14.038 206.301
 


 magnetization (x)
 
# of ion       s       p       d       tot
------------------------------------------
    1        0.000   0.000  -0.000   0.000
    2       -0.000  -0.000   0.000  -0.000
    3        0.000   0.000  -0.000   0.000
    4       -0.000  -0.000  -0.000  -0.000
    5        0.000   0.000  -0.000   0.000
    6       -0.000  -0.000   0.000   0.000
    7        0.000  -0.000  -0.000  -0.000
    8        0.000   0.000   0.000   0.000
    9        0.000   0.000   0.000   0.000
   10       -0.000   0.000   0.000   0.000
   11        0.000  -0.000   0.000  -0.000
   12       -0.000   0.000   0.000  -0.000
   13       -0.000   0.000   0.000   0.000
   14       -0.000   0.000   0.000   0.000
   15        0.000   0.000   0.000   0.000
   16       -0.000  -0.000   0.000  -0.000
   17        0.000   0.000   0.000   0.000
   18        0.000  -0.000   0.000  -0.000
   19       -0.000   0.000   0.000   0.000
   20       -0.000   0.000   0.000   0.000
   21        0.000  -0.000   0.000  -0.000
   22        0.000  -0.000   0.000  -0.000
   23       -0.000   0.000   0.000   0.000
   24       -0.000  -0.000   0.000  -0.000
   25        0.000  -0.000   0.000  -0.000
   26        0.000  -0.000   0.000  -0.000
   27        0.000  -0.000   0.000   0.000
   28        0.000   0.000   0.000   0.000
   29        0.000  -0.000   0.000  -0.000
   30       -0.000   0.000   0.000  -0.000
   31       -0.000   0.000   0.000  -0.000
   32       -0.000   0.000   0.000   0.000
--------------------------------------------------
tot         -0.000   0.000  -0.000   0.000
 

 total amount of memory used by VASP MPI-rank0   106888. kBytes
=======================================================================

   base      :      30000. kBytes
   nonlr-proj:       8604. kBytes
   fftplans  :       8423. kBytes
   grid      :       8783. kBytes
   one-center:        124. kBytes
   wavefun   :      50954. kBytes
 
  
  
 General timing and accounting informations for this job:
 ========================================================
  
                  Total CPU time used (sec):      161.420
                            User time (sec):      154.483
                          System time (sec):        6.938
                         Elapsed time (sec):      171.543
  
                   Maximum memory used (kb):      222812.
                   Average memory used (kb):           0.
  
                          Minor page faults:       101368
                          Major page faults:            2
                 Voluntary context switches:        51258
