 vasp.5.4.4.18Apr17-6-g9f103f2a35 (build Apr 30 2017 20:10:35) complex          
  
 executed on             LinuxIFC date 2017.08.02  18:57:27
 running on   64 total cores
 distrk:  each k-point on   64 cores,    1 groups
 distr:  one band on NCORES_PER_BAND=   8 cores,    8 groups


--------------------------------------------------------------------------------------------------------


 INCAR:
 POTCAR:   PAW_PBE Ti_pv 07Sep2000                
 POTCAR:   PAW_PBE O 08Apr2002                    
 POTCAR:    PAW_PBE F 08Apr2002                   
 POTCAR:   PAW_PBE Ti_pv 07Sep2000                
   VRHFIN =Ti: d3 s1                                                            
   LEXCH  = PE                                                                  
   EATOM  =  1042.3781 eV,   76.6126 Ry                                         
                                                                                
   TITEL  = PAW_PBE Ti_pv 07Sep2000                                             
   LULTRA =        F    use ultrasoft PP ?                                      
   IUNSCR =        1    unscreen: 0-lin 1-nonlin 2-no                           
   RPACOR =    2.200    partial core radius                                     
   POMASS =   47.880; ZVAL   =   10.000    mass and valenz                      
   RCORE  =    2.500    outmost cutoff radius                                   
   RWIGS  =    2.500; RWIGS  =    1.323    wigner-seitz radius (au A)           
   ENMAX  =  222.338; ENMIN  =  166.753 eV                                      
   RCLOC  =    1.701    cutoff for local pot                                    
   LCOR   =        T    correct aug charges                                     
   LPAW   =        T    paw PP                                                  
   EAUG   =  482.848                                                            
   DEXC   =    -.008                                                            
   RMAX   =    3.092    core radius for proj-oper                               
   RAUG   =    1.300    factor for augmentation sphere                          
   RDEP   =    2.538    radius for radial grids                                 
   QCUT   =   -4.042; QGAM   =    8.085    optimization parameters              
                                                                                
   Description                                                                  
     l     E      TYP  RCUT    TYP  RCUT                                        
     1   .000     23  2.300                                                     
     1  -.100     23  2.300                                                     
     2   .000     23  2.500                                                     
     2   .000     23  2.500                                                     
     0   .000     23  2.500                                                     
     0  1.500     23  2.500                                                     
     3   .000      7   .000                                                     
  local pseudopotential read in
  partial core-charges read in
  atomic valenz-charges read in
  non local Contribution for L=           1  read in
    real space projection operators read in
  non local Contribution for L=           1  read in
    real space projection operators read in
  non local Contribution for L=           2  read in
    real space projection operators read in
  non local Contribution for L=           2  read in
    real space projection operators read in
  non local Contribution for L=           0  read in
    real space projection operators read in
  non local Contribution for L=           0  read in
    real space projection operators read in
    PAW grid and wavefunctions read in
 
   number of l-projection  operators is LMAX  =           6
   number of lm-projection operators is LMMAX =          18
 
 POTCAR:   PAW_PBE O 08Apr2002                    
   VRHFIN =O: s2p4                                                              
   LEXCH  = PE                                                                  
   EATOM  =   432.3788 eV,   31.7789 Ry                                         
                                                                                
   TITEL  = PAW_PBE O 08Apr2002                                                 
   LULTRA =        F    use ultrasoft PP ?                                      
   IUNSCR =        0    unscreen: 0-lin 1-nonlin 2-no                           
   RPACOR =     .000    partial core radius                                     
   POMASS =   16.000; ZVAL   =    6.000    mass and valenz                      
   RCORE  =    1.520    outmost cutoff radius                                   
   RWIGS  =    1.550; RWIGS  =     .820    wigner-seitz radius (au A)           
   ENMAX  =  400.000; ENMIN  =  300.000 eV                                      
   ICORE  =        2    local potential                                         
   LCOR   =        T    correct aug charges                                     
   LPAW   =        T    paw PP                                                  
   EAUG   =  605.392                                                            
   DEXC   =     .000                                                            
   RMAX   =    2.264    core radius for proj-oper                               
   RAUG   =    1.300    factor for augmentation sphere                          
   RDEP   =    1.550    radius for radial grids                                 
   QCUT   =   -5.520; QGAM   =   11.041    optimization parameters              
                                                                                
   Description                                                                  
     l     E      TYP  RCUT    TYP  RCUT                                        
     0   .000     23  1.200                                                     
     0  -.700     23  1.200                                                     
     1   .000     23  1.520                                                     
     1   .600     23  1.520                                                     
     2   .000      7  1.500                                                     
  local pseudopotential read in
  atomic valenz-charges read in
  non local Contribution for L=           0  read in
    real space projection operators read in
  non local Contribution for L=           0  read in
    real space projection operators read in
  non local Contribution for L=           1  read in
    real space projection operators read in
  non local Contribution for L=           1  read in
    real space projection operators read in
    PAW grid and wavefunctions read in
 
   number of l-projection  operators is LMAX  =           4
   number of lm-projection operators is LMMAX =           8
 
 POTCAR:    PAW_PBE F 08Apr2002                   
   VRHFIN =F: s2p5                                                              
   LEXCH  = PE                                                                  
   EATOM  =   659.6475 eV,   48.4827 Ry                                         
                                                                                
   TITEL  = PAW_PBE F 08Apr2002                                                 
   LULTRA =        F    use ultrasoft PP ?                                      
   IUNSCR =        1    unscreen: 0-lin 1-nonlin 2-no                           
   RPACOR =    1.200    partial core radius                                     
   POMASS =   18.998; ZVAL   =    7.000    mass and valenz                      
   RCORE  =    1.520    outmost cutoff radius                                   
   RWIGS  =    1.500; RWIGS  =    0.794    wigner-seitz radius (au A)           
   ENMAX  =  400.000; ENMIN  =  300.000 eV                                      
   ICORE  =        2    local potential                                         
   LCOR   =        T    correct aug charges                                     
   LPAW   =        T    paw PP                                                  
   EAUG   =  613.614                                                            
   RMAX   =    1.555    core radius for proj-oper                               
   RAUG   =    1.300    factor for augmentation sphere                          
   RDEP   =    1.539    radius for radial grids                                 
   RDEPT  =    1.299    core radius for aug-charge                              
                                                                                
   Atomic configuration                                                         
    4 entries                                                                   
     n  l   j            E        occ.                                          
     1  0  0.50      -663.3661   2.0000                                         
     2  0  0.50       -29.8995   2.0000                                         
     2  1  0.50       -11.1114   5.0000                                         
     3  2  1.50       -10.8847   0.0000                                         
   Description                                                                  
     l       E           TYP  RCUT    TYP  RCUT                                 
     0    -29.8995018     23  1.200                                             
     0     -9.5240782     23  1.200                                             
     1    -11.1113914     23  1.520                                             
     1      1.3605826     23  1.520                                             
     2    -10.8846608      7  1.500                                             
  local pseudopotential read in
  partial core-charges read in
  partial kinetic energy density read in
  atomic valenz-charges read in
  non local Contribution for L=           0  read in
    real space projection operators read in
  non local Contribution for L=           0  read in
    real space projection operators read in
  non local Contribution for L=           1  read in
    real space projection operators read in
  non local Contribution for L=           1  read in
    real space projection operators read in
    PAW grid and wavefunctions read in
 
   number of l-projection  operators is LMAX  =           4
   number of lm-projection operators is LMMAX =           8
 
 Optimization of the real space projectors (new method)

 maximal supplied QI-value         = 15.12
 optimisation between [QCUT,QGAM] = [ 13.45, 27.06] = [ 50.69,205.06] Ry 
 Optimized for a Real-space Cutoff    1.49 Angstroem

   l    n(q)    QCUT    max X(q) W(low)/X(q) W(high)/X(q)  e(spline) 
   1     12    13.455     4.841    0.13E-05    0.83E-06    0.56E-07
   1     12    13.455     5.701    0.32E-04    0.25E-04    0.17E-06
   2     11    13.455     4.569    0.64E-05    0.34E-05    0.50E-07
   2     11    13.455    32.276    0.49E-04    0.38E-04    0.46E-06
   0     12    13.455    30.046    0.17E-04    0.41E-05    0.51E-07
   0     12    13.455    45.433    0.12E-04    0.27E-04    0.38E-06
 Optimization of the real space projectors (new method)

 maximal supplied QI-value         = 24.76
 optimisation between [QCUT,QGAM] = [ 13.37, 26.98] = [ 50.04,203.89] Ry 
 Optimized for a Real-space Cutoff    1.17 Angstroem

   l    n(q)    QCUT    max X(q) W(low)/X(q) W(high)/X(q)  e(spline) 
   0      9    13.368     4.192    0.20E-04    0.58E-05    0.56E-07
   0      9    13.368     8.473    0.60E-04    0.52E-04    0.21E-06
   1      9    13.368     2.474    0.22E-04    0.17E-04    0.28E-07
   1      9    13.368     3.912    0.94E-04    0.97E-04    0.20E-06
 Optimization of the real space projectors (new method)

 maximal supplied QI-value         = 24.76
 optimisation between [QCUT,QGAM] = [ 13.37, 26.98] = [ 50.04,203.89] Ry 
 Optimized for a Real-space Cutoff    1.17 Angstroem

   l    n(q)    QCUT    max X(q) W(low)/X(q) W(high)/X(q)  e(spline) 
   0      9    13.368    14.049    0.39E-04    0.34E-04    0.16E-06
   0      9    13.368     8.945    0.54E-04    0.47E-04    0.20E-06
   1      9    13.368     7.086    0.99E-04    0.10E-03    0.23E-06
   1      9    13.368     6.747    0.86E-04    0.89E-04    0.21E-06

 ----------------------------------------------------------------------------- 
|                                                                             |
|  ADVICE TO THIS USER RUNNING 'VASP/VAMP'   (HEAR YOUR MASTER'S VOICE ...):  |
|                                                                             |
|      You enforced a specific xc-type in the INCAR file,                     |
|      a different type was found on the POTCAR file                          |
|          I HOPE YOU KNOW, WHAT YOU ARE  DOING                               |
|                                                                             |
 ----------------------------------------------------------------------------- 

 PAW_PBE Ti_pv 07Sep2000                :
 energy of atom  1       EATOM=-1042.3781
 kinetic energy error for atom=    0.0006 (will be added to EATOM!!)
 PAW_PBE O 08Apr2002                    :
 energy of atom  2       EATOM= -432.3788
 kinetic energy error for atom=    0.0091 (will be added to EATOM!!)
  PAW_PBE F 08Apr2002                   :
 energy of atom  3       EATOM= -659.6475
 kinetic energy error for atom=    0.0140 (will be added to EATOM!!)
 
 
 POSCAR: TiOF2 2x2x2 config 0005                 
  positions in direct lattice
  velocities in cartesian coordinates
 exchange correlation table for  LEXCH =       14
   RHO(1)=    0.500       N(1)  =     2000
   RHO(2)=  100.500       N(2)  =     4000

 VTST: version 3.1, (03/28/14)

 CHAIN: initializing optimizer
 
 OPT: Using VASP QUASI-newton optimizer
 CHAIN: Read ICHAIN            0
 
 POSCAR: TiOF2 2x2x2 config 0005                 
  positions in direct lattice
  velocities in cartesian coordinates
 


--------------------------------------------------------------------------------------------------------


 ion  position               nearest neighbor table
   1  1.000  0.000  0.989-  11 1.80  21 1.88  17 1.88  25 1.95  27 1.95  31 1.97
   2  0.000  0.000  0.511-  11 1.80  18 1.88  22 1.88  26 1.95  28 1.95  31 1.97
   3  0.000  0.500  0.011-  12 1.80  19 1.88  23 1.88  25 1.95  27 1.95  32 1.97
   4  1.000  0.500  0.489-  12 1.80  24 1.88  20 1.88  26 1.95  28 1.95  32 1.97
   5  0.500  0.988  0.000-   9 1.85  13 1.89  14 1.89  29 2.05  17 2.09  21 2.09
   6  0.500  0.988  0.500-  10 1.85  13 1.89  14 1.89  30 2.05  22 2.09  18 2.09
   7  0.500  0.512  1.000-   9 1.85  16 1.89  15 1.89  29 2.05  23 2.09  19 2.09
   8  0.500  0.512  0.500-  10 1.85  16 1.89  15 1.89  30 2.05  20 2.09  24 2.09
   9  0.500  0.750  0.000-   5 1.85   7 1.85
  10  0.500  0.750  0.500-   8 1.85   6 1.85
  11  0.000  1.000  0.750-   1 1.80   2 1.80
  12  1.000  0.500  0.250-   3 1.80   4 1.80
  13  0.500  0.005  0.250-   5 1.89   6 1.89
  14  0.500  0.005  0.750-   6 1.89   5 1.89
  15  0.500  0.495  0.250-   8 1.89   7 1.89
  16  0.500  0.495  0.750-   7 1.89   8 1.89
  17  0.237  0.001  0.006-   1 1.88   5 2.09
  18  0.237  0.001  0.494-   2 1.88   6 2.09
  19  0.237  0.499  0.994-   3 1.88   7 2.09
  20  0.237  0.499  0.506-   4 1.88   8 2.09
  21  0.763  0.001  0.006-   1 1.88   5 2.09
  22  0.763  0.001  0.494-   2 1.88   6 2.09
  23  0.763  0.499  0.994-   3 1.88   7 2.09
  24  0.763  0.499  0.506-   4 1.88   8 2.09
  25  0.000  0.250  1.000-   1 1.95   3 1.95
  26  0.000  0.250  0.500-   2 1.95   4 1.95
  27  1.000  0.750  1.000-   3 1.95   1 1.95
  28  1.000  0.750  0.500-   4 1.95   2 1.95
  29  0.500  0.250  1.000-   7 2.05   5 2.05
  30  0.500  0.250  0.500-   8 2.05   6 2.05
  31  1.000  1.000  0.250-   2 1.97   1 1.97
  32  0.000  0.500  0.750-   4 1.97   3 1.97
 

IMPORTANT INFORMATION: All symmetrisations will be switched off!
NOSYMM: (Re-)initialisation of all symmetry stuff for point group C_1.

 
 
 KPOINTS: Title                                   

Automatic generation of k-mesh.
Space group operators:
 irot       det(A)        alpha          n_x          n_y          n_z        tau_x        tau_y        tau_z
    1     1.000000     0.000000     1.000000     0.000000     0.000000     0.000000     0.000000     0.000000
 
 Subroutine IBZKPT returns following result:
 ===========================================
 
 Found      4 irreducible k-points:
 
 Following reciprocal coordinates:
            Coordinates               Weight
  0.250000  0.250000  0.250000      2.000000
 -0.250000  0.250000  0.250000      2.000000
  0.250000 -0.250000  0.250000      2.000000
 -0.250000 -0.250000  0.250000      2.000000
 
 Following cartesian coordinates:
            Coordinates               Weight
  0.031511  0.032056  0.033178      2.000000
 -0.031511  0.032056  0.033178      2.000000
  0.031511 -0.032056  0.033178      2.000000
 -0.031511 -0.032056  0.033178      2.000000
 


--------------------------------------------------------------------------------------------------------




 Dimension of arrays:
   k-points           NKPTS =      4   k-points in BZ     NKDIM =      4   number of bands    NBANDS=    160
   number of dos      NEDOS =   3001   number of ions     NIONS =     32
   non local maximal  LDIM  =      6   non local SUM 2l+1 LMDIM =     18
   total plane-waves  NPLWV = 343000
   max r-space proj   IRMAX =  10201   max aug-charges    IRDMAX= 228678
   dimension x,y,z NGX =    70 NGY =   70 NGZ =   70
   dimension x,y,z NGXF=   140 NGYF=  140 NGZF=  140
   support grid    NGXF=   280 NGYF=  280 NGZF=  280
   ions per type =               8   8  16
   NGX,Y,Z   is equivalent  to a cutoff of  14.67, 14.92, 15.44 a.u.
   NGXF,Y,Z  is equivalent  to a cutoff of  29.34, 29.84, 30.89 a.u.

 SYSTEM =  LTO                                     
 POSCAR =  TiOF2 2x2x2 config 0005                 

 Startparameter for this run:
   NWRITE =      2    write-flag & timer
   PREC   = accura    normal or accurate (medium, high low for compatibility)
   ISTART =      1    job   : 0-new  1-cont  2-samecut
   ICHARG =      0    charge: 1-file 2-atom 10-const
   ISPIN  =      2    spin polarized calculation?
   LNONCOLLINEAR =      F non collinear calculations
   LSORBIT =      F    spin-orbit coupling
   INIWAV =      1    electr: 0-lowe 1-rand  2-diag
   LASPH  =      T    aspherical Exc in radial PAW
   METAGGA=      F    non-selfconsistent MetaGGA calc.

 Electronic Relaxation 1
   ENCUT  =  700.0 eV  51.45 Ry    7.17 a.u.  17.12 16.82 16.26*2*pi/ulx,y,z
   ENINI  =  700.0     initial cutoff
   ENAUG  =  613.6 eV  augmentation charge cutoff
   NELM   =     60;   NELMIN=  2; NELMDL=  0     # of ELM steps 
   EDIFF  = 0.1E-05   stopping-criterion for ELM
   LREAL  =      T    real-space projection
   NLSPLINE    = F    spline interpolate recip. space projectors
   LCOMPAT=      F    compatible to vasp.4.4
   GGA_COMPAT  = T    GGA compatible to vasp.4.4-vasp.4.6
   LMAXPAW     = -100 max onsite density
   LMAXMIX     =    4 max onsite mixed and CHGCAR
   VOSKOWN=      0    Vosko Wilk Nusair interpolation
   ROPT   =   -0.00010  -0.00010  -0.00010
 Ionic relaxation
   EDIFFG = -.1E-01   stopping-criterion for IOM
   NSW    =    100    number of steps for IOM
   NBLOCK =      1;   KBLOCK =    100    inner block; outer block 
   IBRION =      1    ionic relax: 0-MD 1-quasi-New 2-CG
   NFREE  =      0    steps in history (QN), initial steepest desc. (CG)
   ISIF   =      3    stress and relaxation
   IWAVPR =     11    prediction:  0-non 1-charg 2-wave 3-comb
   ISYM   =      0    0-nonsym 1-usesym 2-fastsym
   LCORR  =      T    Harris-Foulkes like correction to forces

   POTIM  = 0.5000    time-step for ionic-motion
   TEIN   =    0.0    initial temperature
   TEBEG  =    0.0;   TEEND  =   0.0 temperature during run
   SMASS  =  -3.00    Nose mass-parameter (am)
   estimated Nose-frequenzy (Omega)   =  0.10E-29 period in steps =****** mass=  -0.144E-26a.u.
   SCALEE = 1.0000    scale energy and forces
   NPACO  =    256;   APACO  = 16.0  distance and # of slots for P.C.
   PSTRESS=    0.0 pullay stress

  Mass of Ions in am
   POMASS =  47.88 16.00 19.00
  Ionic Valenz
   ZVAL   =  10.00  6.00  7.00
  Atomic Wigner-Seitz radii
   RWIGS  =  -1.00 -1.00 -1.00
  virtual crystal weights 
   VCA    =   1.00  1.00  1.00
   NELECT =     240.0000    total number of electrons
   NUPDOWN=      -1.0000    fix difference up-down

 DOS related values:
   EMIN   =  10.00;   EMAX   =-10.00  energy-range for DOS
   EFERMI =   0.00
   ISMEAR =     0;   SIGMA  =   0.01  broadening in eV -4-tet -1-fermi 0-gaus

 Electronic relaxation 2 (details)
   IALGO  =     38    algorithm
   LDIAG  =      T    sub-space diagonalisation (order eigenvalues)
   LSUBROT=      F    optimize rotation matrix (better conditioning)
   TURBO    =      0    0=normal 1=particle mesh
   IRESTART =      0    0=no restart 2=restart with 2 vectors
   NREBOOT  =      0    no. of reboots
   NMIN     =      0    reboot dimension
   EREF     =   0.00    reference energy to select bands
   IMIX   =      4    mixing-type and parameters
     AMIX     =   0.40;   BMIX     =  1.00
     AMIX_MAG =   1.60;   BMIX_MAG =  1.00
     AMIN     =   0.10
     WC   =   100.;   INIMIX=   1;  MIXPRE=   1;  MAXMIX= -45

 Intra band minimization:
   WEIMIN = 0.0010     energy-eigenvalue tresh-hold
   EBREAK =  0.16E-08  absolut break condition
   DEPER  =   0.30     relativ break condition  

   TIME   =   0.40     timestep for ELM

  volume/ion in A,a.u.               =      14.57        98.32
  Fermi-wavevector in a.u.,A,eV,Ry     =   1.312043  2.479402 23.421851  1.721457
  Thomas-Fermi vector in A             =   2.442463
 
 Write flags
   LWAVE        =      T    write WAVECAR
   LDOWNSAMPLE  =      F    k-point downsampling of WAVECAR
   LCHARG       =      T    write CHGCAR
   LVTOT        =      F    write LOCPOT, total local potential
   LVHAR        =      F    write LOCPOT, Hartree potential only
   LELF         =      F    write electronic localiz. function (ELF)
   LORBIT       =     11    0 simple, 1 ext, 2 COOP (PROOUT), +10 PAW based schemes


 Dipole corrections
   LMONO  =      F    monopole corrections only (constant potential shift)
   LDIPOL =      F    correct potential (dipole corrections)
   IDIPOL =      0    1-x, 2-y, 3-z, 4-all directions 
   EPSILON=  1.0000000 bulk dielectric constant

 LDA+U is selected, type is set to LDAUTYPE =  2
   angular momentum for each species LDAUL =     2   -1   -1
   U (eV)           for each species LDAUU =   4.2  0.0  0.0
   J (eV)           for each species LDAUJ =   0.0  0.0  0.0
 Exchange correlation treatment:
   GGA     =    PS    GGA type
   LEXCH   =    14    internal setting for exchange type
   VOSKOWN=      0    Vosko Wilk Nusair interpolation
   LHFCALC =     F    Hartree Fock is set to
   LHFONE  =     F    Hartree Fock one center treatment
   AEXX    =    0.0000 exact exchange contribution

 Linear response parameters
   LEPSILON=     F    determine dielectric tensor
   LRPA    =     F    only Hartree local field effects (RPA)
   LNABLA  =     F    use nabla operator in PAW spheres
   LVEL    =     F    velocity operator in full k-point grid
   LINTERFAST=   F  fast interpolation
   KINTER  =     0    interpolate to denser k-point grid
   CSHIFT  =0.1000    complex shift for real part using Kramers Kronig
   OMEGAMAX=  -1.0    maximum frequency
   DEG_THRESHOLD= 0.2000000E-02 threshold for treating states as degnerate
   RTIME   =   -0.100 relaxation time in fs
  (WPLASMAI=    0.000 imaginary part of plasma frequency in eV, 0.658/RTIME)
   DFIELD  = 0.0000000 0.0000000 0.0000000 field for delta impulse in time
 
 Orbital magnetization related:
   ORBITALMAG=     F  switch on orbital magnetization
   LCHIMAG   =     F  perturbation theory with respect to B field
   DQ        =  0.001000  dq finite difference perturbation B field
   LLRAUG    =     F  two centre corrections for induced B field



--------------------------------------------------------------------------------------------------------


 quasi-Newton-method for relaxation of ions
 charge density and potential will be updated during run
 spin polarized calculation
 Variant of blocked Davidson
 Davidson routine will perform the subspace rotation
 perform sub-space diagonalisation
    after iterative eigenvector-optimisation
 modified Broyden-mixing scheme, WC =      100.0
 initial mixing is a Kerker type mixing with AMIX =  0.4000 and BMIX =      1.0000
 Hartree-type preconditioning will be used
 using additional bands           40
 real space projection scheme for non local part
 use partial core corrections
 calculate Harris-corrections to forces 
   (improved forces if not selfconsistent)
 use gradient corrections 
 use of overlap-Matrix (Vanderbilt PP)
 Gauss-broadening in eV      SIGMA  =   0.01


--------------------------------------------------------------------------------------------------------


  energy-cutoff  :      700.00
  volume of cell :      466.22
      direct lattice vectors                 reciprocal lattice vectors
     7.933647367 -0.000000000  0.000000042     0.126045431 -0.000000000 -0.000000001
     0.000000001  7.798884844 -0.000000020     0.000000000  0.128223460  0.000000000
     0.000000039 -0.000000020  7.535045678    -0.000000001  0.000000000  0.132713197

  length of vectors
     7.933647367  7.798884844  7.535045678     0.126045431  0.128223460  0.132713197


 
 old parameters found on file WAVECAR:
  energy-cutoff  :      700.00
  volume of cell :      466.13
      direct lattice vectors                 reciprocal lattice vectors
     7.930163323 -0.000000001  0.000000039     0.126100808 -0.000000000 -0.000000001
     0.000000001  7.797885799 -0.000000013     0.000000000  0.128239888  0.000000000
     0.000000037 -0.000000013  7.537881739    -0.000000001  0.000000000  0.132663265

  length of vectors

 
 k-points in units of 2pi/SCALE and weight: Title                                   
   0.03151136  0.03205587  0.03317830       0.250
  -0.03151136  0.03205587  0.03317830       0.250
   0.03151136 -0.03205586  0.03317830       0.250
  -0.03151136 -0.03205586  0.03317830       0.250
 
 k-points in reciprocal lattice and weights: Title                                   
   0.25000000  0.25000000  0.25000000       0.250
  -0.25000000  0.25000000  0.25000000       0.250
   0.25000000 -0.25000000  0.25000000       0.250
  -0.25000000 -0.25000000  0.25000000       0.250
 
 position of ions in fractional coordinates (direct lattice) 
   1.00000000  0.00014174  0.98886816
   0.00000000  0.00014174  0.51113186
   0.00000000  0.49985831  0.01113184
   1.00000000  0.49985831  0.48886814
   0.50000000  0.98762335  0.00037215
   0.50000000  0.98762336  0.49962794
   0.50000000  0.51237660  0.99962786
   0.50000000  0.51237660  0.50037205
   0.50000000  0.74999998  0.00000008
   0.50000000  0.74999998  0.49999992
   0.00000000  0.99965959  0.75000001
   1.00000000  0.50034044  0.24999999
   0.50000000  0.00546131  0.25000001
   0.50000000  0.00534886  0.75000001
   0.50000000  0.49465094  0.24999998
   0.50000000  0.49453877  0.74999998
   0.23680269  0.00103757  0.00587483
   0.23680270  0.00103759  0.49412519
   0.23680269  0.49896243  0.99412512
   0.23680269  0.49896241  0.50587481
   0.76319730  0.00103757  0.00587486
   0.76319730  0.00103760  0.49412522
   0.76319731  0.49896242  0.99412514
   0.76319730  0.49896241  0.50587484
   0.00000000  0.25000002  0.99999998
   0.00000000  0.25000002  0.50000002
   1.00000000  0.75000002  1.00000000
   1.00000000  0.75000002  0.50000000
   0.50000000  0.24999998  0.99999992
   0.50000000  0.24999998  0.50000008
   1.00000000  0.99960136  0.25000001
   0.00000000  0.50039872  0.74999999
 
 position of ions in cartesian coordinates  (Angst):
   7.93364738  0.00110540  7.45116681
   0.00000004  0.00110544  3.85140188
   0.00000002  3.89833740  0.08387892
   7.93364736  3.89833739  3.68364383
   3.96682366  7.70236081  0.00280418
   3.96682373  7.70236082  3.76471937
   3.96682375  3.99596606  7.53224157
   3.96682368  3.99596607  3.77032623
   3.96682368  5.84916344  0.00000059
   3.96682370  5.84916344  3.76752225
   0.00000003  7.79623002  5.65128433
   7.93364738  3.90209749  1.88376137
   3.96682369  0.04259210  1.88376155
   3.96682371  0.04171516  5.65128439
   3.96682369  3.85772574  1.88376132
   3.96682371  3.85685094  5.65128415
   1.87870907  0.00809191  0.04426710
   1.87870912  0.00809203  3.72325589
   1.87870911  3.89135051  7.49077815
   1.87870909  3.89135033  3.81178981
   6.05493828  0.00809186  0.04426733
   6.05493830  0.00809208  3.72325613
   6.05493835  3.89135045  7.49077839
   6.05493830  3.89135038  3.81179005
   0.00000004  1.94972137  7.53504552
   0.00000002  1.94972139  3.76752300
   7.93364741  5.84916378  7.53504569
   7.93364739  5.84916381  3.76752289
   3.96682372  1.94972101  7.53504511
   3.96682370  1.94972103  3.76752344
   7.93364738  7.79577586  1.88376152
   0.00000003  3.90255195  5.65128418
 


--------------------------------------------------------------------------------------------------------


 k-point  1 :   0.2500 0.2500 0.2500  plane waves:   19588
 k-point  2 :  -0.2500 0.2500 0.2500  plane waves:   19588
 k-point  3 :   0.2500-0.2500 0.2500  plane waves:   19588
 k-point  4 :  -0.2500-0.2500 0.2500  plane waves:   19588

 maximum and minimum number of plane-waves per node :      2471     2425

 maximum number of plane-waves:     19588
 maximum index in each direction: 
   IXMAX=   17   IYMAX=   17   IZMAX=   16
   IXMIN=  -17   IYMIN=  -17   IZMIN=  -16


 real space projection operators:
  total allocation   :      18344.62 KBytes
  max/ min on nodes  :       2435.31       1908.19


 parallel 3D FFT for wavefunctions:
    minimum data exchange during FFTs selected (reduces bandwidth)
 parallel 3D FFT for charge:
    minimum data exchange during FFTs selected (reduces bandwidth)


 total amount of memory used by VASP MPI-rank0    62247. kBytes
=======================================================================

   base      :      30000. kBytes
   nonlr-proj:       8508. kBytes
   fftplans  :       8422. kBytes
   grid      :       8783. kBytes
   one-center:        124. kBytes
   wavefun   :       6410. kBytes
 
     INWAV:  cpu time    3.8754: real time    4.5026
 Broyden mixing: mesh for mixing (old mesh)
   NGX = 35   NGY = 33   NGZ = 33
  (NGX  =140   NGY  =140   NGZ  =140)
  gives a total of  38115 points

 charge density for first step will be calculated from the start-wavefunctions


--------------------------------------------------------------------------------------------------------


 Maximum index for non-local projection operator         1369
 Maximum index for augmentation-charges         7133 (set IRDMAX)


--------------------------------------------------------------------------------------------------------


 initial charge from wavefunction
 First call to EWALD:  gamma=   0.229
 Maximum number of real-space cells 3x 3x 3
 Maximum number of reciprocal cells 3x 3x 3

    FEWALD:  cpu time    0.0030: real time    0.0031


--------------------------------------- Iteration      1(   1)  ---------------------------------------


    POTLOK:  cpu time    0.9449: real time    1.2656
    SETDIJ:  cpu time    0.8509: real time    0.8493
     EDDAV:  cpu time    3.8134: real time    3.8114
       DOS:  cpu time    0.0020: real time    0.0013
    CHARGE:  cpu time    0.3839: real time    0.3818
    MIXING:  cpu time    0.1130: real time    0.1129
    --------------------------------------------
      LOOP:  cpu time    6.1081: real time    6.4224

 eigenvalue-minimisations  :  2880
 total energy-change (2. order) :-0.2101635E+03  (-0.1968213E-03)
 number of electron     240.0000002 magnetization      -0.0017630
 augmentation part       61.9002556 magnetization      -0.0011301

 Broyden mixing:
  rms(total) = 0.61673E-01    rms(broyden)= 0.61668E-01
  rms(prec ) = 0.11568E+00
  weight for this iteration     100.00

 Free energy of the ion-electron system (eV)
  ---------------------------------------------------
  alpha Z        PSCENC =       751.07414751
  Ewald energy   TEWEN  =    -12695.24878114
  -Hartree energ DENC   =     -8312.07341745
  -exchange      EXHF   =         0.00000000
  -V(xc)+E(xc)   XCENC  =      1119.26558483
  PAW double counting   =     17990.16176967   -18113.18249917
  entropy T*S    EENTRO =        -0.00023278
  eigenvalues    EBANDS =     -3252.51324602
  atomic energy  EATOM  =     22302.35321627
  Solvation  Ediel_sol  =         0.00000000
  ---------------------------------------------------
  free energy    TOTEN  =      -210.16345828 eV

  energy without entropy =     -210.16322550  energy(sigma->0) =     -210.16334189


--------------------------------------------------------------------------------------------------------




--------------------------------------- Iteration      1(   2)  ---------------------------------------


    POTLOK:  cpu time    0.2150: real time    1.0042
    SETDIJ:  cpu time    0.8379: real time    0.8364
     EDDAV:  cpu time    4.2913: real time    4.2877
       DOS:  cpu time    0.0010: real time    0.0009
    CHARGE:  cpu time    0.3819: real time    0.3796
    MIXING:  cpu time    0.0040: real time    0.0036
    --------------------------------------------
      LOOP:  cpu time    5.7311: real time    6.5125

 eigenvalue-minimisations  :  3328
 total energy-change (2. order) :-0.3155205E+00  (-0.2870584E-02)
 number of electron     240.0000002 magnetization      -0.0016937
 augmentation part       62.6459091 magnetization      -0.0019921

 Broyden mixing:
  rms(total) = 0.91730E+00    rms(broyden)= 0.91721E+00
  rms(prec ) = 0.17021E+01
  weight for this iteration     100.00

 eigenvalues of (default mixing * dielectric matrix)
  average eigenvalue GAMMA=   0.0629
  0.0629

 Free energy of the ion-electron system (eV)
  ---------------------------------------------------
  alpha Z        PSCENC =       751.07414751
  Ewald energy   TEWEN  =    -12695.24878114
  -Hartree energ DENC   =     -8310.82050441
  -exchange      EXHF   =         0.00000000
  -V(xc)+E(xc)   XCENC  =      1119.29258302
  PAW double counting   =     17987.38148356   -18110.55623378
  entropy T*S    EENTRO =        -0.00000000
  eigenvalues    EBANDS =     -3253.95488980
  atomic energy  EATOM  =     22302.35321627
  Solvation  Ediel_sol  =         0.00000000
  ---------------------------------------------------
  free energy    TOTEN  =      -210.47897876 eV

  energy without entropy =     -210.47897876  energy(sigma->0) =     -210.47897876


--------------------------------------------------------------------------------------------------------




--------------------------------------- Iteration      1(   3)  ---------------------------------------


    POTLOK:  cpu time    0.1400: real time    1.3206
    SETDIJ:  cpu time    0.8289: real time    0.8332
     EDDAV:  cpu time    4.3273: real time    4.3857
       DOS:  cpu time    0.0020: real time    0.0013
    CHARGE:  cpu time    0.3719: real time    0.3796
    MIXING:  cpu time    0.0020: real time    0.0021
    --------------------------------------------
      LOOP:  cpu time    5.6721: real time    6.9224

 eigenvalue-minimisations  :  3392
 total energy-change (2. order) : 0.3217353E+00  (-0.2517612E-02)
 number of electron     240.0000002 magnetization      -0.0189422
 augmentation part       61.9235519 magnetization      -0.0037530

 Broyden mixing:
  rms(total) = 0.32661E-01    rms(broyden)= 0.31161E-01
  rms(prec ) = 0.55729E-01
  weight for this iteration     100.00

 eigenvalues of (default mixing * dielectric matrix)
  average eigenvalue GAMMA=   0.0441
  0.0626  0.0255

 Free energy of the ion-electron system (eV)
  ---------------------------------------------------
  alpha Z        PSCENC =       751.07414751
  Ewald energy   TEWEN  =    -12695.24878114
  -Hartree energ DENC   =     -8311.99259199
  -exchange      EXHF   =         0.00000000
  -V(xc)+E(xc)   XCENC  =      1119.26674268
  PAW double counting   =     17990.03780594   -18113.06611293
  entropy T*S    EENTRO =        -0.00204158
  eigenvalues    EBANDS =     -3252.57962826
  atomic energy  EATOM  =     22302.35321627
  Solvation  Ediel_sol  =         0.00000000
  ---------------------------------------------------
  free energy    TOTEN  =      -210.15724350 eV

  energy without entropy =     -210.15520192  energy(sigma->0) =     -210.15622271


--------------------------------------------------------------------------------------------------------




--------------------------------------- Iteration      1(   4)  ---------------------------------------


    POTLOK:  cpu time    0.2410: real time    0.9682
    SETDIJ:  cpu time    0.8359: real time    0.8337
     EDDAV:  cpu time    3.8824: real time    3.8809
       DOS:  cpu time    0.0010: real time    0.0014
    CHARGE:  cpu time    0.3839: real time    0.3815
    MIXING:  cpu time    0.0020: real time    0.0025
    --------------------------------------------
      LOOP:  cpu time    5.3462: real time    6.0682

 eigenvalue-minimisations  :  2976
 total energy-change (2. order) :-0.1700412E-01  (-0.2179251E-03)
 number of electron     240.0000002 magnetization      -0.0027692
 augmentation part       62.2098659 magnetization       0.3196624

 Broyden mixing:
  rms(total) = 0.44694E+00    rms(broyden)= 0.44693E+00
  rms(prec ) = 0.70863E+00
  weight for this iteration     100.00

 eigenvalues of (default mixing * dielectric matrix)
  average eigenvalue GAMMA=   0.0421
  0.0621  0.0321  0.0321

 Free energy of the ion-electron system (eV)
  ---------------------------------------------------
  alpha Z        PSCENC =       751.07414751
  Ewald energy   TEWEN  =    -12695.24878114
  -Hartree energ DENC   =     -8311.84742588
  -exchange      EXHF   =         0.00000000
  -V(xc)+E(xc)   XCENC  =      1119.25962060
  PAW double counting   =     17989.84813466   -18112.88052097
  entropy T*S    EENTRO =        -0.00683074
  eigenvalues    EBANDS =     -3252.72580793
  atomic energy  EATOM  =     22302.35321627
  Solvation  Ediel_sol  =         0.00000000
  ---------------------------------------------------
  free energy    TOTEN  =      -210.17424762 eV

  energy without entropy =     -210.16741688  energy(sigma->0) =     -210.17083225


--------------------------------------------------------------------------------------------------------




--------------------------------------- Iteration      1(   5)  ---------------------------------------


    POTLOK:  cpu time    0.1520: real time    0.6648
    SETDIJ:  cpu time    0.8389: real time    0.8354
     EDDAV:  cpu time    4.4383: real time    4.4372
       DOS:  cpu time    0.0010: real time    0.0016
    CHARGE:  cpu time    0.3859: real time    0.3838
    MIXING:  cpu time    0.0030: real time    0.0026
    --------------------------------------------
      LOOP:  cpu time    5.8191: real time    6.3255

 eigenvalue-minimisations  :  3328
 total energy-change (2. order) : 0.1358172E-01  (-0.2810509E-04)
 number of electron     240.0000002 magnetization      -0.0066547
 augmentation part       61.9695699 magnetization       0.0556545

 Broyden mixing:
  rms(total) = 0.55108E-01    rms(broyden)= 0.54970E-01
  rms(prec ) = 0.72506E-01
  weight for this iteration     100.00

 eigenvalues of (default mixing * dielectric matrix)
  average eigenvalue GAMMA=   0.0757
  0.1020  0.1020  0.0615  0.0372

 Free energy of the ion-electron system (eV)
  ---------------------------------------------------
  alpha Z        PSCENC =       751.07414751
  Ewald energy   TEWEN  =    -12695.24878114
  -Hartree energ DENC   =     -8311.78256487
  -exchange      EXHF   =         0.00000000
  -V(xc)+E(xc)   XCENC  =      1119.25663051
  PAW double counting   =     17989.75214583   -18112.78581074
  entropy T*S    EENTRO =        -0.00459381
  eigenvalues    EBANDS =     -3252.77505544
  atomic energy  EATOM  =     22302.35321627
  Solvation  Ediel_sol  =         0.00000000
  ---------------------------------------------------
  free energy    TOTEN  =      -210.16066590 eV

  energy without entropy =     -210.15607208  energy(sigma->0) =     -210.15836899


--------------------------------------------------------------------------------------------------------




--------------------------------------- Iteration      1(   6)  ---------------------------------------


    POTLOK:  cpu time    0.1400: real time    1.0401
    SETDIJ:  cpu time    0.8379: real time    0.8353
     EDDAV:  cpu time    3.7264: real time    3.7248
       DOS:  cpu time    0.0020: real time    0.0015
    CHARGE:  cpu time    0.3849: real time    0.3829
    MIXING:  cpu time    0.0020: real time    0.0024
    --------------------------------------------
      LOOP:  cpu time    5.0932: real time    5.9871

 eigenvalue-minimisations  :  2752
 total energy-change (2. order) :-0.1979952E-02  (-0.2596207E-04)
 number of electron     240.0000002 magnetization       0.0002422
 augmentation part       62.0247142 magnetization       0.1815919

 Broyden mixing:
  rms(total) = 0.12110E+00    rms(broyden)= 0.12109E+00
  rms(prec ) = 0.20241E+00
  weight for this iteration     100.00

 eigenvalues of (default mixing * dielectric matrix)
  average eigenvalue GAMMA=   0.2121
  0.4519  0.4519  0.0612  0.0389  0.0565

 Free energy of the ion-electron system (eV)
  ---------------------------------------------------
  alpha Z        PSCENC =       751.07414751
  Ewald energy   TEWEN  =    -12695.24878114
  -Hartree energ DENC   =     -8311.79572652
  -exchange      EXHF   =         0.00000000
  -V(xc)+E(xc)   XCENC  =      1119.25948005
  PAW double counting   =     17989.72522287   -18112.75861566
  entropy T*S    EENTRO =        -0.00690699
  eigenvalues    EBANDS =     -3252.76468224
  atomic energy  EATOM  =     22302.35321627
  Solvation  Ediel_sol  =         0.00000000
  ---------------------------------------------------
  free energy    TOTEN  =      -210.16264585 eV

  energy without entropy =     -210.15573886  energy(sigma->0) =     -210.15919235


--------------------------------------------------------------------------------------------------------




--------------------------------------- Iteration      1(   7)  ---------------------------------------


    POTLOK:  cpu time    0.8999: real time    1.5386
    SETDIJ:  cpu time    0.8379: real time    0.8378
     EDDAV:  cpu time    3.5435: real time    3.5411
       DOS:  cpu time    0.0010: real time    0.0015
    CHARGE:  cpu time    0.3839: real time    0.3816
    MIXING:  cpu time    0.0020: real time    0.0026
    --------------------------------------------
      LOOP:  cpu time    5.6681: real time    6.3032

 eigenvalue-minimisations  :  2592
 total energy-change (2. order) : 0.7688932E-04  (-0.7763588E-05)
 number of electron     240.0000002 magnetization       0.0009361
 augmentation part       62.0356738 magnetization       0.0012021

 Broyden mixing:
  rms(total) = 0.11788E+00    rms(broyden)= 0.11787E+00
  rms(prec ) = 0.21953E+00
  weight for this iteration     100.00

 eigenvalues of (default mixing * dielectric matrix)
  average eigenvalue GAMMA=   0.2553
  0.5499  0.5499  0.2788  0.0612  0.0389  0.0531

 Free energy of the ion-electron system (eV)
  ---------------------------------------------------
  alpha Z        PSCENC =       751.07414751
  Ewald energy   TEWEN  =    -12695.24878114
  -Hartree energ DENC   =     -8311.78474681
  -exchange      EXHF   =         0.00000000
  -V(xc)+E(xc)   XCENC  =      1119.25928820
  PAW double counting   =     17989.70189895   -18112.73519692
  entropy T*S    EENTRO =        -0.00760197
  eigenvalues    EBANDS =     -3252.77479306
  atomic energy  EATOM  =     22302.35321627
  Solvation  Ediel_sol  =         0.00000000
  ---------------------------------------------------
  free energy    TOTEN  =      -210.16256896 eV

  energy without entropy =     -210.15496699  energy(sigma->0) =     -210.15876797


--------------------------------------------------------------------------------------------------------




--------------------------------------- Iteration      1(   8)  ---------------------------------------


    POTLOK:  cpu time    2.3466: real time    3.1867
    SETDIJ:  cpu time    0.8469: real time    0.8450
     EDDAV:  cpu time    4.2074: real time    4.2063
       DOS:  cpu time    0.0010: real time    0.0013
    CHARGE:  cpu time    0.3849: real time    0.3830
    MIXING:  cpu time    0.0040: real time    0.0029
    --------------------------------------------
      LOOP:  cpu time    7.7908: real time    8.6251

 eigenvalue-minimisations  :  3296
 total energy-change (2. order) : 0.8127210E-03  (-0.3043029E-05)
 number of electron     240.0000002 magnetization      -0.0002085
 augmentation part       61.9790247 magnetization      -0.0206329

 Broyden mixing:
  rms(total) = 0.44239E-01    rms(broyden)= 0.44227E-01
  rms(prec ) = 0.79381E-01
  weight for this iteration     100.00

 eigenvalues of (default mixing * dielectric matrix)
  average eigenvalue GAMMA=   0.3568
  0.7638  0.7638  0.4086  0.4086  0.0612  0.0390  0.0526

 Free energy of the ion-electron system (eV)
  ---------------------------------------------------
  alpha Z        PSCENC =       751.07414751
  Ewald energy   TEWEN  =    -12695.24878114
  -Hartree energ DENC   =     -8311.84538584
  -exchange      EXHF   =         0.00000000
  -V(xc)+E(xc)   XCENC  =      1119.26159710
  PAW double counting   =     17989.80416835   -18112.83807257
  entropy T*S    EENTRO =        -0.00522894
  eigenvalues    EBANDS =     -3252.71741698
  atomic energy  EATOM  =     22302.35321627
  Solvation  Ediel_sol  =         0.00000000
  ---------------------------------------------------
  free energy    TOTEN  =      -210.16175624 eV

  energy without entropy =     -210.15652729  energy(sigma->0) =     -210.15914177


--------------------------------------------------------------------------------------------------------




--------------------------------------- Iteration      1(   9)  ---------------------------------------


    POTLOK:  cpu time    0.1440: real time   75.3591
    SETDIJ:  cpu time    0.8439: real time    0.8507
     EDDAV:  cpu time    4.0874: real time    4.1465
       DOS:  cpu time    0.0010: real time    0.0013
    CHARGE:  cpu time    0.3719: real time    0.3795
    MIXING:  cpu time    0.0020: real time    0.0027
    --------------------------------------------
      LOOP:  cpu time    5.4502: real time   80.7398

 eigenvalue-minimisations  :  3200
 total energy-change (2. order) : 0.2741022E-04  (-0.2674026E-05)
 number of electron     240.0000002 magnetization      -0.0000763
 augmentation part       61.9511207 magnetization       0.0016598

 Broyden mixing:
  rms(total) = 0.54960E-02    rms(broyden)= 0.54523E-02
  rms(prec ) = 0.99721E-02
  weight for this iteration     100.00

 eigenvalues of (default mixing * dielectric matrix)
  average eigenvalue GAMMA=   0.4245
  0.8946  0.8946  0.5785  0.4377  0.4377  0.0612  0.0389  0.0526

 Free energy of the ion-electron system (eV)
  ---------------------------------------------------
  alpha Z        PSCENC =       751.07414751
  Ewald energy   TEWEN  =    -12695.24878114
  -Hartree energ DENC   =     -8311.92130527
  -exchange      EXHF   =         0.00000000
  -V(xc)+E(xc)   XCENC  =      1119.26467108
  PAW double counting   =     17989.94192650   -18112.97360914
  entropy T*S    EENTRO =        -0.00379099
  eigenvalues    EBANDS =     -3252.64820365
  atomic energy  EATOM  =     22302.35321627
  Solvation  Ediel_sol  =         0.00000000
  ---------------------------------------------------
  free energy    TOTEN  =      -210.16172883 eV

  energy without entropy =     -210.15793783  energy(sigma->0) =     -210.15983333


--------------------------------------------------------------------------------------------------------




--------------------------------------- Iteration      1(  10)  ---------------------------------------


    POTLOK:  cpu time    4.9812: real time    5.4757
    SETDIJ:  cpu time    0.8369: real time    0.8349
     EDDAV:  cpu time    3.2245: real time    3.2288
       DOS:  cpu time    0.0020: real time    0.0016
    CHARGE:  cpu time    0.3829: real time    0.3814
    MIXING:  cpu time    0.0040: real time    0.0031
    --------------------------------------------
      LOOP:  cpu time    9.4316: real time    9.9255

 eigenvalue-minimisations  :  2304
 total energy-change (2. order) :-0.3997388E-04  (-0.5255778E-06)
 number of electron     240.0000002 magnetization       0.0000056
 augmentation part       61.9495135 magnetization       0.0007001

 Broyden mixing:
  rms(total) = 0.32305E-02    rms(broyden)= 0.32262E-02
  rms(prec ) = 0.58843E-02
  weight for this iteration     100.00

 eigenvalues of (default mixing * dielectric matrix)
  average eigenvalue GAMMA=   0.5204
  1.2004  1.2004  0.5431  0.5431  0.5220  0.5220  0.0612  0.0389  0.0526

 Free energy of the ion-electron system (eV)
  ---------------------------------------------------
  alpha Z        PSCENC =       751.07414751
  Ewald energy   TEWEN  =    -12695.24878114
  -Hartree energ DENC   =     -8311.93551336
  -exchange      EXHF   =         0.00000000
  -V(xc)+E(xc)   XCENC  =      1119.26529066
  PAW double counting   =     17989.97428260   -18113.00382206
  entropy T*S    EENTRO =        -0.00369804
  eigenvalues    EBANDS =     -3252.63689124
  atomic energy  EATOM  =     22302.35321627
  Solvation  Ediel_sol  =         0.00000000
  ---------------------------------------------------
  free energy    TOTEN  =      -210.16176880 eV

  energy without entropy =     -210.15807077  energy(sigma->0) =     -210.15991978


--------------------------------------------------------------------------------------------------------




--------------------------------------- Iteration      1(  11)  ---------------------------------------


    POTLOK:  cpu time    0.3080: real time    1.6066
    SETDIJ:  cpu time    0.8419: real time    0.8396
     EDDAV:  cpu time    2.4666: real time    2.4661
       DOS:  cpu time    0.0010: real time    0.0014
    CHARGE:  cpu time    0.3869: real time    0.3839
    MIXING:  cpu time    0.0040: real time    0.0034
    --------------------------------------------
      LOOP:  cpu time    4.0084: real time    5.3010

 eigenvalue-minimisations  :  1504
 total energy-change (2. order) :-0.2653687E-05  (-0.5455563E-07)
 number of electron     240.0000002 magnetization      -0.0000079
 augmentation part       61.9486336 magnetization      -0.0002224

 Broyden mixing:
  rms(total) = 0.20883E-02    rms(broyden)= 0.20878E-02
  rms(prec ) = 0.38457E-02
  weight for this iteration     100.00

 eigenvalues of (default mixing * dielectric matrix)
  average eigenvalue GAMMA=   0.6479
  1.5827  1.5827  0.8448  0.6810  0.6810  0.4770  0.4770  0.0612  0.0389  0.0526

 Free energy of the ion-electron system (eV)
  ---------------------------------------------------
  alpha Z        PSCENC =       751.07414751
  Ewald energy   TEWEN  =    -12695.24878114
  -Hartree energ DENC   =     -8311.94727127
  -exchange      EXHF   =         0.00000000
  -V(xc)+E(xc)   XCENC  =      1119.26577031
  PAW double counting   =     17990.00138318   -18113.02940505
  entropy T*S    EENTRO =        -0.00365181
  eigenvalues    EBANDS =     -3252.62717945
  atomic energy  EATOM  =     22302.35321627
  Solvation  Ediel_sol  =         0.00000000
  ---------------------------------------------------
  free energy    TOTEN  =      -210.16177145 eV

  energy without entropy =     -210.15811964  energy(sigma->0) =     -210.15994555


--------------------------------------------------------------------------------------------------------




--------------------------------------- Iteration      1(  12)  ---------------------------------------


    POTLOK:  cpu time    0.3439: real time    1.0955
    SETDIJ:  cpu time    0.8559: real time    0.8536
     EDDAV:  cpu time    2.2957: real time    2.2953
       DOS:  cpu time    0.0010: real time    0.0013
    --------------------------------------------
      LOOP:  cpu time    3.4965: real time    4.2457

 eigenvalue-minimisations  :  1280
 total energy-change (2. order) : 0.3695459E-07  (-0.1963529E-07)
 number of electron     240.0000002 magnetization      -0.0000079
 augmentation part       61.9486336 magnetization      -0.0002224

 Free energy of the ion-electron system (eV)
  ---------------------------------------------------
  alpha Z        PSCENC =       751.07414751
  Ewald energy   TEWEN  =    -12695.24878114
  -Hartree energ DENC   =     -8311.95645353
  -exchange      EXHF   =         0.00000000
  -V(xc)+E(xc)   XCENC  =      1119.26620502
  PAW double counting   =     17990.02018772   -18113.04717306
  entropy T*S    EENTRO =        -0.00360026
  eigenvalues    EBANDS =     -3252.61951995
  atomic energy  EATOM  =     22302.35321627
  Solvation  Ediel_sol  =         0.00000000
  ---------------------------------------------------
  free energy    TOTEN  =      -210.16177142 eV

  energy without entropy =     -210.15817116  energy(sigma->0) =     -210.15997129


--------------------------------------------------------------------------------------------------------




 average (electrostatic) potential at core
  the test charge radii are     1.0397  0.7215  0.7167
  (the norm of the test charge is              1.0000)
       1 -60.1503       2 -60.1503       3 -60.1503       4 -60.1503       5 -57.6425
       6 -57.6425       7 -57.6425       8 -57.6425       9 -73.0028      10 -73.0028
      11 -75.3807      12 -75.3807      13 -72.5046      14 -72.4934      15 -72.4934
      16 -72.5046      17 -79.5892      18 -79.5892      19 -79.5892      20 -79.5892
      21 -79.5892      22 -79.5892      23 -79.5892      24 -79.5892      25 -80.4651
      26 -80.4651      27 -80.4594      28 -80.4594      29 -77.4800      30 -77.4800
      31 -80.0085      32 -80.0085
 
 
 
 E-fermi :   0.9309     XC(G=0):  -8.9356     alpha+bet : -7.5792


 spin component 1

 k-point     1 :       0.2500    0.2500    0.2500
  band No.  band energies     occupation 
      1     -36.1789      1.00000
      2     -36.1758      1.00000
      3     -36.1025      1.00000
      4     -36.0997      1.00000
      5     -36.0864      1.00000
      6     -36.0851      1.00000
      7     -36.0830      1.00000
      8     -36.0816      1.00000
      9     -36.0361      1.00000
     10     -36.0346      1.00000
     11     -35.9528      1.00000
     12     -35.9515      1.00000
     13     -33.7730      1.00000
     14     -33.7707      1.00000
     15     -33.7705      1.00000
     16     -33.7683      1.00000
     17     -33.5413      1.00000
     18     -33.5388      1.00000
     19     -33.4833      1.00000
     20     -33.4809      1.00000
     21     -33.3301      1.00000
     22     -33.3277      1.00000
     23     -33.2735      1.00000
     24     -33.2713      1.00000
     25     -24.3159      1.00000
     26     -24.2816      1.00000
     27     -23.9480      1.00000
     28     -23.9253      1.00000
     29     -23.7130      1.00000
     30     -23.6963      1.00000
     31     -23.3588      1.00000
     32     -23.3546      1.00000
     33     -23.3318      1.00000
     34     -23.3310      1.00000
     35     -22.9937      1.00000
     36     -22.9870      1.00000
     37     -22.9838      1.00000
     38     -22.9775      1.00000
     39     -21.1432      1.00000
     40     -21.1303      1.00000
     41     -17.8625      1.00000
     42     -17.8569      1.00000
     43     -15.6432      1.00000
     44     -15.4907      1.00000
     45     -15.3413      1.00000
     46     -15.2086      1.00000
     47     -14.7412      1.00000
     48     -14.7221      1.00000
     49      -7.8429      1.00000
     50      -7.8354      1.00000
     51      -7.2254      1.00000
     52      -7.2211      1.00000
     53      -6.8222      1.00000
     54      -6.8141      1.00000
     55      -6.8063      1.00000
     56      -6.8014      1.00000
     57      -6.7898      1.00000
     58      -6.6707      1.00000
     59      -6.4071      1.00000
     60      -6.2077      1.00000
     61      -6.1578      1.00000
     62      -6.0824      1.00000
     63      -6.0118      1.00000
     64      -5.8094      1.00000
     65      -5.7756      1.00000
     66      -5.6829      1.00000
     67      -5.6639      1.00000
     68      -5.5576      1.00000
     69      -5.5190      1.00000
     70      -5.4776      1.00000
     71      -5.2696      1.00000
     72      -5.2666      1.00000
     73      -4.9608      1.00000
     74      -4.8980      1.00000
     75      -4.8764      1.00000
     76      -4.7986      1.00000
     77      -4.7012      1.00000
     78      -4.6168      1.00000
     79      -4.6141      1.00000
     80      -4.5540      1.00000
     81      -4.5286      1.00000
     82      -4.5143      1.00000
     83      -4.4619      1.00000
     84      -4.4526      1.00000
     85      -4.4143      1.00000
     86      -4.3633      1.00000
     87      -4.2349      1.00000
     88      -4.2316      1.00000
     89      -4.1159      1.00000
     90      -4.1067      1.00000
     91      -4.0496      1.00000
     92      -4.0330      1.00000
     93      -4.0012      1.00000
     94      -3.9976      1.00000
     95      -3.4208      1.00000
     96      -3.3812      1.00000
     97      -3.2731      1.00000
     98      -2.9811      1.00000
     99      -2.9475      1.00000
    100      -2.8462      1.00000
    101      -2.8426      1.00000
    102      -2.6644      1.00000
    103      -2.5233      1.00000
    104      -2.4988      1.00000
    105      -2.4823      1.00000
    106      -2.3920      1.00000
    107      -1.9040      1.00000
    108      -1.3252      1.00000
    109      -1.2725      1.00000
    110      -1.2001      1.00000
    111      -1.1799      1.00000
    112      -0.8822      1.00000
    113      -0.8690      1.00000
    114      -0.7819      1.00000
    115      -0.4392      1.00000
    116      -0.3843      1.00000
    117      -0.3220      1.00000
    118      -0.0345      1.00000
    119       0.3958      1.00000
    120       0.9202      0.93459
    121       0.9416      0.06520
    122       1.4493      0.00000
    123       1.4578      0.00000
    124       1.4726      0.00000
    125       1.4741      0.00000
    126       1.4794      0.00000
    127       1.9562      0.00000
    128       1.9697      0.00000
    129       2.2527      0.00000
    130       2.3456      0.00000
    131       2.5568      0.00000
    132       2.5854      0.00000
    133       2.5915      0.00000
    134       2.6386      0.00000
    135       3.0871      0.00000
    136       3.1378      0.00000
    137       3.3480      0.00000
    138       3.3671      0.00000
    139       3.4779      0.00000
    140       3.5110      0.00000
    141       3.5562      0.00000
    142       3.7282      0.00000
    143       3.8100      0.00000
    144       4.2461      0.00000
    145       4.4373      0.00000
    146       4.4686      0.00000
    147       4.5694      0.00000
    148       4.7378      0.00000
    149       4.7794      0.00000
    150       4.7999      0.00000
    151       4.8169      0.00000
    152       5.0126      0.00000
    153       5.1772      0.00000
    154       5.2023      0.00000
    155       5.3371      0.00000
    156       5.5173      0.00000
    157       5.7102      0.00000
    158       6.3880      0.00000
    159       6.7198      0.00000
    160       6.8792      0.00000

 k-point     2 :      -0.2500    0.2500    0.2500
  band No.  band energies     occupation 
      1     -36.1789      1.00000
      2     -36.1758      1.00000
      3     -36.1025      1.00000
      4     -36.0997      1.00000
      5     -36.0864      1.00000
      6     -36.0851      1.00000
      7     -36.0830      1.00000
      8     -36.0816      1.00000
      9     -36.0361      1.00000
     10     -36.0346      1.00000
     11     -35.9528      1.00000
     12     -35.9515      1.00000
     13     -33.7730      1.00000
     14     -33.7707      1.00000
     15     -33.7705      1.00000
     16     -33.7683      1.00000
     17     -33.5413      1.00000
     18     -33.5388      1.00000
     19     -33.4833      1.00000
     20     -33.4809      1.00000
     21     -33.3301      1.00000
     22     -33.3277      1.00000
     23     -33.2735      1.00000
     24     -33.2713      1.00000
     25     -24.3159      1.00000
     26     -24.2816      1.00000
     27     -23.9480      1.00000
     28     -23.9253      1.00000
     29     -23.7130      1.00000
     30     -23.6963      1.00000
     31     -23.3588      1.00000
     32     -23.3546      1.00000
     33     -23.3318      1.00000
     34     -23.3310      1.00000
     35     -22.9937      1.00000
     36     -22.9870      1.00000
     37     -22.9838      1.00000
     38     -22.9775      1.00000
     39     -21.1432      1.00000
     40     -21.1303      1.00000
     41     -17.8625      1.00000
     42     -17.8569      1.00000
     43     -15.6432      1.00000
     44     -15.4907      1.00000
     45     -15.3413      1.00000
     46     -15.2086      1.00000
     47     -14.7412      1.00000
     48     -14.7221      1.00000
     49      -7.8429      1.00000
     50      -7.8354      1.00000
     51      -7.2254      1.00000
     52      -7.2211      1.00000
     53      -6.8222      1.00000
     54      -6.8141      1.00000
     55      -6.8063      1.00000
     56      -6.8014      1.00000
     57      -6.7898      1.00000
     58      -6.6707      1.00000
     59      -6.4071      1.00000
     60      -6.2077      1.00000
     61      -6.1578      1.00000
     62      -6.0824      1.00000
     63      -6.0118      1.00000
     64      -5.8094      1.00000
     65      -5.7756      1.00000
     66      -5.6829      1.00000
     67      -5.6639      1.00000
     68      -5.5576      1.00000
     69      -5.5190      1.00000
     70      -5.4776      1.00000
     71      -5.2696      1.00000
     72      -5.2666      1.00000
     73      -4.9608      1.00000
     74      -4.8980      1.00000
     75      -4.8764      1.00000
     76      -4.7986      1.00000
     77      -4.7012      1.00000
     78      -4.6168      1.00000
     79      -4.6141      1.00000
     80      -4.5540      1.00000
     81      -4.5286      1.00000
     82      -4.5143      1.00000
     83      -4.4619      1.00000
     84      -4.4526      1.00000
     85      -4.4143      1.00000
     86      -4.3633      1.00000
     87      -4.2349      1.00000
     88      -4.2316      1.00000
     89      -4.1159      1.00000
     90      -4.1067      1.00000
     91      -4.0496      1.00000
     92      -4.0330      1.00000
     93      -4.0012      1.00000
     94      -3.9976      1.00000
     95      -3.4208      1.00000
     96      -3.3812      1.00000
     97      -3.2731      1.00000
     98      -2.9811      1.00000
     99      -2.9475      1.00000
    100      -2.8462      1.00000
    101      -2.8426      1.00000
    102      -2.6644      1.00000
    103      -2.5233      1.00000
    104      -2.4988      1.00000
    105      -2.4823      1.00000
    106      -2.3920      1.00000
    107      -1.9040      1.00000
    108      -1.3252      1.00000
    109      -1.2725      1.00000
    110      -1.2001      1.00000
    111      -1.1799      1.00000
    112      -0.8822      1.00000
    113      -0.8690      1.00000
    114      -0.7819      1.00000
    115      -0.4392      1.00000
    116      -0.3843      1.00000
    117      -0.3220      1.00000
    118      -0.0345      1.00000
    119       0.3958      1.00000
    120       0.9202      0.93459
    121       0.9416      0.06520
    122       1.4493      0.00000
    123       1.4578      0.00000
    124       1.4726      0.00000
    125       1.4741      0.00000
    126       1.4794      0.00000
    127       1.9562      0.00000
    128       1.9697      0.00000
    129       2.2527      0.00000
    130       2.3456      0.00000
    131       2.5568      0.00000
    132       2.5854      0.00000
    133       2.5915      0.00000
    134       2.6386      0.00000
    135       3.0871      0.00000
    136       3.1378      0.00000
    137       3.3480      0.00000
    138       3.3671      0.00000
    139       3.4779      0.00000
    140       3.5110      0.00000
    141       3.5562      0.00000
    142       3.7282      0.00000
    143       3.8100      0.00000
    144       4.2461      0.00000
    145       4.4373      0.00000
    146       4.4686      0.00000
    147       4.5694      0.00000
    148       4.7378      0.00000
    149       4.7794      0.00000
    150       4.7999      0.00000
    151       4.8169      0.00000
    152       5.0126      0.00000
    153       5.1772      0.00000
    154       5.2023      0.00000
    155       5.3371      0.00000
    156       5.5173      0.00000
    157       5.7102      0.00000
    158       6.3880      0.00000
    159       6.7198      0.00000
    160       6.8792      0.00000

 k-point     3 :       0.2500   -0.2500    0.2500
  band No.  band energies     occupation 
      1     -36.1789      1.00000
      2     -36.1758      1.00000
      3     -36.1025      1.00000
      4     -36.0997      1.00000
      5     -36.0864      1.00000
      6     -36.0851      1.00000
      7     -36.0830      1.00000
      8     -36.0816      1.00000
      9     -36.0361      1.00000
     10     -36.0346      1.00000
     11     -35.9528      1.00000
     12     -35.9515      1.00000
     13     -33.7730      1.00000
     14     -33.7707      1.00000
     15     -33.7705      1.00000
     16     -33.7683      1.00000
     17     -33.5413      1.00000
     18     -33.5388      1.00000
     19     -33.4833      1.00000
     20     -33.4809      1.00000
     21     -33.3301      1.00000
     22     -33.3277      1.00000
     23     -33.2735      1.00000
     24     -33.2713      1.00000
     25     -24.3159      1.00000
     26     -24.2816      1.00000
     27     -23.9480      1.00000
     28     -23.9253      1.00000
     29     -23.7130      1.00000
     30     -23.6963      1.00000
     31     -23.3588      1.00000
     32     -23.3546      1.00000
     33     -23.3318      1.00000
     34     -23.3310      1.00000
     35     -22.9937      1.00000
     36     -22.9870      1.00000
     37     -22.9838      1.00000
     38     -22.9775      1.00000
     39     -21.1432      1.00000
     40     -21.1303      1.00000
     41     -17.8625      1.00000
     42     -17.8569      1.00000
     43     -15.6432      1.00000
     44     -15.4907      1.00000
     45     -15.3413      1.00000
     46     -15.2086      1.00000
     47     -14.7412      1.00000
     48     -14.7221      1.00000
     49      -7.8429      1.00000
     50      -7.8354      1.00000
     51      -7.2254      1.00000
     52      -7.2211      1.00000
     53      -6.8222      1.00000
     54      -6.8141      1.00000
     55      -6.8063      1.00000
     56      -6.8014      1.00000
     57      -6.7898      1.00000
     58      -6.6707      1.00000
     59      -6.4071      1.00000
     60      -6.2077      1.00000
     61      -6.1578      1.00000
     62      -6.0824      1.00000
     63      -6.0118      1.00000
     64      -5.8094      1.00000
     65      -5.7756      1.00000
     66      -5.6829      1.00000
     67      -5.6639      1.00000
     68      -5.5576      1.00000
     69      -5.5190      1.00000
     70      -5.4776      1.00000
     71      -5.2696      1.00000
     72      -5.2666      1.00000
     73      -4.9608      1.00000
     74      -4.8980      1.00000
     75      -4.8764      1.00000
     76      -4.7986      1.00000
     77      -4.7012      1.00000
     78      -4.6168      1.00000
     79      -4.6141      1.00000
     80      -4.5540      1.00000
     81      -4.5286      1.00000
     82      -4.5143      1.00000
     83      -4.4619      1.00000
     84      -4.4526      1.00000
     85      -4.4143      1.00000
     86      -4.3633      1.00000
     87      -4.2349      1.00000
     88      -4.2316      1.00000
     89      -4.1159      1.00000
     90      -4.1067      1.00000
     91      -4.0496      1.00000
     92      -4.0330      1.00000
     93      -4.0012      1.00000
     94      -3.9976      1.00000
     95      -3.4208      1.00000
     96      -3.3812      1.00000
     97      -3.2731      1.00000
     98      -2.9811      1.00000
     99      -2.9475      1.00000
    100      -2.8462      1.00000
    101      -2.8426      1.00000
    102      -2.6644      1.00000
    103      -2.5233      1.00000
    104      -2.4988      1.00000
    105      -2.4823      1.00000
    106      -2.3920      1.00000
    107      -1.9040      1.00000
    108      -1.3252      1.00000
    109      -1.2725      1.00000
    110      -1.2001      1.00000
    111      -1.1799      1.00000
    112      -0.8822      1.00000
    113      -0.8690      1.00000
    114      -0.7819      1.00000
    115      -0.4392      1.00000
    116      -0.3843      1.00000
    117      -0.3220      1.00000
    118      -0.0345      1.00000
    119       0.3958      1.00000
    120       0.9202      0.93459
    121       0.9416      0.06520
    122       1.4493      0.00000
    123       1.4578      0.00000
    124       1.4726      0.00000
    125       1.4741      0.00000
    126       1.4794      0.00000
    127       1.9562      0.00000
    128       1.9697      0.00000
    129       2.2527      0.00000
    130       2.3456      0.00000
    131       2.5568      0.00000
    132       2.5854      0.00000
    133       2.5915      0.00000
    134       2.6386      0.00000
    135       3.0871      0.00000
    136       3.1378      0.00000
    137       3.3480      0.00000
    138       3.3671      0.00000
    139       3.4779      0.00000
    140       3.5110      0.00000
    141       3.5562      0.00000
    142       3.7282      0.00000
    143       3.8100      0.00000
    144       4.2461      0.00000
    145       4.4373      0.00000
    146       4.4686      0.00000
    147       4.5694      0.00000
    148       4.7378      0.00000
    149       4.7794      0.00000
    150       4.7999      0.00000
    151       4.8169      0.00000
    152       5.0126      0.00000
    153       5.1772      0.00000
    154       5.2023      0.00000
    155       5.3371      0.00000
    156       5.5173      0.00000
    157       5.7102      0.00000
    158       6.3880      0.00000
    159       6.7198      0.00000
    160       6.8792      0.00000

 k-point     4 :      -0.2500   -0.2500    0.2500
  band No.  band energies     occupation 
      1     -36.1789      1.00000
      2     -36.1758      1.00000
      3     -36.1025      1.00000
      4     -36.0997      1.00000
      5     -36.0864      1.00000
      6     -36.0851      1.00000
      7     -36.0830      1.00000
      8     -36.0816      1.00000
      9     -36.0361      1.00000
     10     -36.0346      1.00000
     11     -35.9528      1.00000
     12     -35.9515      1.00000
     13     -33.7730      1.00000
     14     -33.7707      1.00000
     15     -33.7705      1.00000
     16     -33.7683      1.00000
     17     -33.5413      1.00000
     18     -33.5388      1.00000
     19     -33.4833      1.00000
     20     -33.4809      1.00000
     21     -33.3301      1.00000
     22     -33.3277      1.00000
     23     -33.2735      1.00000
     24     -33.2713      1.00000
     25     -24.3159      1.00000
     26     -24.2816      1.00000
     27     -23.9480      1.00000
     28     -23.9253      1.00000
     29     -23.7130      1.00000
     30     -23.6963      1.00000
     31     -23.3588      1.00000
     32     -23.3546      1.00000
     33     -23.3318      1.00000
     34     -23.3310      1.00000
     35     -22.9937      1.00000
     36     -22.9870      1.00000
     37     -22.9838      1.00000
     38     -22.9775      1.00000
     39     -21.1432      1.00000
     40     -21.1303      1.00000
     41     -17.8625      1.00000
     42     -17.8569      1.00000
     43     -15.6432      1.00000
     44     -15.4907      1.00000
     45     -15.3413      1.00000
     46     -15.2086      1.00000
     47     -14.7412      1.00000
     48     -14.7221      1.00000
     49      -7.8429      1.00000
     50      -7.8354      1.00000
     51      -7.2254      1.00000
     52      -7.2211      1.00000
     53      -6.8222      1.00000
     54      -6.8141      1.00000
     55      -6.8063      1.00000
     56      -6.8014      1.00000
     57      -6.7898      1.00000
     58      -6.6707      1.00000
     59      -6.4071      1.00000
     60      -6.2077      1.00000
     61      -6.1578      1.00000
     62      -6.0824      1.00000
     63      -6.0118      1.00000
     64      -5.8094      1.00000
     65      -5.7756      1.00000
     66      -5.6829      1.00000
     67      -5.6639      1.00000
     68      -5.5576      1.00000
     69      -5.5190      1.00000
     70      -5.4776      1.00000
     71      -5.2696      1.00000
     72      -5.2666      1.00000
     73      -4.9608      1.00000
     74      -4.8980      1.00000
     75      -4.8764      1.00000
     76      -4.7986      1.00000
     77      -4.7012      1.00000
     78      -4.6168      1.00000
     79      -4.6141      1.00000
     80      -4.5540      1.00000
     81      -4.5286      1.00000
     82      -4.5143      1.00000
     83      -4.4619      1.00000
     84      -4.4526      1.00000
     85      -4.4143      1.00000
     86      -4.3633      1.00000
     87      -4.2349      1.00000
     88      -4.2316      1.00000
     89      -4.1159      1.00000
     90      -4.1067      1.00000
     91      -4.0496      1.00000
     92      -4.0330      1.00000
     93      -4.0012      1.00000
     94      -3.9976      1.00000
     95      -3.4208      1.00000
     96      -3.3812      1.00000
     97      -3.2731      1.00000
     98      -2.9811      1.00000
     99      -2.9475      1.00000
    100      -2.8462      1.00000
    101      -2.8426      1.00000
    102      -2.6644      1.00000
    103      -2.5233      1.00000
    104      -2.4988      1.00000
    105      -2.4823      1.00000
    106      -2.3920      1.00000
    107      -1.9040      1.00000
    108      -1.3252      1.00000
    109      -1.2725      1.00000
    110      -1.2001      1.00000
    111      -1.1799      1.00000
    112      -0.8822      1.00000
    113      -0.8690      1.00000
    114      -0.7819      1.00000
    115      -0.4392      1.00000
    116      -0.3843      1.00000
    117      -0.3220      1.00000
    118      -0.0345      1.00000
    119       0.3958      1.00000
    120       0.9202      0.93459
    121       0.9416      0.06520
    122       1.4493      0.00000
    123       1.4578      0.00000
    124       1.4726      0.00000
    125       1.4741      0.00000
    126       1.4794      0.00000
    127       1.9562      0.00000
    128       1.9697      0.00000
    129       2.2527      0.00000
    130       2.3456      0.00000
    131       2.5568      0.00000
    132       2.5854      0.00000
    133       2.5915      0.00000
    134       2.6386      0.00000
    135       3.0871      0.00000
    136       3.1378      0.00000
    137       3.3480      0.00000
    138       3.3671      0.00000
    139       3.4779      0.00000
    140       3.5110      0.00000
    141       3.5562      0.00000
    142       3.7282      0.00000
    143       3.8100      0.00000
    144       4.2461      0.00000
    145       4.4373      0.00000
    146       4.4686      0.00000
    147       4.5694      0.00000
    148       4.7378      0.00000
    149       4.7794      0.00000
    150       4.7999      0.00000
    151       4.8169      0.00000
    152       5.0126      0.00000
    153       5.1772      0.00000
    154       5.2023      0.00000
    155       5.3371      0.00000
    156       5.5173      0.00000
    157       5.7102      0.00000
    158       6.3880      0.00000
    159       6.7198      0.00000
    160       6.8792      0.00000

 spin component 2

 k-point     1 :       0.2500    0.2500    0.2500
  band No.  band energies     occupation 
      1     -36.1789      1.00000
      2     -36.1758      1.00000
      3     -36.1025      1.00000
      4     -36.0997      1.00000
      5     -36.0864      1.00000
      6     -36.0851      1.00000
      7     -36.0830      1.00000
      8     -36.0816      1.00000
      9     -36.0361      1.00000
     10     -36.0346      1.00000
     11     -35.9528      1.00000
     12     -35.9515      1.00000
     13     -33.7730      1.00000
     14     -33.7707      1.00000
     15     -33.7705      1.00000
     16     -33.7683      1.00000
     17     -33.5413      1.00000
     18     -33.5388      1.00000
     19     -33.4833      1.00000
     20     -33.4809      1.00000
     21     -33.3301      1.00000
     22     -33.3277      1.00000
     23     -33.2735      1.00000
     24     -33.2713      1.00000
     25     -24.3159      1.00000
     26     -24.2816      1.00000
     27     -23.9480      1.00000
     28     -23.9253      1.00000
     29     -23.7130      1.00000
     30     -23.6963      1.00000
     31     -23.3588      1.00000
     32     -23.3546      1.00000
     33     -23.3318      1.00000
     34     -23.3310      1.00000
     35     -22.9937      1.00000
     36     -22.9870      1.00000
     37     -22.9838      1.00000
     38     -22.9775      1.00000
     39     -21.1432      1.00000
     40     -21.1303      1.00000
     41     -17.8625      1.00000
     42     -17.8569      1.00000
     43     -15.6432      1.00000
     44     -15.4907      1.00000
     45     -15.3413      1.00000
     46     -15.2086      1.00000
     47     -14.7413      1.00000
     48     -14.7221      1.00000
     49      -7.8429      1.00000
     50      -7.8354      1.00000
     51      -7.2254      1.00000
     52      -7.2211      1.00000
     53      -6.8222      1.00000
     54      -6.8141      1.00000
     55      -6.8063      1.00000
     56      -6.8014      1.00000
     57      -6.7898      1.00000
     58      -6.6707      1.00000
     59      -6.4071      1.00000
     60      -6.2077      1.00000
     61      -6.1578      1.00000
     62      -6.0824      1.00000
     63      -6.0118      1.00000
     64      -5.8094      1.00000
     65      -5.7756      1.00000
     66      -5.6829      1.00000
     67      -5.6639      1.00000
     68      -5.5576      1.00000
     69      -5.5190      1.00000
     70      -5.4776      1.00000
     71      -5.2696      1.00000
     72      -5.2666      1.00000
     73      -4.9608      1.00000
     74      -4.8980      1.00000
     75      -4.8764      1.00000
     76      -4.7986      1.00000
     77      -4.7012      1.00000
     78      -4.6168      1.00000
     79      -4.6141      1.00000
     80      -4.5540      1.00000
     81      -4.5286      1.00000
     82      -4.5143      1.00000
     83      -4.4619      1.00000
     84      -4.4526      1.00000
     85      -4.4143      1.00000
     86      -4.3633      1.00000
     87      -4.2349      1.00000
     88      -4.2316      1.00000
     89      -4.1159      1.00000
     90      -4.1067      1.00000
     91      -4.0496      1.00000
     92      -4.0330      1.00000
     93      -4.0012      1.00000
     94      -3.9976      1.00000
     95      -3.4208      1.00000
     96      -3.3812      1.00000
     97      -3.2731      1.00000
[...]
 -0.000   0.000  -0.000   0.000  -0.000   0.000  -0.000   0.000  -0.000  -0.000  -0.000  -0.000  -0.000  -0.000   0.000   0.000
 -0.000   0.000   0.000  -0.000  -0.000   0.000   0.000  -0.000  -0.000  -0.000  -0.000   0.000  -0.000  -0.000   0.000   0.000
 -0.000   0.000   0.000  -0.000   0.000  -0.000   0.000   0.000  -0.000  -0.000   0.000  -0.000   0.000   0.000   0.000  -0.000
 -0.000   0.000  -0.000  -0.000   0.000   0.000   0.000   0.000  -0.000  -0.000  -0.000   0.000   0.000  -0.000  -0.000  -0.000
  0.000   0.000   0.000   0.000  -0.000  -0.000  -0.000  -0.000   0.000  -0.000  -0.000   0.000  -0.000  -0.000   0.000  -0.000
  0.000  -0.000   0.000  -0.000   0.000  -0.000   0.000  -0.000   0.000   0.000   0.000   0.000  -0.000   0.000  -0.000  -0.000
 -0.000  -0.000  -0.000   0.000   0.000  -0.000  -0.000  -0.000   0.000   0.000   0.000  -0.000  -0.000  -0.000  -0.000  -0.000
 -0.000  -0.000   0.000  -0.000   0.000   0.000  -0.000  -0.000  -0.000  -0.000  -0.000   0.000  -0.000  -0.000   0.000   0.000
 -0.000  -0.000  -0.000  -0.000   0.000   0.000   0.000  -0.000  -0.000  -0.000  -0.000  -0.000  -0.000   0.000  -0.000  -0.000


------------------------ aborting loop because EDIFF is reached ----------------------------------------


 


 total charge     
 
# of ion       s       p       d       tot
------------------------------------------
    1        0.320   6.486   1.757   8.563
    2        0.320   6.486   1.757   8.563
    3        0.320   6.486   1.757   8.563
    4        0.320   6.486   1.757   8.563
    5        0.300   6.447   1.752   8.499
    6        0.300   6.447   1.752   8.499
    7        0.300   6.447   1.752   8.499
    8        0.300   6.447   1.752   8.499
    9        1.567   3.456   0.000   5.023
   10        1.567   3.456   0.000   5.023
   11        1.574   3.486   0.000   5.060
   12        1.574   3.486   0.000   5.060
   13        1.567   3.442   0.000   5.009
   14        1.566   3.439   0.000   5.006
   15        1.566   3.439   0.000   5.006
   16        1.567   3.442   0.000   5.009
   17        1.732   4.371   0.000   6.103
   18        1.732   4.371   0.000   6.103
   19        1.732   4.371   0.000   6.103
   20        1.732   4.371   0.000   6.103
   21        1.732   4.371   0.000   6.103
   22        1.732   4.371   0.000   6.103
   23        1.732   4.371   0.000   6.103
   24        1.732   4.371   0.000   6.103
   25        1.730   4.389   0.000   6.119
   26        1.730   4.389   0.000   6.119
   27        1.730   4.388   0.000   6.118
   28        1.730   4.388   0.000   6.118
   29        1.729   4.367   0.000   6.096
   30        1.729   4.367   0.000   6.096
   31        1.731   4.389   0.000   6.121
   32        1.731   4.389   0.000   6.121
--------------------------------------------------
tot         42.723 149.413  14.036 206.171
 


 magnetization (x)
 
# of ion       s       p       d       tot
------------------------------------------
    1       -0.000  -0.000  -0.000  -0.000
    2       -0.000  -0.000  -0.000  -0.000
    3       -0.000  -0.000  -0.000  -0.000
    4       -0.000  -0.000  -0.000  -0.000
    5        0.000  -0.000   0.000   0.000
    6        0.000  -0.000   0.000   0.000
    7        0.000  -0.000   0.000   0.000
    8        0.000  -0.000   0.000   0.000
    9        0.000  -0.000   0.000  -0.000
   10        0.000  -0.000   0.000  -0.000
   11        0.000   0.000   0.000   0.000
   12        0.000   0.000   0.000   0.000
   13       -0.000  -0.000   0.000  -0.000
   14       -0.000  -0.000   0.000  -0.000
   15       -0.000  -0.000   0.000  -0.000
   16       -0.000  -0.000   0.000  -0.000
   17       -0.000   0.000   0.000   0.000
   18       -0.000   0.000   0.000   0.000
   19       -0.000   0.000   0.000   0.000
   20       -0.000   0.000   0.000   0.000
   21       -0.000   0.000   0.000   0.000
   22       -0.000   0.000   0.000   0.000
   23       -0.000   0.000   0.000   0.000
   24       -0.000   0.000   0.000   0.000
   25       -0.000  -0.000   0.000  -0.000
   26       -0.000  -0.000   0.000  -0.000
   27       -0.000  -0.000   0.000  -0.000
   28       -0.000  -0.000   0.000  -0.000
   29        0.000  -0.000   0.000  -0.000
   30        0.000  -0.000   0.000  -0.000
   31       -0.000  -0.000   0.000  -0.000
   32       -0.000  -0.000   0.000  -0.000
--------------------------------------------------
tot         -0.000  -0.000  -0.000  -0.000
 
    CHARGE:  cpu time    0.5459: real time    0.5463
    FORLOC:  cpu time    0.0100: real time    0.0098
    FORNL :  cpu time    2.0807: real time    2.0769
    STRESS:  cpu time    6.4340: real time    6.4213
    FORCOR:  cpu time    0.1910: real time    0.1911
    FORHAR:  cpu time    0.0210: real time    0.0212
    MIXING:  cpu time    0.0020: real time    0.0023
    OFIELD:  cpu time    0.0000: real time    0.0000

  FORCE on cell =-STRESS in cart. coord.  units (eV):
  Direction    XX          YY          ZZ          XY          YZ          ZX
  --------------------------------------------------------------------------------------
  Alpha Z   751.07415   751.07415   751.07415
  Ewald   -4443.91356 -4212.65016 -4038.73971     0.00000     0.00009     0.00001
  Hartree  2619.96489  2794.28320  2897.79331     0.00000     0.00004     0.00001
  E(xc)   -1231.57160 -1231.68387 -1232.12698     0.00000    -0.00000     0.00000
  Local   -1807.33254 -2243.48988 -2578.51955    -0.00000    -0.00013    -0.00002
  n-local  -975.35936  -968.15952  -957.36892    -0.00000     0.00000    -0.00000
  augment   744.20944   752.67064   772.94086    -0.00000     0.00000     0.00000
  Kinetic  4342.99201  4357.98613  4385.02420    -0.00000    -0.00000     0.00000
  Fock        0.00000     0.00000     0.00000     0.00000     0.00000     0.00000
  -------------------------------------------------------------------------------------
  Total       0.06344     0.03069     0.07735    -0.00000    -0.00000     0.00000
  in kB       0.21800     0.10546     0.26583    -0.00000    -0.00000     0.00000
  external pressure =        0.20 kB  Pullay stress =        0.00 kB


 VOLUME and BASIS-vectors are now :
 -----------------------------------------------------------------------------
  energy-cutoff  :      700.00
  volume of cell :      466.22
      direct lattice vectors                 reciprocal lattice vectors
     7.933647367 -0.000000000  0.000000042     0.126045431 -0.000000000 -0.000000001
     0.000000001  7.798884844 -0.000000020     0.000000000  0.128223460  0.000000000
     0.000000039 -0.000000020  7.535045678    -0.000000001  0.000000000  0.132713197

  length of vectors
     7.933647367  7.798884844  7.535045678     0.126045431  0.128223460  0.132713197


 FORCES acting on ions
    electron-ion (+dipol)            ewald-force                    non-local-force                 convergence-correction
 -----------------------------------------------------------------------------------------------
   0.625E-05 0.216E+01 0.158E+02   -.612E-05 -.215E+01 -.164E+02   -.139E-06 -.952E-02 0.609E+00   -.255E-09 -.155E-02 0.120E-02
   -.625E-05 0.216E+01 -.158E+02   0.612E-05 -.215E+01 0.164E+02   0.137E-06 -.952E-02 -.609E+00   0.434E-09 -.155E-02 -.120E-02
   -.624E-05 -.216E+01 -.158E+02   0.610E-05 0.215E+01 0.164E+02   0.139E-06 0.952E-02 -.609E+00   0.451E-09 0.155E-02 -.120E-02
   0.624E-05 -.216E+01 0.158E+02   -.610E-05 0.215E+01 -.164E+02   -.138E-06 0.952E-02 0.609E+00   -.761E-09 0.155E-02 0.120E-02
   0.450E-06 0.736E+01 0.106E+02   -.382E-06 -.851E+01 -.106E+02   -.686E-07 0.116E+01 -.125E-01   -.317E-08 -.114E-01 -.394E-03
   -.470E-06 0.736E+01 -.106E+02   0.410E-06 -.851E+01 0.106E+02   0.685E-07 0.116E+01 0.125E-01   -.408E-08 -.114E-01 0.394E-03
   -.439E-06 -.736E+01 -.106E+02   0.374E-06 0.851E+01 0.106E+02   0.695E-07 -.116E+01 0.125E-01   0.436E-09 0.114E-01 0.394E-03
   0.521E-06 -.736E+01 0.106E+02   -.460E-06 0.851E+01 -.106E+02   -.690E-07 -.116E+01 -.125E-01   0.206E-08 0.114E-01 -.394E-03
   -.239E-07 -.875E-05 -.128E-03   0.244E-07 0.873E-05 0.140E-03   0.420E-09 0.303E-06 -.122E-04   -.565E-09 -.179E-08 0.127E-08
   0.490E-08 -.966E-05 0.127E-03   -.630E-08 0.980E-05 -.139E-03   0.251E-08 0.104E-06 0.120E-04   -.651E-09 -.447E-09 -.223E-08
   -.210E-06 0.149E+01 0.125E-04   0.225E-06 -.156E+01 -.139E-04   -.148E-07 0.660E-01 0.968E-06   -.389E-09 -.924E-03 0.110E-07
   0.190E-06 -.149E+01 -.146E-04   -.204E-06 0.156E+01 0.161E-04   0.125E-07 -.660E-01 -.109E-05   0.246E-09 0.924E-03 -.127E-07
   -.140E-06 -.150E+02 -.107E-03   0.146E-06 0.170E+02 0.121E-03   -.529E-08 -.201E+01 -.139E-04   -.145E-08 -.520E-02 -.472E-08
   0.115E-06 -.144E+02 -.112E-03   -.120E-06 0.163E+02 0.126E-03   0.469E-08 -.196E+01 -.138E-04   -.838E-09 -.522E-02 0.248E-08
   -.720E-07 0.144E+02 0.116E-03   0.758E-07 -.163E+02 -.130E-03   -.163E-08 0.196E+01 0.144E-04   -.722E-09 0.522E-02 -.433E-08
   0.152E-06 0.150E+02 0.112E-03   -.156E-06 -.170E+02 -.127E-03   0.481E-08 0.201E+01 0.144E-04   -.466E-09 0.520E-02 0.642E-08
   -.105E+03 -.323E+01 -.567E+01   0.116E+03 0.418E+01 0.786E+01   -.108E+02 -.952E+00 -.219E+01   0.224E-01 -.266E-02 0.635E-03
   -.105E+03 -.323E+01 0.567E+01   0.116E+03 0.418E+01 -.786E+01   -.108E+02 -.952E+00 0.219E+01   0.224E-01 -.266E-02 -.635E-03
   -.105E+03 0.323E+01 0.567E+01   0.116E+03 -.418E+01 -.786E+01   -.108E+02 0.952E+00 0.219E+01   0.224E-01 0.266E-02 -.635E-03
   -.105E+03 0.323E+01 -.567E+01   0.116E+03 -.418E+01 0.786E+01   -.108E+02 0.952E+00 -.219E+01   0.224E-01 0.266E-02 0.635E-03
   0.105E+03 -.323E+01 -.567E+01   -.116E+03 0.418E+01 0.786E+01   0.108E+02 -.952E+00 -.219E+01   -.224E-01 -.266E-02 0.635E-03
   0.105E+03 -.323E+01 0.567E+01   -.116E+03 0.418E+01 -.786E+01   0.108E+02 -.952E+00 0.219E+01   -.224E-01 -.266E-02 -.635E-03
   0.105E+03 0.323E+01 0.567E+01   -.116E+03 -.418E+01 -.786E+01   0.108E+02 0.952E+00 0.219E+01   -.224E-01 0.266E-02 -.635E-03
   0.105E+03 0.323E+01 -.567E+01   -.116E+03 -.418E+01 0.786E+01   0.108E+02 0.952E+00 -.219E+01   -.224E-01 0.266E-02 0.635E-03
   -.588E-07 0.888E-05 -.107E-04   0.646E-07 -.568E-05 0.508E-05   -.503E-08 -.343E-05 0.602E-05   -.408E-09 0.683E-08 -.109E-07
   -.490E-07 0.816E-05 0.994E-05   0.543E-07 -.484E-05 -.423E-05   -.552E-08 -.352E-05 -.617E-05   0.250E-09 0.562E-08 0.111E-07
   0.443E-07 0.288E-05 -.363E-04   -.484E-07 -.187E-07 0.339E-04   0.374E-08 -.312E-05 0.283E-05   0.276E-09 -.605E-08 -.989E-08
   0.205E-07 0.373E-05 0.361E-04   -.225E-07 -.809E-06 -.337E-04   0.152E-08 -.322E-05 -.284E-05   0.396E-09 -.456E-08 0.972E-08
   0.174E-07 -.667E-05 0.765E-04   -.146E-07 0.602E-05 -.891E-04   -.387E-08 0.742E-06 0.131E-04   -.356E-09 0.366E-08 -.340E-08
   0.465E-08 -.913E-05 -.774E-04   0.542E-09 0.892E-05 0.902E-04   -.422E-08 0.309E-06 -.132E-04   -.879E-09 0.130E-08 0.372E-08
   0.194E-06 0.162E+01 0.203E-05   -.205E-06 -.169E+01 -.359E-05   0.864E-08 0.707E-01 0.179E-05   0.102E-08 -.104E-02 -.137E-07
   -.176E-06 -.162E+01 -.144E-05   0.184E-06 0.169E+01 0.310E-05   -.729E-08 -.707E-01 -.193E-05   0.319E-09 0.104E-02 0.156E-07
 -----------------------------------------------------------------------------------------------
   0.183E-07 -.347E-05 -.125E-07   0.335E-13 0.568E-13 0.462E-14   -.929E-08 0.335E-05 0.130E-07   -.604E-08 -.608E-08 -.342E-08
 
 
 POSITION                                       TOTAL-FORCE (eV/Angst)
 -----------------------------------------------------------------------------------
      7.93365      0.00111      7.45117        -0.000000      0.000089      0.008359
      0.00000      0.00111      3.85140         0.000000      0.000089     -0.008359
      0.00000      3.89834      0.08388         0.000000     -0.000090     -0.008362
      7.93365      3.89834      3.68364        -0.000000     -0.000090      0.008361
      3.96682      7.70236      0.00280        -0.000000      0.002477      0.001007
      3.96682      7.70236      3.76472         0.000000      0.002477     -0.001007
      3.96682      3.99597      7.53224         0.000000     -0.002476     -0.001008
      3.96682      3.99597      3.77033        -0.000000     -0.002476      0.001007
      3.96682      5.84916      0.00000         0.000000      0.000000     -0.000000
      3.96682      5.84916      3.76752         0.000000      0.000000      0.000000
      0.00000      7.79623      5.65128         0.000000     -0.000569     -0.000000
      7.93365      3.90210      1.88376        -0.000000      0.000569      0.000000
      3.96682      0.04259      1.88376        -0.000000      0.008095      0.000000
      3.96682      0.04172      5.65128        -0.000000      0.008141      0.000000
      3.96682      3.85773      1.88376         0.000000     -0.008140      0.000000
      3.96682      3.85685      5.65128         0.000000     -0.008096     -0.000000
      1.87871      0.00809      0.04427        -0.002296     -0.001080      0.003420
      1.87871      0.00809      3.72326        -0.002296     -0.001080     -0.003420
      1.87871      3.89135      7.49078        -0.002296      0.001080     -0.003419
      1.87871      3.89135      3.81179        -0.002296      0.001080      0.003419
      6.05494      0.00809      0.04427         0.002296     -0.001080      0.003420
      6.05494      0.00809      3.72326         0.002296     -0.001080     -0.003420
      6.05494      3.89135      7.49078         0.002296      0.001080     -0.003419
      6.05494      3.89135      3.81179         0.002296      0.001080      0.003419
      0.00000      1.94972      7.53505         0.000000     -0.000000      0.000000
      0.00000      1.94972      3.76752        -0.000000     -0.000000     -0.000000
      7.93365      5.84916      7.53505        -0.000000     -0.000000      0.000000
      7.93365      5.84916      3.76752        -0.000000     -0.000000     -0.000000
      3.96682      1.94972      7.53505        -0.000000      0.000000      0.000000
      3.96682      1.94972      3.76752        -0.000000      0.000000     -0.000000
      7.93365      7.79578      1.88376        -0.000000     -0.000828      0.000000
      0.00000      3.90255      5.65128         0.000000      0.000828     -0.000000
 -----------------------------------------------------------------------------------
    total drift:                                0.000000     -0.000000     -0.000000


--------------------------------------------------------------------------------------------------------



  FREE ENERGIE OF THE ION-ELECTRON SYSTEM (eV)
  ---------------------------------------------------
  free  energy   TOTEN  =      -210.16177142 eV

  energy  without entropy=     -210.15817116  energy(sigma->0) =     -210.15997129
 


--------------------------------------------------------------------------------------------------------


    POTLOK:  cpu time    0.9799: real time    0.9798


--------------------------------------------------------------------------------------------------------


 stress matrix after NEB project (eV)
      0.06344      0.00000      0.00000
     -0.00000      0.03069     -0.00000
      0.00000     -0.00000      0.07735
  FORCES: max atom, RMS     0.008362    0.004740
  FORCE total and by dimension    0.026811    0.008362
  Stress total and by dimension    0.104639    0.077353
 Quasi-Newton relaxation of ions (Broydens 2nd method)
  g(Force)  = 0.347E-04   g(Stress)= 0.165E-04

 Reset! Starting new Quasi-Newton update for ions 


--------------------------------------------------------------------------------------------------------


  
 reached required accuracy - stopping structural energy minimisation
 writing wavefunctions
     LOOP+:  cpu time   92.4040: real time  183.9515
    4ORBIT:  cpu time    0.0000: real time    0.0000
 


 total charge     
 
# of ion       s       p       d       tot
------------------------------------------
    1        0.320   6.486   1.757   8.563
    2        0.320   6.486   1.757   8.563
    3        0.320   6.486   1.757   8.563
    4        0.320   6.486   1.757   8.563
    5        0.300   6.447   1.752   8.499
    6        0.300   6.447   1.752   8.499
    7        0.300   6.447   1.752   8.499
    8        0.300   6.447   1.752   8.499
    9        1.567   3.456   0.000   5.023
   10        1.567   3.456   0.000   5.023
   11        1.574   3.486   0.000   5.060
   12        1.574   3.486   0.000   5.060
   13        1.567   3.442   0.000   5.009
   14        1.566   3.439   0.000   5.006
   15        1.566   3.439   0.000   5.006
   16        1.567   3.442   0.000   5.009
   17        1.732   4.371   0.000   6.103
   18        1.732   4.371   0.000   6.103
   19        1.732   4.371   0.000   6.103
   20        1.732   4.371   0.000   6.103
   21        1.732   4.371   0.000   6.103
   22        1.732   4.371   0.000   6.103
   23        1.732   4.371   0.000   6.103
   24        1.732   4.371   0.000   6.103
   25        1.730   4.389   0.000   6.119
   26        1.730   4.389   0.000   6.119
   27        1.730   4.388   0.000   6.118
   28        1.730   4.388   0.000   6.118
   29        1.729   4.367   0.000   6.096
   30        1.729   4.367   0.000   6.096
   31        1.731   4.389   0.000   6.121
   32        1.731   4.389   0.000   6.121
--------------------------------------------------
tot         42.723 149.413  14.036 206.171
 


 magnetization (x)
 
# of ion       s       p       d       tot
------------------------------------------
    1       -0.000  -0.000  -0.000  -0.000
    2       -0.000  -0.000  -0.000  -0.000
    3       -0.000  -0.000  -0.000  -0.000
    4       -0.000  -0.000  -0.000  -0.000
    5        0.000  -0.000   0.000   0.000
    6        0.000  -0.000   0.000   0.000
    7        0.000  -0.000   0.000   0.000
    8        0.000  -0.000   0.000   0.000
    9        0.000  -0.000   0.000  -0.000
   10        0.000  -0.000   0.000  -0.000
   11        0.000   0.000   0.000   0.000
   12        0.000   0.000   0.000   0.000
   13       -0.000  -0.000   0.000  -0.000
   14       -0.000  -0.000   0.000  -0.000
   15       -0.000  -0.000   0.000  -0.000
   16       -0.000  -0.000   0.000  -0.000
   17       -0.000   0.000   0.000   0.000
   18       -0.000   0.000   0.000   0.000
   19       -0.000   0.000   0.000   0.000
   20       -0.000   0.000   0.000   0.000
   21       -0.000   0.000   0.000   0.000
   22       -0.000   0.000   0.000   0.000
   23       -0.000   0.000   0.000   0.000
   24       -0.000   0.000   0.000   0.000
   25       -0.000  -0.000   0.000  -0.000
   26       -0.000  -0.000   0.000  -0.000
   27       -0.000  -0.000   0.000  -0.000
   28       -0.000  -0.000   0.000  -0.000
   29        0.000  -0.000   0.000  -0.000
   30        0.000  -0.000   0.000  -0.000
   31       -0.000  -0.000   0.000  -0.000
   32       -0.000  -0.000   0.000  -0.000
--------------------------------------------------
tot         -0.000  -0.000  -0.000  -0.000
 

 total amount of memory used by VASP MPI-rank0    62247. kBytes
=======================================================================

   base      :      30000. kBytes
   nonlr-proj:       8508. kBytes
   fftplans  :       8422. kBytes
   grid      :       8783. kBytes
   one-center:        124. kBytes
   wavefun   :       6410. kBytes
 
  
  
 General timing and accounting informations for this job:
 ========================================================
  
                  Total CPU time used (sec):      125.417
                            User time (sec):      105.353
                          System time (sec):       20.064
                         Elapsed time (sec):      259.255
  
                   Maximum memory used (kb):      175228.
                   Average memory used (kb):           0.
  
                          Minor page faults:       146734
                          Major page faults:            2
                 Voluntary context switches:        20986
