 vasp.5.4.4.18Apr17-6-g9f103f2a35 (build Apr 30 2017 20:10:35) complex          
  
 executed on             LinuxIFC date 2017.08.07  13:06:46
 running on   64 total cores
 distrk:  each k-point on   64 cores,    1 groups
 distr:  one band on NCORES_PER_BAND=   8 cores,    8 groups


--------------------------------------------------------------------------------------------------------


 INCAR:
 POTCAR:   PAW_PBE Ti_pv 07Sep2000                
 POTCAR:   PAW_PBE O 08Apr2002                    
 POTCAR:    PAW_PBE F 08Apr2002                   
 POTCAR:   PAW_PBE Ti_pv 07Sep2000                
   VRHFIN =Ti: d3 s1                                                            
   LEXCH  = PE                                                                  
   EATOM  =  1042.3781 eV,   76.6126 Ry                                         
                                                                                
   TITEL  = PAW_PBE Ti_pv 07Sep2000                                             
   LULTRA =        F    use ultrasoft PP ?                                      
   IUNSCR =        1    unscreen: 0-lin 1-nonlin 2-no                           
   RPACOR =    2.200    partial core radius                                     
   POMASS =   47.880; ZVAL   =   10.000    mass and valenz                      
   RCORE  =    2.500    outmost cutoff radius                                   
   RWIGS  =    2.500; RWIGS  =    1.323    wigner-seitz radius (au A)           
   ENMAX  =  222.338; ENMIN  =  166.753 eV                                      
   RCLOC  =    1.701    cutoff for local pot                                    
   LCOR   =        T    correct aug charges                                     
   LPAW   =        T    paw PP                                                  
   EAUG   =  482.848                                                            
   DEXC   =    -.008                                                            
   RMAX   =    3.092    core radius for proj-oper                               
   RAUG   =    1.300    factor for augmentation sphere                          
   RDEP   =    2.538    radius for radial grids                                 
   QCUT   =   -4.042; QGAM   =    8.085    optimization parameters              
                                                                                
   Description                                                                  
     l     E      TYP  RCUT    TYP  RCUT                                        
     1   .000     23  2.300                                                     
     1  -.100     23  2.300                                                     
     2   .000     23  2.500                                                     
     2   .000     23  2.500                                                     
     0   .000     23  2.500                                                     
     0  1.500     23  2.500                                                     
     3   .000      7   .000                                                     
  local pseudopotential read in
  partial core-charges read in
  atomic valenz-charges read in
  non local Contribution for L=           1  read in
    real space projection operators read in
  non local Contribution for L=           1  read in
    real space projection operators read in
  non local Contribution for L=           2  read in
    real space projection operators read in
  non local Contribution for L=           2  read in
    real space projection operators read in
  non local Contribution for L=           0  read in
    real space projection operators read in
  non local Contribution for L=           0  read in
    real space projection operators read in
    PAW grid and wavefunctions read in
 
   number of l-projection  operators is LMAX  =           6
   number of lm-projection operators is LMMAX =          18
 
 POTCAR:   PAW_PBE O 08Apr2002                    
   VRHFIN =O: s2p4                                                              
   LEXCH  = PE                                                                  
   EATOM  =   432.3788 eV,   31.7789 Ry                                         
                                                                                
   TITEL  = PAW_PBE O 08Apr2002                                                 
   LULTRA =        F    use ultrasoft PP ?                                      
   IUNSCR =        0    unscreen: 0-lin 1-nonlin 2-no                           
   RPACOR =     .000    partial core radius                                     
   POMASS =   16.000; ZVAL   =    6.000    mass and valenz                      
   RCORE  =    1.520    outmost cutoff radius                                   
   RWIGS  =    1.550; RWIGS  =     .820    wigner-seitz radius (au A)           
   ENMAX  =  400.000; ENMIN  =  300.000 eV                                      
   ICORE  =        2    local potential                                         
   LCOR   =        T    correct aug charges                                     
   LPAW   =        T    paw PP                                                  
   EAUG   =  605.392                                                            
   DEXC   =     .000                                                            
   RMAX   =    2.264    core radius for proj-oper                               
   RAUG   =    1.300    factor for augmentation sphere                          
   RDEP   =    1.550    radius for radial grids                                 
   QCUT   =   -5.520; QGAM   =   11.041    optimization parameters              
                                                                                
   Description                                                                  
     l     E      TYP  RCUT    TYP  RCUT                                        
     0   .000     23  1.200                                                     
     0  -.700     23  1.200                                                     
     1   .000     23  1.520                                                     
     1   .600     23  1.520                                                     
     2   .000      7  1.500                                                     
  local pseudopotential read in
  atomic valenz-charges read in
  non local Contribution for L=           0  read in
    real space projection operators read in
  non local Contribution for L=           0  read in
    real space projection operators read in
  non local Contribution for L=           1  read in
    real space projection operators read in
  non local Contribution for L=           1  read in
    real space projection operators read in
    PAW grid and wavefunctions read in
 
   number of l-projection  operators is LMAX  =           4
   number of lm-projection operators is LMMAX =           8
 
 POTCAR:    PAW_PBE F 08Apr2002                   
   VRHFIN =F: s2p5                                                              
   LEXCH  = PE                                                                  
   EATOM  =   659.6475 eV,   48.4827 Ry                                         
                                                                                
   TITEL  = PAW_PBE F 08Apr2002                                                 
   LULTRA =        F    use ultrasoft PP ?                                      
   IUNSCR =        1    unscreen: 0-lin 1-nonlin 2-no                           
   RPACOR =    1.200    partial core radius                                     
   POMASS =   18.998; ZVAL   =    7.000    mass and valenz                      
   RCORE  =    1.520    outmost cutoff radius                                   
   RWIGS  =    1.500; RWIGS  =    0.794    wigner-seitz radius (au A)           
   ENMAX  =  400.000; ENMIN  =  300.000 eV                                      
   ICORE  =        2    local potential                                         
   LCOR   =        T    correct aug charges                                     
   LPAW   =        T    paw PP                                                  
   EAUG   =  613.614                                                            
   RMAX   =    1.555    core radius for proj-oper                               
   RAUG   =    1.300    factor for augmentation sphere                          
   RDEP   =    1.539    radius for radial grids                                 
   RDEPT  =    1.299    core radius for aug-charge                              
                                                                                
   Atomic configuration                                                         
    4 entries                                                                   
     n  l   j            E        occ.                                          
     1  0  0.50      -663.3661   2.0000                                         
     2  0  0.50       -29.8995   2.0000                                         
     2  1  0.50       -11.1114   5.0000                                         
     3  2  1.50       -10.8847   0.0000                                         
   Description                                                                  
     l       E           TYP  RCUT    TYP  RCUT                                 
     0    -29.8995018     23  1.200                                             
     0     -9.5240782     23  1.200                                             
     1    -11.1113914     23  1.520                                             
     1      1.3605826     23  1.520                                             
     2    -10.8846608      7  1.500                                             
  local pseudopotential read in
  partial core-charges read in
  partial kinetic energy density read in
  atomic valenz-charges read in
  non local Contribution for L=           0  read in
    real space projection operators read in
  non local Contribution for L=           0  read in
    real space projection operators read in
  non local Contribution for L=           1  read in
    real space projection operators read in
  non local Contribution for L=           1  read in
    real space projection operators read in
    PAW grid and wavefunctions read in
 
   number of l-projection  operators is LMAX  =           4
   number of lm-projection operators is LMMAX =           8
 
 Optimization of the real space projectors (new method)

 maximal supplied QI-value         = 15.12
 optimisation between [QCUT,QGAM] = [ 13.45, 27.06] = [ 50.69,205.06] Ry 
 Optimized for a Real-space Cutoff    1.49 Angstroem

   l    n(q)    QCUT    max X(q) W(low)/X(q) W(high)/X(q)  e(spline) 
   1     12    13.455     4.841    0.13E-05    0.83E-06    0.56E-07
   1     12    13.455     5.701    0.32E-04    0.25E-04    0.17E-06
   2     11    13.455     4.569    0.64E-05    0.34E-05    0.50E-07
   2     11    13.455    32.276    0.49E-04    0.38E-04    0.46E-06
   0     12    13.455    30.046    0.17E-04    0.41E-05    0.51E-07
   0     12    13.455    45.433    0.12E-04    0.27E-04    0.38E-06
 Optimization of the real space projectors (new method)

 maximal supplied QI-value         = 24.76
 optimisation between [QCUT,QGAM] = [ 13.37, 26.98] = [ 50.04,203.89] Ry 
 Optimized for a Real-space Cutoff    1.17 Angstroem

   l    n(q)    QCUT    max X(q) W(low)/X(q) W(high)/X(q)  e(spline) 
   0      9    13.368     4.192    0.20E-04    0.58E-05    0.56E-07
   0      9    13.368     8.473    0.60E-04    0.52E-04    0.21E-06
   1      9    13.368     2.474    0.22E-04    0.17E-04    0.28E-07
   1      9    13.368     3.912    0.94E-04    0.97E-04    0.20E-06
 Optimization of the real space projectors (new method)

 maximal supplied QI-value         = 24.76
 optimisation between [QCUT,QGAM] = [ 13.37, 26.98] = [ 50.04,203.89] Ry 
 Optimized for a Real-space Cutoff    1.17 Angstroem

   l    n(q)    QCUT    max X(q) W(low)/X(q) W(high)/X(q)  e(spline) 
   0      9    13.368    14.049    0.39E-04    0.34E-04    0.16E-06
   0      9    13.368     8.945    0.54E-04    0.47E-04    0.20E-06
   1      9    13.368     7.086    0.99E-04    0.10E-03    0.23E-06
   1      9    13.368     6.747    0.86E-04    0.89E-04    0.21E-06

 ----------------------------------------------------------------------------- 
|                                                                             |
|  ADVICE TO THIS USER RUNNING 'VASP/VAMP'   (HEAR YOUR MASTER'S VOICE ...):  |
|                                                                             |
|      You enforced a specific xc-type in the INCAR file,                     |
|      a different type was found on the POTCAR file                          |
|          I HOPE YOU KNOW, WHAT YOU ARE  DOING                               |
|                                                                             |
 ----------------------------------------------------------------------------- 

 PAW_PBE Ti_pv 07Sep2000                :
 energy of atom  1       EATOM=-1042.3781
 kinetic energy error for atom=    0.0006 (will be added to EATOM!!)
 PAW_PBE O 08Apr2002                    :
 energy of atom  2       EATOM= -432.3788
 kinetic energy error for atom=    0.0091 (will be added to EATOM!!)
  PAW_PBE F 08Apr2002                   :
 energy of atom  3       EATOM= -659.6475
 kinetic energy error for atom=    0.0140 (will be added to EATOM!!)
 
 
 POSCAR: TiOF2 2x2x2 config 1822                 
  positions in direct lattice
  velocities in cartesian coordinates
 exchange correlation table for  LEXCH =       14
   RHO(1)=    0.500       N(1)  =     2000
   RHO(2)=  100.500       N(2)  =     4000

 VTST: version 3.1, (03/28/14)

 CHAIN: initializing optimizer
 
 OPT: Using VASP QUASI-newton optimizer
 CHAIN: Read ICHAIN            0
 
 POSCAR: TiOF2 2x2x2 config 1822                 
  positions in direct lattice
  velocities in cartesian coordinates
 


--------------------------------------------------------------------------------------------------------


 ion  position               nearest neighbor table
   1  0.001  1.000  0.981-  13 1.74  17 1.92  23 1.93  21 1.93  25 1.93  29 2.02
   2  0.989  0.989  0.503-   9 1.87  11 1.87  13 1.93  29 1.99  24 2.04  18 2.04
   3  0.985  0.500  0.989-  10 1.82  14 1.83  25 1.97  23 1.97  30 2.01  19 2.05
   4  0.000  0.515  0.511-  11 1.82  14 1.83  20 1.96  22 1.98  30 2.01  24 2.05
   5  0.500  0.015  0.013-  12 1.82  15 1.82  17 1.96  21 1.97  31 2.02  27 2.05
   6  0.515  1.000  0.487-   9 1.82  15 1.82  28 1.96  26 1.96  31 2.02  18 2.05
   7  0.511  0.490  0.997-  12 1.87  10 1.87  16 1.93  32 1.99  27 2.04  19 2.04
   8  0.499  0.500  0.519-  16 1.74  28 1.93  20 1.93  26 1.93  22 1.94  32 2.02
   9  0.749  0.001  0.500-   6 1.82   2 1.87
  10  0.751  0.502  0.004-   3 1.82   7 1.87
  11  0.001  0.749  0.496-   4 1.82   2 1.87
  12  0.499  0.249  1.000-   5 1.82   7 1.87
  13  0.002  0.003  0.753-   1 1.74   2 1.93
  14  0.002  0.498  0.750-   3 1.83   4 1.83
  15  0.499  0.998  0.250-   5 1.82   6 1.82
  16  0.498  0.503  0.747-   8 1.74   7 1.93
  17  0.248  0.995  1.000-   1 1.92   5 1.96
  18  0.252  0.003  0.501-   2 2.04   6 2.05
  19  0.248  0.503  0.006-   7 2.04   3 2.05
  20  0.252  0.495  0.491-   8 1.93   4 1.96
  21  0.753  0.995  1.000-   1 1.93   5 1.97
  22  0.747  0.495  0.489-   8 1.94   4 1.98
  23  0.004  0.247  0.009-   1 1.93   3 1.97
  24  0.002  0.252  0.494-   2 2.04   4 2.05
  25  0.004  0.752  0.011-   1 1.93   3 1.97
  26  0.496  0.252  0.501-   8 1.93   6 1.96
  27  0.498  0.752  0.999-   7 2.04   5 2.05
  28  0.495  0.748  0.500-   8 1.93   6 1.96
  29  0.004  0.004  0.244-   2 1.99   1 2.02
  30  0.004  0.495  0.250-   4 2.01   3 2.01
  31  0.496  0.995  0.750-   6 2.02   5 2.02
  32  0.497  0.505  0.256-   7 1.99   8 2.02
 

IMPORTANT INFORMATION: All symmetrisations will be switched off!
NOSYMM: (Re-)initialisation of all symmetry stuff for point group C_1.

 
 
 KPOINTS: Title                                   

Automatic generation of k-mesh.
Space group operators:
 irot       det(A)        alpha          n_x          n_y          n_z        tau_x        tau_y        tau_z
    1     1.000000     0.000000     1.000000     0.000000     0.000000     0.000000     0.000000     0.000000
 
 Subroutine IBZKPT returns following result:
 ===========================================
 
 Found     32 irreducible k-points:
 
 Following reciprocal coordinates:
            Coordinates               Weight
  0.125000  0.125000  0.125000      2.000000
  0.375000  0.125000  0.125000      2.000000
 -0.375000  0.125000  0.125000      2.000000
 -0.125000  0.125000  0.125000      2.000000
  0.125000  0.375000  0.125000      2.000000
  0.375000  0.375000  0.125000      2.000000
 -0.375000  0.375000  0.125000      2.000000
 -0.125000  0.375000  0.125000      2.000000
  0.125000 -0.375000  0.125000      2.000000
  0.375000 -0.375000  0.125000      2.000000
 -0.375000 -0.375000  0.125000      2.000000
 -0.125000 -0.375000  0.125000      2.000000
  0.125000 -0.125000  0.125000      2.000000
  0.375000 -0.125000  0.125000      2.000000
 -0.375000 -0.125000  0.125000      2.000000
 -0.125000 -0.125000  0.125000      2.000000
  0.125000  0.125000  0.375000      2.000000
  0.375000  0.125000  0.375000      2.000000
 -0.375000  0.125000  0.375000      2.000000
 -0.125000  0.125000  0.375000      2.000000
  0.125000  0.375000  0.375000      2.000000
  0.375000  0.375000  0.375000      2.000000
 -0.375000  0.375000  0.375000      2.000000
 -0.125000  0.375000  0.375000      2.000000
  0.125000 -0.375000  0.375000      2.000000
  0.375000 -0.375000  0.375000      2.000000
 -0.375000 -0.375000  0.375000      2.000000
 -0.125000 -0.375000  0.375000      2.000000
  0.125000 -0.125000  0.375000      2.000000
  0.375000 -0.125000  0.375000      2.000000
 -0.375000 -0.125000  0.375000      2.000000
 -0.125000 -0.125000  0.375000      2.000000
 
 Following cartesian coordinates:
            Coordinates               Weight
  0.016111  0.016109  0.016296      2.000000
  0.048342  0.016109  0.016288      2.000000
 -0.048350  0.016108  0.016313      2.000000
 -0.016120  0.016108  0.016304      2.000000
  0.016112  0.048339  0.016283      2.000000
  0.048343  0.048339  0.016275      2.000000
 -0.048350  0.048338  0.016300      2.000000
 -0.016119  0.048338  0.016291      2.000000
  0.016111 -0.048351  0.016322      2.000000
  0.048342 -0.048351  0.016314      2.000000
 -0.048351 -0.048352  0.016339      2.000000
 -0.016120 -0.048351  0.016330      2.000000
  0.016111 -0.016121  0.016309      2.000000
  0.048342 -0.016121  0.016301      2.000000
 -0.048351 -0.016122  0.016326      2.000000
 -0.016120 -0.016122  0.016317      2.000000
  0.016103  0.016096  0.048909      2.000000
  0.048334  0.016096  0.048901      2.000000
 -0.048359  0.016095  0.048926      2.000000
 -0.016128  0.016095  0.048918      2.000000
  0.016103  0.048326  0.048896      2.000000
  0.048334  0.048326  0.048888      2.000000
 -0.048359  0.048325  0.048913      2.000000
 -0.016128  0.048325  0.048905      2.000000
  0.016102 -0.048364  0.048935      2.000000
  0.048333 -0.048364  0.048927      2.000000
 -0.048360 -0.048365  0.048952      2.000000
 -0.016129 -0.048364  0.048944      2.000000
  0.016103 -0.016134  0.048922      2.000000
  0.048334 -0.016134  0.048914      2.000000
 -0.048359 -0.016135  0.048939      2.000000
 -0.016128 -0.016134  0.048931      2.000000
 


--------------------------------------------------------------------------------------------------------




 Dimension of arrays:
   k-points           NKPTS =     32   k-points in BZ     NKDIM =     32   number of bands    NBANDS=    160
   number of dos      NEDOS =   3001   number of ions     NIONS =     32
   non local maximal  LDIM  =      6   non local SUM 2l+1 LMDIM =     18
   total plane-waves  NPLWV = 343000
   max r-space proj   IRMAX =  10311   max aug-charges    IRDMAX= 231163
   dimension x,y,z NGX =    70 NGY =   70 NGZ =   70
   dimension x,y,z NGXF=   140 NGYF=  140 NGZF=  140
   support grid    NGXF=   280 NGYF=  280 NGZF=  280
   ions per type =               8   8  16
   NGX,Y,Z   is equivalent  to a cutoff of  15.00, 15.00, 15.18 a.u.
   NGXF,Y,Z  is equivalent  to a cutoff of  30.01, 30.01, 30.36 a.u.

 SYSTEM =  LTO                                     
 POSCAR =  TiOF2 2x2x2 config 1822                 

 Startparameter for this run:
   NWRITE =      2    write-flag & timer
   PREC   = accura    normal or accurate (medium, high low for compatibility)
   ISTART =      1    job   : 0-new  1-cont  2-samecut
   ICHARG =      0    charge: 1-file 2-atom 10-const
   ISPIN  =      2    spin polarized calculation?
   LNONCOLLINEAR =      F non collinear calculations
   LSORBIT =      F    spin-orbit coupling
   INIWAV =      1    electr: 0-lowe 1-rand  2-diag
   LASPH  =      T    aspherical Exc in radial PAW
   METAGGA=      F    non-selfconsistent MetaGGA calc.

 Electronic Relaxation 1
   ENCUT  =  700.0 eV  51.45 Ry    7.17 a.u.  16.73 16.73 16.54*2*pi/ulx,y,z
   ENINI  =  700.0     initial cutoff
   ENAUG  =  613.6 eV  augmentation charge cutoff
   NELM   =     60;   NELMIN=  2; NELMDL=  0     # of ELM steps 
   EDIFF  = 0.1E-05   stopping-criterion for ELM
   LREAL  =      T    real-space projection
   NLSPLINE    = F    spline interpolate recip. space projectors
   LCOMPAT=      F    compatible to vasp.4.4
   GGA_COMPAT  = T    GGA compatible to vasp.4.4-vasp.4.6
   LMAXPAW     = -100 max onsite density
   LMAXMIX     =    4 max onsite mixed and CHGCAR
   VOSKOWN=      0    Vosko Wilk Nusair interpolation
   ROPT   =   -0.00010  -0.00010  -0.00010
 Ionic relaxation
   EDIFFG = -.1E-01   stopping-criterion for IOM
   NSW    =    100    number of steps for IOM
   NBLOCK =      1;   KBLOCK =    100    inner block; outer block 
   IBRION =      1    ionic relax: 0-MD 1-quasi-New 2-CG
   NFREE  =      0    steps in history (QN), initial steepest desc. (CG)
   ISIF   =      3    stress and relaxation
   IWAVPR =     11    prediction:  0-non 1-charg 2-wave 3-comb
   ISYM   =      0    0-nonsym 1-usesym 2-fastsym
   LCORR  =      T    Harris-Foulkes like correction to forces

   POTIM  = 0.5000    time-step for ionic-motion
   TEIN   =    0.0    initial temperature
   TEBEG  =    0.0;   TEEND  =   0.0 temperature during run
   SMASS  =  -3.00    Nose mass-parameter (am)
   estimated Nose-frequenzy (Omega)   =  0.10E-29 period in steps =****** mass=  -0.137E-26a.u.
   SCALEE = 1.0000    scale energy and forces
   NPACO  =    256;   APACO  = 16.0  distance and # of slots for P.C.
   PSTRESS=    0.0 pullay stress

  Mass of Ions in am
   POMASS =  47.88 16.00 19.00
  Ionic Valenz
   ZVAL   =  10.00  6.00  7.00
  Atomic Wigner-Seitz radii
   RWIGS  =  -1.00 -1.00 -1.00
  virtual crystal weights 
   VCA    =   1.00  1.00  1.00
   NELECT =     240.0000    total number of electrons
   NUPDOWN=      -1.0000    fix difference up-down

 DOS related values:
   EMIN   =  10.00;   EMAX   =-10.00  energy-range for DOS
   EFERMI =   0.00
   ISMEAR =     0;   SIGMA  =   0.01  broadening in eV -4-tet -1-fermi 0-gaus

 Electronic relaxation 2 (details)
   IALGO  =     38    algorithm
   LDIAG  =      T    sub-space diagonalisation (order eigenvalues)
   LSUBROT=      F    optimize rotation matrix (better conditioning)
   TURBO    =      0    0=normal 1=particle mesh
   IRESTART =      0    0=no restart 2=restart with 2 vectors
   NREBOOT  =      0    no. of reboots
   NMIN     =      0    reboot dimension
   EREF     =   0.00    reference energy to select bands
   IMIX   =      4    mixing-type and parameters
     AMIX     =   0.40;   BMIX     =  1.00
     AMIX_MAG =   1.60;   BMIX_MAG =  1.00
     AMIN     =   0.10
     WC   =   100.;   INIMIX=   1;  MIXPRE=   1;  MAXMIX= -45

 Intra band minimization:
   WEIMIN = 0.0010     energy-eigenvalue tresh-hold
   EBREAK =  0.16E-08  absolut break condition
   DEPER  =   0.30     relativ break condition  

   TIME   =   0.40     timestep for ELM

  volume/ion in A,a.u.               =      14.41        97.26
  Fermi-wavevector in a.u.,A,eV,Ry     =   1.316783  2.488358 23.591364  1.733916
  Thomas-Fermi vector in A             =   2.446870
 
 Write flags
   LWAVE        =      T    write WAVECAR
   LDOWNSAMPLE  =      F    k-point downsampling of WAVECAR
   LCHARG       =      T    write CHGCAR
   LVTOT        =      F    write LOCPOT, total local potential
   LVHAR        =      F    write LOCPOT, Hartree potential only
   LELF         =      F    write electronic localiz. function (ELF)
   LORBIT       =     11    0 simple, 1 ext, 2 COOP (PROOUT), +10 PAW based schemes


 Dipole corrections
   LMONO  =      F    monopole corrections only (constant potential shift)
   LDIPOL =      F    correct potential (dipole corrections)
   IDIPOL =      0    1-x, 2-y, 3-z, 4-all directions 
   EPSILON=  1.0000000 bulk dielectric constant

 LDA+U is selected, type is set to LDAUTYPE =  2
   angular momentum for each species LDAUL =     2   -1   -1
   U (eV)           for each species LDAUU =   4.2  0.0  0.0
   J (eV)           for each species LDAUJ =   0.0  0.0  0.0
 Exchange correlation treatment:
   GGA     =    PS    GGA type
   LEXCH   =    14    internal setting for exchange type
   VOSKOWN=      0    Vosko Wilk Nusair interpolation
   LHFCALC =     F    Hartree Fock is set to
   LHFONE  =     F    Hartree Fock one center treatment
   AEXX    =    0.0000 exact exchange contribution

 Linear response parameters
   LEPSILON=     F    determine dielectric tensor
   LRPA    =     F    only Hartree local field effects (RPA)
   LNABLA  =     F    use nabla operator in PAW spheres
   LVEL    =     F    velocity operator in full k-point grid
   LINTERFAST=   F  fast interpolation
   KINTER  =     0    interpolate to denser k-point grid
   CSHIFT  =0.1000    complex shift for real part using Kramers Kronig
   OMEGAMAX=  -1.0    maximum frequency
   DEG_THRESHOLD= 0.2000000E-02 threshold for treating states as degnerate
   RTIME   =   -0.100 relaxation time in fs
  (WPLASMAI=    0.000 imaginary part of plasma frequency in eV, 0.658/RTIME)
   DFIELD  = 0.0000000 0.0000000 0.0000000 field for delta impulse in time
 
 Orbital magnetization related:
   ORBITALMAG=     F  switch on orbital magnetization
   LCHIMAG   =     F  perturbation theory with respect to B field
   DQ        =  0.001000  dq finite difference perturbation B field
   LLRAUG    =     F  two centre corrections for induced B field



--------------------------------------------------------------------------------------------------------


 quasi-Newton-method for relaxation of ions
 charge density and potential will be updated during run
 spin polarized calculation
 Variant of blocked Davidson
 Davidson routine will perform the subspace rotation
 perform sub-space diagonalisation
    after iterative eigenvector-optimisation
 modified Broyden-mixing scheme, WC =      100.0
 initial mixing is a Kerker type mixing with AMIX =  0.4000 and BMIX =      1.0000
 Hartree-type preconditioning will be used
 using additional bands           40
 real space projection scheme for non local part
 use partial core corrections
 calculate Harris-corrections to forces 
   (improved forces if not selfconsistent)
 use gradient corrections 
 use of overlap-Matrix (Vanderbilt PP)
 Gauss-broadening in eV      SIGMA  =   0.01


--------------------------------------------------------------------------------------------------------


  energy-cutoff  :      700.00
  volume of cell :      461.20
      direct lattice vectors                 reciprocal lattice vectors
     7.756513959 -0.000086418  0.001998770     0.128923905  0.000001465 -0.000033330
    -0.000087325  7.756776952  0.003069186     0.000001450  0.128919545 -0.000051829
     0.001981713  0.003081740  7.665592939    -0.000033617 -0.000051618  0.130453082

  length of vectors
     7.756514217  7.756777560  7.665593814     0.128923909  0.128919556  0.130453097


 
 old parameters found on file WAVECAR:
  energy-cutoff  :      700.00
  volume of cell :      461.13
      direct lattice vectors                 reciprocal lattice vectors
     7.756167636 -0.000083967  0.002039424     0.128929662  0.000001424 -0.000034006
    -0.000084855  7.756410311  0.003053797     0.000001409  0.128925639 -0.000051582
     0.002021700  0.003066748  7.665122053    -0.000034304 -0.000051365  0.130461096

  length of vectors

 
 k-points in units of 2pi/SCALE and weight: Title                                   
   0.01611147  0.01610867  0.01629599       0.031
   0.04834244  0.01610904  0.01628766       0.031
  -0.04835049  0.01610794  0.01631266       0.031
  -0.01611951  0.01610831  0.01630432       0.031
   0.01611183  0.04833856  0.01628303       0.031
   0.04834281  0.04833893  0.01627470       0.031
  -0.04835012  0.04833783  0.01629970       0.031
  -0.01611915  0.04833819  0.01629137       0.031
   0.01611074 -0.04835110  0.01632190       0.031
   0.04834172 -0.04835073  0.01631357       0.031
  -0.04835121 -0.04835183  0.01633857       0.031
  -0.01612023 -0.04835146  0.01633024       0.031
   0.01611110 -0.01612121  0.01630895       0.031
   0.04834208 -0.01612085  0.01630062       0.031
  -0.04835085 -0.01612194  0.01632561       0.031
  -0.01611987 -0.01612158  0.01631728       0.031
   0.01610306  0.01609577  0.04890926       0.031
   0.04833404  0.01609614  0.04890093       0.031
  -0.04835889  0.01609504  0.04892593       0.031
  -0.01612791  0.01609540  0.04891759       0.031
   0.01610343  0.04832566  0.04889630       0.031
   0.04833440  0.04832602  0.04888797       0.031
  -0.04835853  0.04832492  0.04891297       0.031
  -0.01612755  0.04832529  0.04890464       0.031
   0.01610234 -0.04836400  0.04893518       0.031
   0.04833331 -0.04836364  0.04892684       0.031
  -0.04835961 -0.04836474  0.04895184       0.031
  -0.01612864 -0.04836437  0.04894351       0.031
   0.01610270 -0.01613412  0.04892222       0.031
   0.04833368 -0.01613375  0.04891389       0.031
  -0.04835925 -0.01613485  0.04893888       0.031
  -0.01612828 -0.01613448  0.04893055       0.031
 
 k-points in reciprocal lattice and weights: Title                                   
   0.12500000  0.12500000  0.12500000       0.031
   0.37500000  0.12500000  0.12500000       0.031
  -0.37500000  0.12500000  0.12500000       0.031
  -0.12500000  0.12500000  0.12500000       0.031
   0.12500000  0.37500000  0.12500000       0.031
   0.37500000  0.37500000  0.12500000       0.031
  -0.37500000  0.37500000  0.12500000       0.031
  -0.12500000  0.37500000  0.12500000       0.031
   0.12500000 -0.37500000  0.12500000       0.031
   0.37500000 -0.37500000  0.12500000       0.031
  -0.37500000 -0.37500000  0.12500000       0.031
  -0.12500000 -0.37500000  0.12500000       0.031
   0.12500000 -0.12500000  0.12500000       0.031
   0.37500000 -0.12500000  0.12500000       0.031
  -0.37500000 -0.12500000  0.12500000       0.031
  -0.12500000 -0.12500000  0.12500000       0.031
   0.12500000  0.12500000  0.37500000       0.031
   0.37500000  0.12500000  0.37500000       0.031
  -0.37500000  0.12500000  0.37500000       0.031
  -0.12500000  0.12500000  0.37500000       0.031
   0.12500000  0.37500000  0.37500000       0.031
   0.37500000  0.37500000  0.37500000       0.031
  -0.37500000  0.37500000  0.37500000       0.031
  -0.12500000  0.37500000  0.37500000       0.031
   0.12500000 -0.37500000  0.37500000       0.031
   0.37500000 -0.37500000  0.37500000       0.031
  -0.37500000 -0.37500000  0.37500000       0.031
  -0.12500000 -0.37500000  0.37500000       0.031
   0.12500000 -0.12500000  0.37500000       0.031
   0.37500000 -0.12500000  0.37500000       0.031
  -0.37500000 -0.12500000  0.37500000       0.031
  -0.12500000 -0.12500000  0.37500000       0.031
 
 position of ions in fractional coordinates (direct lattice) 
   0.00116055  0.99992236  0.98073528
   0.98929118  0.98939653  0.50276899
   0.98483911  0.49993955  0.98861880
   0.00024588  0.51509905  0.51134305
   0.49969527  0.01517427  0.01269064
   0.51515604  0.99978472  0.48729744
   0.51071046  0.48950177  0.99722547
   0.49885224  0.49992710  0.51924228
   0.74912389  0.00128355  0.50023947
   0.75112839  0.50151388  0.00370014
   0.00073824  0.74885751  0.49630412
   0.49925963  0.24920578  0.99971724
   0.00182150  0.00282984  0.75324908
   0.00152106  0.49782889  0.74997217
   0.49883298  0.99830161  0.24998746
   0.49785744  0.50256446  0.74674029
   0.24844502  0.99505346  0.99994152
   0.25167732  0.00301055  0.50119756
   0.24838442  0.50327843  0.00602699
   0.25186404  0.49531683  0.49076260
   0.75261387  0.99479310  0.99974144
   0.74701584  0.49513438  0.48940877
   0.00441824  0.24741711  0.00901230
   0.00218830  0.25162449  0.49394156
   0.00362822  0.75226661  0.01086816
   0.49613207  0.25189776  0.50062637
   0.49783203  0.75176507  0.99885871
   0.49524830  0.74772906  0.49973817
   0.00391469  0.00421419  0.24434607
   0.00376349  0.49539368  0.25001789
   0.49607778  0.99531683  0.75003156
   0.49656251  0.50465759  0.25564841
 
 position of ions in cartesian coordinates  (Angst):
   0.01085807  7.75919696  7.52098873
   7.67436083  7.67599212  3.85903643
   7.64083377  3.88088117  7.58185214
   0.00287551  3.99708426  3.92132912
   3.87591713  0.11769939  0.09832661
   3.99669338  7.75656429  3.73952205
   3.96326632  3.79998508  7.64684772
   3.87033968  3.87938008  3.98283144
   5.81158113  0.01143310  3.83613345
   5.82610135  3.89007778  0.03140433
   0.00664433  5.81025011  3.80676525
   3.87447367  1.93607135  7.66518816
   0.01562097  0.02427156  5.77411319
   0.01324087  3.86385874  5.75051231
   3.86961316  7.74433021  1.92036317
   3.86307414  3.90053862  5.72674463
   1.92896198  7.72146784  7.66869523
   1.95313160  0.02487496  3.84248878
   1.92656525  3.90381561  0.04824153
   1.95451624  3.84355284  3.76400995
   5.83955432  7.71940409  7.66816845
   5.79516544  3.84209058  3.75462121
   0.03426643  1.91918673  0.06985279
   0.01793047  1.95331707  3.78713158
   0.02809817  5.83519745  0.08562698
   3.84922540  1.95541470  3.83936275
   3.86335490  5.83430915  7.66014662
   3.84232536  5.80146483  3.83407421
   0.03084820  0.03344124  1.87307828
   0.02964380  3.84342841  1.91806332
   3.84923365  7.72271915  5.75348295
   3.85205657  3.91526126  1.96223802
 


--------------------------------------------------------------------------------------------------------


 k-point  1 :   0.1250 0.1250 0.1250  plane waves:   19428
 k-point  2 :   0.3750 0.1250 0.1250  plane waves:   19404
 k-point  3 :  -0.3750 0.1250 0.1250  plane waves:   19402
 k-point  4 :  -0.1250 0.1250 0.1250  plane waves:   19428
 k-point  5 :   0.1250 0.3750 0.1250  plane waves:   19404
 k-point  6 :   0.3750 0.3750 0.1250  plane waves:   19385
 k-point  7 :  -0.3750 0.3750 0.1250  plane waves:   19384
 k-point  8 :  -0.1250 0.3750 0.1250  plane waves:   19403
 k-point  9 :   0.1250-0.3750 0.1250  plane waves:   19403
 k-point 10 :   0.3750-0.3750 0.1250  plane waves:   19385
 k-point 11 :  -0.3750-0.3750 0.1250  plane waves:   19380
 k-point 12 :  -0.1250-0.3750 0.1250  plane waves:   19401
 k-point 13 :   0.1250-0.1250 0.1250  plane waves:   19424
 k-point 14 :   0.3750-0.1250 0.1250  plane waves:   19407
 k-point 15 :  -0.3750-0.1250 0.1250  plane waves:   19402
 k-point 16 :  -0.1250-0.1250 0.1250  plane waves:   19422
 k-point 17 :   0.1250 0.1250 0.3750  plane waves:   19392
 k-point 18 :   0.3750 0.1250 0.3750  plane waves:   19384
 k-point 19 :  -0.3750 0.1250 0.3750  plane waves:   19384
 k-point 20 :  -0.1250 0.1250 0.3750  plane waves:   19388
 k-point 21 :   0.1250 0.3750 0.3750  plane waves:   19383
 k-point 22 :   0.3750 0.3750 0.3750  plane waves:   19404
 k-point 23 :  -0.3750 0.3750 0.3750  plane waves:   19404
 k-point 24 :  -0.1250 0.3750 0.3750  plane waves:   19385
 k-point 25 :   0.1250-0.3750 0.3750  plane waves:   19384
 k-point 26 :   0.3750-0.3750 0.3750  plane waves:   19406
 k-point 27 :  -0.3750-0.3750 0.3750  plane waves:   19403
 k-point 28 :  -0.1250-0.3750 0.3750  plane waves:   19384
 k-point 29 :   0.1250-0.1250 0.3750  plane waves:   19387
 k-point 30 :   0.3750-0.1250 0.3750  plane waves:   19385
 k-point 31 :  -0.3750-0.1250 0.3750  plane waves:   19383
 k-point 32 :  -0.1250-0.1250 0.3750  plane waves:   19388

 maximum and minimum number of plane-waves per node :      2449     2400

 maximum number of plane-waves:     19428
 maximum index in each direction: 
   IXMAX=   17   IYMAX=   17   IZMAX=   16
   IXMIN=  -17   IYMIN=  -17   IZMIN=  -16


 real space projection operators:
  total allocation   :      18560.14 KBytes
  max/ min on nodes  :       2467.98       1931.08


 parallel 3D FFT for wavefunctions:
    minimum data exchange during FFTs selected (reduces bandwidth)
 parallel 3D FFT for charge:
    minimum data exchange during FFTs selected (reduces bandwidth)


 total amount of memory used by VASP MPI-rank0   106882. kBytes
=======================================================================

   base      :      30000. kBytes
   nonlr-proj:       8597. kBytes
   fftplans  :       8424. kBytes
   grid      :       8783. kBytes
   one-center:        124. kBytes
   wavefun   :      50954. kBytes
 
     INWAV:  cpu time   29.7175: real time   40.8076
 Broyden mixing: mesh for mixing (old mesh)
   NGX = 33   NGY = 33   NGZ = 33
  (NGX  =140   NGY  =140   NGZ  =140)
  gives a total of  35937 points

 charge density for first step will be calculated from the start-wavefunctions


--------------------------------------------------------------------------------------------------------


 Maximum index for non-local projection operator         1377
 Maximum index for augmentation-charges         7659 (set IRDMAX)


--------------------------------------------------------------------------------------------------------


 initial charge from wavefunction
 First call to EWALD:  gamma=   0.229
 Maximum number of real-space cells 3x 3x 3
 Maximum number of reciprocal cells 3x 3x 3

    FEWALD:  cpu time    0.0040: real time    0.0036


--------------------------------------- Iteration      1(   1)  ---------------------------------------


    POTLOK:  cpu time    0.1600: real time    0.1793
    SETDIJ:  cpu time    0.8399: real time    0.8406
     EDDAV:  cpu time   27.5718: real time   27.5823
       DOS:  cpu time    0.0040: real time    0.0036
    CHARGE:  cpu time    1.1468: real time    1.1477
    MIXING:  cpu time    0.0010: real time    0.0019
    --------------------------------------------
      LOOP:  cpu time   29.7235: real time   29.7554

 eigenvalue-minimisations  : 19904
 total energy-change (2. order) :-0.2132934E+03  (-0.1562113E-03)
 number of electron     240.0000004 magnetization      -0.0000000
 augmentation part       61.9673117 magnetization      -0.0000000

 Broyden mixing:
  rms(total) = 0.13949E-03    rms(broyden)= 0.13384E-03
  rms(prec ) = 0.24513E-03
  weight for this iteration     100.00

 Free energy of the ion-electron system (eV)
  ---------------------------------------------------
  alpha Z        PSCENC =       759.24259796
  Ewald energy   TEWEN  =    -12805.58686228
  -Hartree energ DENC   =     -8235.05798825
  -exchange      EXHF   =         0.00000000
  -V(xc)+E(xc)   XCENC  =      1119.85973434
  PAW double counting   =     18030.88911115   -18154.22960395
  entropy T*S    EENTRO =        -0.00000000
  eigenvalues    EBANDS =     -3230.76363748
  atomic energy  EATOM  =     22302.35321627
  Solvation  Ediel_sol  =         0.00000000
  ---------------------------------------------------
  free energy    TOTEN  =      -213.29343225 eV

  energy without entropy =     -213.29343225  energy(sigma->0) =     -213.29343225


--------------------------------------------------------------------------------------------------------




--------------------------------------- Iteration      1(   2)  ---------------------------------------


    POTLOK:  cpu time    0.1500: real time    0.1696
    SETDIJ:  cpu time    0.8399: real time    0.8391
     EDDAV:  cpu time   19.1451: real time   19.1338
       DOS:  cpu time    0.0030: real time    0.0034
    --------------------------------------------
      LOOP:  cpu time   20.1379: real time   20.1459

 eigenvalue-minimisations  : 11136
 total energy-change (2. order) : 0.2141314E-07  (-0.1887105E-07)
 number of electron     240.0000004 magnetization      -0.0000000
 augmentation part       61.9673117 magnetization      -0.0000000

 Free energy of the ion-electron system (eV)
  ---------------------------------------------------
  alpha Z        PSCENC =       759.24259796
  Ewald energy   TEWEN  =    -12805.58686228
  -Hartree energ DENC   =     -8235.05536960
  -exchange      EXHF   =         0.00000000
  -V(xc)+E(xc)   XCENC  =      1119.85958769
  PAW double counting   =     18030.88073345   -18154.22110463
  entropy T*S    EENTRO =        -0.00000000
  eigenvalues    EBANDS =     -3230.76623109
  atomic energy  EATOM  =     22302.35321627
  Solvation  Ediel_sol  =         0.00000000
  ---------------------------------------------------
  free energy    TOTEN  =      -213.29343223 eV

  energy without entropy =     -213.29343223  energy(sigma->0) =     -213.29343223


--------------------------------------------------------------------------------------------------------




 average (electrostatic) potential at core
  the test charge radii are     1.0397  0.7215  0.7167
  (the norm of the test charge is              1.0000)
       1 -59.2424       2 -58.6910       3 -58.7859       4 -58.7863       5 -58.7601
       6 -58.7597       7 -58.6908       8 -59.2428       9 -73.9637      10 -73.9639
      11 -73.9644      12 -73.9633      13 -74.3649      14 -74.0494      15 -74.0559
      16 -74.3644      17 -79.5822      18 -78.3595      19 -78.3476      20 -79.5479
      21 -79.5844      22 -79.5518      23 -79.5533      24 -78.3441      25 -79.5466
      26 -79.5821      27 -78.3556      28 -79.5865      29 -78.7536      30 -78.5957
      31 -78.6287      32 -78.7540
 
 
 
 E-fermi :  -1.0032     XC(G=0):  -8.9870     alpha+bet : -7.6616


 spin component 1

 k-point     1 :       0.1250    0.1250    0.1250
  band No.  band energies     occupation 
      1     -35.2760      1.00000
      2     -35.2751      1.00000
      3     -35.2691      1.00000
      4     -35.2690      1.00000
      5     -35.0594      1.00000
      6     -35.0592      1.00000
      7     -34.8062      1.00000
      8     -34.8060      1.00000
      9     -34.7931      1.00000
     10     -34.7930      1.00000
     11     -34.6878      1.00000
     12     -34.6717      1.00000
     13     -34.6380      1.00000
     14     -34.6282      1.00000
     15     -34.6205      1.00000
     16     -34.6117      1.00000
     17     -34.5922      1.00000
     18     -34.5767      1.00000
     19     -34.5699      1.00000
     20     -34.5685      1.00000
     21     -34.5216      1.00000
     22     -34.5210      1.00000
     23     -34.5047      1.00000
     24     -34.5042      1.00000
     25     -23.5474      1.00000
     26     -23.5358      1.00000
     27     -23.3495      1.00000
     28     -23.3374      1.00000
     29     -22.9884      1.00000
     30     -22.9875      1.00000
     31     -22.9645      1.00000
     32     -22.9633      1.00000
     33     -22.4428      1.00000
     34     -22.4371      1.00000
     35     -22.3170      1.00000
     36     -22.2918      1.00000
     37     -22.0495      1.00000
     38     -22.0254      1.00000
     39     -21.9542      1.00000
     40     -21.9328      1.00000
     41     -16.8055      1.00000
     42     -16.7996      1.00000
     43     -16.6007      1.00000
     44     -16.5801      1.00000
     45     -16.4711      1.00000
     46     -16.4028      1.00000
     47     -16.3625      1.00000
     48     -16.3139      1.00000
     49      -7.1350      1.00000
     50      -7.1202      1.00000
     51      -6.9726      1.00000
     52      -6.9537      1.00000
     53      -6.0945      1.00000
     54      -6.0869      1.00000
     55      -5.8860      1.00000
     56      -5.8669      1.00000
     57      -5.7472      1.00000
     58      -5.7375      1.00000
     59      -5.6922      1.00000
     60      -5.6828      1.00000
     61      -5.6376      1.00000
     62      -5.5999      1.00000
     63      -5.5618      1.00000
     64      -5.5275      1.00000
     65      -5.4667      1.00000
     66      -5.4464      1.00000
     67      -5.3079      1.00000
     68      -5.3038      1.00000
     69      -5.2702      1.00000
     70      -5.2543      1.00000
     71      -4.6368      1.00000
     72      -4.6215      1.00000
     73      -4.5405      1.00000
     74      -4.5049      1.00000
     75      -4.4678      1.00000
     76      -4.4149      1.00000
     77      -4.3665      1.00000
     78      -4.3305      1.00000
     79      -4.1866      1.00000
     80      -4.1677      1.00000
     81      -4.0756      1.00000
     82      -4.0323      1.00000
     83      -3.9665      1.00000
     84      -3.9208      1.00000
     85      -3.7852      1.00000
     86      -3.7573      1.00000
     87      -3.7208      1.00000
     88      -3.6466      1.00000
     89      -3.6168      1.00000
     90      -3.6056      1.00000
     91      -3.4743      1.00000
     92      -3.4454      1.00000
     93      -3.3675      1.00000
     94      -3.3222      1.00000
     95      -3.2426      1.00000
     96      -3.1671      1.00000
     97      -3.0809      1.00000
     98      -3.0474      1.00000
     99      -2.9865      1.00000
    100      -2.9073      1.00000
    101      -2.8348      1.00000
    102      -2.7961      1.00000
    103      -2.7283      1.00000
    104      -2.6843      1.00000
    105      -2.4705      1.00000
    106      -2.4033      1.00000
    107      -2.3533      1.00000
    108      -2.3310      1.00000
    109      -2.2489      1.00000
    110      -2.1988      1.00000
    111      -2.1562      1.00000
    112      -2.0789      1.00000
    113      -2.0675      1.00000
    114      -2.0203      1.00000
    115      -1.3674      1.00000
    116      -1.3494      1.00000
    117      -1.1957      1.00000
    118      -1.1730      1.00000
    119      -1.1036      1.00000
    120      -1.0652      1.00000
    121       1.9626      0.00000
    122       1.9899      0.00000
    123       2.0032      0.00000
    124       2.0246      0.00000
    125       2.0642      0.00000
    126       2.0871      0.00000
    127       2.7557      0.00000
    128       2.7811      0.00000
    129       2.9369      0.00000
    130       2.9523      0.00000
    131       2.9889      0.00000
    132       3.0259      0.00000
    133       3.0717      0.00000
    134       3.1013      0.00000
    135       3.1959      0.00000
    136       3.2340      0.00000
    137       3.2535      0.00000
    138       3.3084      0.00000
    139       3.4220      0.00000
    140       3.4628      0.00000
    141       3.5274      0.00000
    142       3.5653      0.00000
    143       3.6636      0.00000
    144       3.9502      0.00000
    145       3.9908      0.00000
    146       4.0037      0.00000
    147       4.0761      0.00000
    148       4.0924      0.00000
    149       4.1277      0.00000
    150       4.1520      0.00000
    151       4.1853      0.00000
    152       4.3611      0.00000
    153       4.7930      0.00000
    154       4.9284      0.00000
    155       5.2953      0.00000
    156       5.9050      0.00000
    157       6.0210      0.00000
    158       6.3383      0.00000
    159       6.5632      0.00000
    160       6.7187      0.00000

 k-point     2 :       0.3750    0.1250    0.1250
  band No.  band energies     occupation 
      1     -35.2760      1.00000
      2     -35.2709      1.00000
      3     -35.2688      1.00000
      4     -35.2645      1.00000
      5     -35.0594      1.00000
      6     -35.0592      1.00000
      7     -34.8115      1.00000
      8     -34.8060      1.00000
      9     -34.7984      1.00000
     10     -34.7931      1.00000
     11     -34.6876      1.00000
     12     -34.6715      1.00000
     13     -34.6354      1.00000
     14     -34.6221      1.00000
     15     -34.6179      1.00000
     16     -34.6043      1.00000
     17     -34.5911      1.00000
     18     -34.5754      1.00000
     19     -34.5705      1.00000
     20     -34.5688      1.00000
     21     -34.5288      1.00000
     22     -34.5283      1.00000
     23     -34.5092      1.00000
     24     -34.5068      1.00000
     25     -23.5060      1.00000
     26     -23.4802      1.00000
     27     -23.2803      1.00000
     28     -23.2581      1.00000
     29     -23.1210      1.00000
     30     -23.0953      1.00000
     31     -22.9865      1.00000
     32     -22.9637      1.00000
     33     -22.4397      1.00000
     34     -22.4365      1.00000
     35     -22.3146      1.00000
     36     -22.2895      1.00000
     37     -22.0460      1.00000
     38     -22.0221      1.00000
     39     -21.9525      1.00000
     40     -21.9314      1.00000
     41     -16.8088      1.00000
     42     -16.8028      1.00000
     43     -16.6053      1.00000
     44     -16.5844      1.00000
     45     -16.4809      1.00000
     46     -16.4071      1.00000
     47     -16.3671      1.00000
     48     -16.3169      1.00000
     49      -7.0968      1.00000
     50      -7.0158      1.00000
     51      -6.6841      1.00000
     52      -6.6437      1.00000
     53      -6.1267      1.00000
     54      -6.1167      1.00000
     55      -6.0819      1.00000
     56      -6.0720      1.00000
     57      -5.8749      1.00000
     58      -5.8535      1.00000
     59      -5.7271      1.00000
     60      -5.7038      1.00000
     61      -5.5922      1.00000
     62      -5.5814      1.00000
     63      -5.4243      1.00000
     64      -5.4091      1.00000
     65      -5.2940      1.00000
     66      -5.2775      1.00000
     67      -5.2513      1.00000
     68      -5.2400      1.00000
     69      -5.1533      1.00000
     70      -5.0532      1.00000
     71      -4.8107      1.00000
     72      -4.7771      1.00000
     73      -4.7531      1.00000
     74      -4.7227      1.00000
     75      -4.5016      1.00000
     76      -4.4603      1.00000
     77      -4.4267      1.00000
     78      -4.3985      1.00000
     79      -4.1494      1.00000
     80      -4.1389      1.00000
     81      -4.0671      1.00000
     82      -4.0425      1.00000
     83      -3.9756      1.00000
     84      -3.9028      1.00000
     85      -3.8228      1.00000
     86      -3.7757      1.00000
     87      -3.7136      1.00000
     88      -3.6729      1.00000
     89      -3.5802      1.00000
     90      -3.5740      1.00000
     91      -3.5157      1.00000
     92      -3.4964      1.00000
     93      -3.3729      1.00000
     94      -3.3520      1.00000
     95      -3.2842      1.00000
     96      -3.1707      1.00000
     97      -3.1454      1.00000
     98      -3.0738      1.00000
     99      -3.0141      1.00000
    100      -2.9151      1.00000
    101      -2.8860      1.00000
    102      -2.8540      1.00000
    103      -2.8090      1.00000
    104      -2.7085      1.00000
    105      -2.5566      1.00000
    106      -2.5096      1.00000
    107      -2.3709      1.00000
    108      -2.3352      1.00000
    109      -2.2514      1.00000
    110      -2.2231      1.00000
    111      -2.1832      1.00000
    112      -2.0930      1.00000
    113      -1.9701      1.00000
    114      -1.8747      1.00000
    115      -1.3663      1.00000
    116      -1.3516      1.00000
    117      -1.2515      1.00000
    118      -1.2262      1.00000
    119      -1.1463      1.00000
    120      -1.0667      1.00000
    121       2.0060      0.00000
    122       2.0608      0.00000
    123       2.1853      0.00000
    124       2.2197      0.00000
    125       2.2396      0.00000
    126       2.2764      0.00000
    127       2.6222      0.00000
    128       2.6485      0.00000
    129       2.7416      0.00000
    130       2.7757      0.00000
    131       2.9485      0.00000
    132       3.0343      0.00000
    133       3.1267      0.00000
    134       3.1637      0.00000
    135       3.2297      0.00000
    136       3.2529      0.00000
    137       3.3703      0.00000
    138       3.4470      0.00000
    139       3.5012      0.00000
    140       3.5576      0.00000
    141       3.6183      0.00000
    142       3.7110      0.00000
    143       3.8592      0.00000
    144       3.8836      0.00000
    145       3.9241      0.00000
    146       3.9525      0.00000
    147       4.0257      0.00000
    148       4.0590      0.00000
    149       4.1160      0.00000
    150       4.1593      0.00000
    151       4.2815      0.00000
    152       4.4727      0.00000
    153       4.8599      0.00000
    154       5.0772      0.00000
    155       5.5608      0.00000
    156       5.6940      0.00000
    157       5.9093      0.00000
    158       6.2548      0.00000
    159       6.5087      0.00000
    160       6.6580      0.00000

 k-point     3 :      -0.3750    0.1250    0.1250
  band No.  band energies     occupation 
      1     -35.2760      1.00000
      2     -35.2709      1.00000
      3     -35.2688      1.00000
      4     -35.2645      1.00000
      5     -35.0594      1.00000
      6     -35.0592      1.00000
      7     -34.8115      1.00000
      8     -34.8060      1.00000
      9     -34.7984      1.00000
     10     -34.7931      1.00000
     11     -34.6876      1.00000
     12     -34.6715      1.00000
     13     -34.6354      1.00000
     14     -34.6221      1.00000
     15     -34.6179      1.00000
     16     -34.6043      1.00000
     17     -34.5911      1.00000
     18     -34.5753      1.00000
     19     -34.5705      1.00000
     20     -34.5688      1.00000
     21     -34.5288      1.00000
     22     -34.5283      1.00000
     23     -34.5092      1.00000
     24     -34.5068      1.00000
     25     -23.5060      1.00000
     26     -23.4801      1.00000
     27     -23.2804      1.00000
     28     -23.2580      1.00000
     29     -23.1210      1.00000
     30     -23.0954      1.00000
     31     -22.9864      1.00000
     32     -22.9638      1.00000
     33     -22.4394      1.00000
     34     -22.4367      1.00000
     35     -22.3149      1.00000
     36     -22.2895      1.00000
     37     -22.0458      1.00000
     38     -22.0223      1.00000
     39     -21.9525      1.00000
     40     -21.9313      1.00000
     41     -16.8087      1.00000
     42     -16.8027      1.00000
     43     -16.6060      1.00000
     44     -16.5842      1.00000
     45     -16.4807      1.00000
     46     -16.4070      1.00000
     47     -16.3671      1.00000
     48     -16.3169      1.00000
     49      -7.0967      1.00000
     50      -7.0161      1.00000
     51      -6.6834      1.00000
     52      -6.6448      1.00000
     53      -6.1277      1.00000
     54      -6.1125      1.00000
     55      -6.0849      1.00000
     56      -6.0742      1.00000
     57      -5.8713      1.00000
     58      -5.8554      1.00000
     59      -5.7289      1.00000
     60      -5.7027      1.00000
     61      -5.5962      1.00000
     62      -5.5752      1.00000
     63      -5.4300      1.00000
     64      -5.4056      1.00000
     65      -5.2935      1.00000
     66      -5.2787      1.00000
     67      -5.2631      1.00000
     68      -5.2361      1.00000
     69      -5.1199      1.00000
     70      -5.0554      1.00000
     71      -4.8324      1.00000
     72      -4.7804      1.00000
     73      -4.7562      1.00000
     74      -4.7209      1.00000
     75      -4.4958      1.00000
     76      -4.4526      1.00000
     77      -4.4280      1.00000
     78      -4.4045      1.00000
     79      -4.1461      1.00000
     80      -4.1390      1.00000
     81      -4.0611      1.00000
     82      -4.0437      1.00000
     83      -3.9578      1.00000
     84      -3.8930      1.00000
     85      -3.8309      1.00000
     86      -3.7977      1.00000
     87      -3.7103      1.00000
     88      -3.6718      1.00000
     89      -3.6300      1.00000
     90      -3.5870      1.00000
     91      -3.5070      1.00000
     92      -3.4995      1.00000
     93      -3.4097      1.00000
     94      -3.3499      1.00000
     95      -3.2663      1.00000
     96      -3.1601      1.00000
     97      -3.1071      1.00000
     98      -3.0828      1.00000
     99      -3.0012      1.00000
    100      -2.8878      1.00000
    101      -2.8710      1.00000
    102      -2.8457      1.00000
    103      -2.8132      1.00000
    104      -2.7079      1.00000
    105      -2.5297      1.00000
    106      -2.5203      1.00000
    107      -2.3692      1.00000
    108      -2.3358      1.00000
    109      -2.2526      1.00000
    110      -2.2219      1.00000
    111      -2.1813      1.00000
    112      -2.0994      1.00000
    113      -1.9826      1.00000
    114      -1.9556      1.00000
    115      -1.3692      1.00000
    116      -1.3477      1.00000
    117      -1.2360      1.00000
    118      -1.2122      1.00000
    119      -1.1299      1.00000
    120      -1.0651      1.00000
    121       2.0051      0.00000
    122       2.0589      0.00000
    123       2.1901      0.00000
    124       2.2127      0.00000
    125       2.2314      0.00000
    126       2.2534      0.00000
    127       2.6162      0.00000
    128       2.6578      0.00000
    129       2.7368      0.00000
    130       2.8302      0.00000
    131       2.9474      0.00000
    132       3.0364      0.00000
    133       3.1179      0.00000
    134       3.1692      0.00000
    135       3.2198      0.00000
    136       3.2698      0.00000
    137       3.3558      0.00000
    138       3.4463      0.00000
    139       3.4976      0.00000
    140       3.5366      0.00000
    141       3.6438      0.00000
    142       3.7096      0.00000
    143       3.8336      0.00000
    144       3.8838      0.00000
    145       3.9332      0.00000
    146       3.9598      0.00000
    147       4.0191      0.00000
    148       4.0463      0.00000
    149       4.1163      0.00000
    150       4.1701      0.00000
    151       4.2811      0.00000
    152       4.4992      0.00000
    153       4.8378      0.00000
    154       5.0835      0.00000
    155       5.5343      0.00000
    156       5.7018      0.00000
    157       5.9177      0.00000
    158       6.2611      0.00000
    159       6.5130      0.00000
    160       6.6587      0.00000

 k-point     4 :      -0.1250    0.1250    0.1250
  band No.  band energies     occupation 
      1     -35.2760      1.00000
      2     -35.2751      1.00000
      3     -35.2691      1.00000
      4     -35.2690      1.00000
      5     -35.0594      1.00000
      6     -35.0592      1.00000
      7     -34.8062      1.00000
      8     -34.8060      1.00000
      9     -34.7931      1.00000
     10     -34.7930      1.00000
     11     -34.6878      1.00000
     12     -34.6717      1.00000
     13     -34.6380      1.00000
     14     -34.6282      1.00000
     15     -34.6206      1.00000
     16     -34.6118      1.00000
     17     -34.5922      1.00000
     18     -34.5767      1.00000
     19     -34.5699      1.00000
     20     -34.5685      1.00000
     21     -34.5216      1.00000
     22     -34.5210      1.00000
     23     -34.5047      1.00000
     24     -34.5042      1.00000
     25     -23.5475      1.00000
     26     -23.5357      1.00000
     27     -23.3495      1.00000
     28     -23.3374      1.00000
     29     -22.9885      1.00000
     30     -22.9873      1.00000
     31     -22.9644      1.00000
     32     -22.9634      1.00000
     33     -22.4425      1.00000
     34     -22.4371      1.00000
     35     -22.3174      1.00000
     36     -22.2918      1.00000
     37     -22.0492      1.00000
     38     -22.0256      1.00000
     39     -21.9542      1.00000
     40     -21.9328      1.00000
     41     -16.8054      1.00000
     42     -16.7994      1.00000
     43     -16.6014      1.00000
     44     -16.5799      1.00000
     45     -16.4710      1.00000
     46     -16.4026      1.00000
     47     -16.3625      1.00000
     48     -16.3139      1.00000
     49      -7.1351      1.00000
     50      -7.1202      1.00000
     51      -6.9727      1.00000
     52      -6.9537      1.00000
     53      -6.0964      1.00000
     54      -6.0879      1.00000
     55      -5.8865      1.00000
     56      -5.8658      1.00000
     57      -5.7487      1.00000
     58      -5.7348      1.00000
     59      -5.6963      1.00000
     60      -5.6800      1.00000
     61      -5.6338      1.00000
     62      -5.6010      1.00000
     63      -5.5630      1.00000
     64      -5.5273      1.00000
     65      -5.4628      1.00000
     66      -5.4485      1.00000
     67      -5.3066      1.00000
     68      -5.3014      1.00000
     69      -5.2672      1.00000
     70      -5.2559      1.00000
     71      -4.6406      1.00000
     72      -4.6283      1.00000
     73      -4.5408      1.00000
     74      -4.5024      1.00000
     75      -4.4688      1.00000
     76      -4.4158      1.00000
     77      -4.3650      1.00000
     78      -4.3304      1.00000
     79      -4.1875      1.00000
     80      -4.1640      1.00000
     81      -4.0416      1.00000
     82      -4.0216      1.00000
     83      -3.9653      1.00000
     84      -3.9167      1.00000
     85      -3.8074      1.00000
     86      -3.7716      1.00000
     87      -3.7317      1.00000
     88      -3.6990      1.00000
     89      -3.6321      1.00000
     90      -3.6162      1.00000
     91      -3.4747      1.00000
     92      -3.4200      1.00000
     93      -3.3647      1.00000
     94      -3.3082      1.00000
     95      -3.2564      1.00000
     96      -3.1394      1.00000
     97      -3.0823      1.00000
     98      -3.0366      1.00000
     99      -2.9908      1.00000
    100      -2.8927      1.00000
    101      -2.8230      1.00000
    102      -2.7834      1.00000
    103      -2.7260      1.00000
    104      -2.6839      1.00000
    105      -2.4124      1.00000
    106      -2.3728      1.00000
    107      -2.3468      1.00000
    108      -2.3332      1.00000
    109      -2.2765      1.00000
    110      -2.2210      1.00000
    111      -2.1676      1.00000
    112      -2.1317      1.00000
    113      -2.0829      1.00000
    114      -2.0424      1.00000
    115      -1.3679      1.00000
    116      -1.3492      1.00000
    117      -1.1937      1.00000
    118      -1.1755      1.00000
    119      -1.0761      1.00000
    120      -1.0559      1.00000
    121       1.9601      0.00000
    122       1.9870      0.00000
    123       1.9963      0.00000
    124       2.0167      0.00000
    125       2.0625      0.00000
    126       2.0900      0.00000
    127       2.7548      0.00000
    128       2.7820      0.00000
    129       2.9328      0.00000
    130       2.9563      0.00000
    131       3.0063      0.00000
    132       3.0343      0.00000
    133       3.0714      0.00000
    134       3.1079      0.00000
    135       3.1899      0.00000
    136       3.2516      0.00000
    137       3.2628      0.00000
    138       3.2967      0.00000
    139       3.4095      0.00000
    140       3.4625      0.00000
    141       3.5257      0.00000
    142       3.5616      0.00000
    143       3.6522      0.00000
    144       3.9429      0.00000
    145       3.9834      0.00000
    146       4.0200      0.00000
    147       4.0643      0.00000
    148       4.1043      0.00000
    149       4.1216      0.00000
    150       4.1561      0.00000
    151       4.1855      0.00000
    152       4.3689      0.00000
    153       4.7918      0.00000
    154       4.9236      0.00000
    155       5.2921      0.00000
    156       5.9028      0.00000
    157       6.0230      0.00000
    158       6.3386      0.00000
    159       6.5666      0.00000
    160       6.7204      0.00000

 k-point     5 :       0.1250    0.3750    0.1250
  band No.  band energies     occupation 
      1     -35.2751      1.00000
      2     -35.2716      1.00000
      3     -35.2688      1.00000
      4     -35.2646      1.00000
      5     -35.0594      1.00000
      6     -35.0592      1.00000
      7     -34.8113      1.00000
      8     -34.8062      1.00000
      9     -34.7985      1.00000
     10     -34.7930      1.00000
     11     -34.6876      1.00000
     12     -34.6715      1.00000
     13     -34.6355      1.00000
     14     -34.6220      1.00000
     15     -34.6182      1.00000
     16     -34.6040      1.00000
     17     -34.5910      1.00000
     18     -34.5754      1.00000
     19     -34.5704      1.00000
     20     -34.5689      1.00000
     21     -34.5286      1.00000
     22     -34.5281      1.00000
     23     -34.5091      1.00000
     24     -34.5072      1.00000
     25     -23.5047      1.00000
     26     -23.4800      1.00000
     27     -23.2813      1.00000
     28     -23.2583      1.00000
     29     -23.1217      1.00000
     30     -23.0954      1.00000
     31     -22.9859      1.00000
     32     -22.9639      1.00000
     33     -22.4392      1.00000
     34     -22.4371      1.00000
     35     -22.3145      1.00000
     36     -22.2896      1.00000
     37     -22.0434      1.00000
     38     -22.0263      1.00000
     39     -21.9488      1.00000
     40     -21.9335      1.00000
     41     -16.8087      1.00000
     42     -16.8029      1.00000
     43     -16.6030      1.00000
     44     -16.5886      1.00000
     45     -16.4713      1.00000
     46     -16.4239      1.00000
     47     -16.3536      1.00000
     48     -16.3213      1.00000
     49      -7.0925      1.00000
     50      -7.0137      1.00000
     51      -6.6852      1.00000
     52      -6.6451      1.00000
     53      -6.1289      1.00000
     54      -6.1139      1.00000
     55      -6.0801      1.00000
     56      -6.0730      1.00000
     57      -5.8683      1.00000
     58      -5.8562      1.00000
     59      -5.7282      1.00000
     60      -5.7037      1.00000
     61      -5.6046      1.00000
     62      -5.5725      1.00000
     63      -5.4286      1.00000
     64      -5.4078      1.00000
     65      -5.2969      1.00000
     66      -5.2808      1.00000
     67      -5.2627      1.00000
     68      -5.2380      1.00000
     69      -5.1191      1.00000
     70      -5.0537      1.00000
     71      -4.8360      1.00000
     72      -4.7806      1.00000
     73      -4.7590      1.00000
     74      -4.7235      1.00000
     75      -4.4841      1.00000
     76      -4.4498      1.00000
     77      -4.4246      1.00000
     78      -4.4087      1.00000
     79      -4.1659      1.00000
     80      -4.1389      1.00000
     81      -4.0729      1.00000
     82      -4.0532      1.00000
     83      -3.9436      1.00000
     84      -3.9154      1.00000
     85      -3.8073      1.00000
     86      -3.7717      1.00000
     87      -3.6806      1.00000
     88      -3.6451      1.00000
     89      -3.6266      1.00000
     90      -3.5889      1.00000
     91      -3.5207      1.00000
     92      -3.4961      1.00000
     93      -3.4024      1.00000
     94      -3.3711      1.00000
     95      -3.2435      1.00000
     96      -3.1811      1.00000
     97      -3.1288      1.00000
     98      -3.0931      1.00000
     99      -2.9915      1.00000
    100      -2.9263      1.00000
    101      -2.8973      1.00000
    102      -2.8306      1.00000
    103      -2.7971      1.00000
    104      -2.7306      1.00000
    105      -2.5293      1.00000
    106      -2.5048      1.00000
    107      -2.4623      1.00000
    108      -2.3581      1.00000
    109      -2.2440      1.00000
    110      -2.2014      1.00000
    111      -2.0945      1.00000
    112      -2.0428      1.00000
    113      -1.9781      1.00000
    114      -1.9654      1.00000
    115      -1.3727      1.00000
    116      -1.3499      1.00000
    117      -1.2352      1.00000
    118      -1.2095      1.00000
    119      -1.1282      1.00000
    120      -1.1026      1.00000
    121       2.0240      0.00000
    122       2.0537      0.00000
    123       2.1924      0.00000
    124       2.2147      0.00000
    125       2.2332      0.00000
    126       2.2488      0.00000
    127       2.6255      0.00000
    128       2.6648      0.00000
    129       2.7467      0.00000
    130       2.8344      0.00000
    131       2.9437      0.00000
    132       3.0019      0.00000
    133       3.1193      0.00000
    134       3.1639      0.00000
    135       3.2370      0.00000
    136       3.2684      0.00000
    137       3.3427      0.00000
    138       3.4465      0.00000
    139       3.4881      0.00000
    140       3.5441      0.00000
    141       3.6366      0.00000
    142       3.7276      0.00000
    143       3.8410      0.00000
    144       3.8946      0.00000
    145       3.9367      0.00000
    146       3.9628      0.00000
    147       4.0107      0.00000
    148       4.0504      0.00000
    149       4.1124      0.00000
    150       4.1526      0.00000
    151       4.2645      0.00000
    152       4.5559      0.00000
    153       4.8177      0.00000
    154       5.0596      0.00000
    155       5.5673      0.00000
    156       5.6543      0.00000
    157       5.9464      0.00000
    158       6.2478      0.00000
    159       6.5100      0.00000
    160       6.6591      0.00000

 k-point     6 :       0.3750    0.3750    0.1250
  band No.  band energies     occupation 
      1     -35.2714      1.00000
      2     -35.2706      1.00000
      3     -35.2645      1.00000
      4     -35.2644      1.00000
      5     -35.0595      1.00000
      6     -35.0593      1.00000
      7     -34.8115      1.00000
      8     -34.8113      1.00000
      9     -34.7985      1.00000
     10     -34.7984      1.00000
     11     -34.6873      1.00000
     12     -34.6713      1.00000
     13     -34.6301      1.00000
     14     -34.6186      1.00000
     15     -34.6114      1.00000
     16     -34.6004      1.00000
     17     -34.5900      1.00000
     18     -34.5743      1.00000
     19     -34.5709      1.00000
     20     -34.5692      1.00000
     21     -34.5328      1.00000
     22     -34.5325      1.00000
     23     -34.5148      1.00000
     24     -34.5144      1.00000
     25     -23.4052      1.00000
     26     -23.3996      1.00000
     27     -23.2475      1.00000
     28     -23.2361      1.00000
     29     -23.1374      1.00000
     30     -23.1290      1.00000
     31     -23.0786      1.00000
     32     -23.0748      1.00000
     33     -22.4370      1.00000
     34     -22.4358      1.00000
     35     -22.3124      1.00000
     36     -22.2872      1.00000
     37     -22.0398      1.00000
     38     -22.0231      1.00000
     39     -21.9470      1.00000
     40     -21.9320      1.00000
     41     -16.8119      1.00000
     42     -16.8066      1.00000
     43     -16.6075      1.00000
     44     -16.5928      1.00000
     45     -16.4805      1.00000
     46     -16.4283      1.00000
     47     -16.3583      1.00000
     48     -16.3247      1.00000
     49      -6.7351      1.00000
     50      -6.7242      1.00000
     51      -6.6257      1.00000
     52      -6.6138      1.00000
     53      -6.1432      1.00000
     54      -6.1305      1.00000
     55      -6.1099      1.00000
     56      -6.0920      1.00000
     57      -6.0683      1.00000
     58      -6.0674      1.00000
     59      -5.8631      1.00000
     60      -5.8442      1.00000
     61      -5.5205      1.00000
     62      -5.5025      1.00000
     63      -5.2227      1.00000
     64      -5.2064      1.00000
     65      -5.1829      1.00000
     66      -5.1476      1.00000
     67      -5.1186      1.00000
     68      -5.1043      1.00000
     69      -5.0817      1.00000
     70      -5.0186      1.00000
     71      -4.8667      1.00000
     72      -4.8178      1.00000
     73      -4.7400      1.00000
     74      -4.7230      1.00000
     75      -4.6874      1.00000
     76      -4.6735      1.00000
     77      -4.6378      1.00000
     78      -4.5910      1.00000
     79      -4.1919      1.00000
     80      -4.1757      1.00000
     81      -4.0560      1.00000
     82      -4.0031      1.00000
     83      -3.9318      1.00000
     84      -3.8957      1.00000
     85      -3.8285      1.00000
     86      -3.7778      1.00000
     87      -3.7188      1.00000
     88      -3.6579      1.00000
     89      -3.6426      1.00000
     90      -3.6165      1.00000
     91      -3.5588      1.00000
     92      -3.5397      1.00000
     93      -3.4725      1.00000
     94      -3.4252      1.00000
     95      -3.2941      1.00000
     96      -3.2658      1.00000
     97      -3.1559      1.00000
     98      -3.1431      1.00000
     99      -3.0354      1.00000
    100      -2.9467      1.00000
    101      -2.9029      1.00000
    102      -2.8580      1.00000
    103      -2.8226      1.00000
    104      -2.7821      1.00000
    105      -2.5606      1.00000
    106      -2.5278      1.00000
    107      -2.5028      1.00000
    108      -2.4895      1.00000
    109      -2.2553      1.00000
    110      -2.2168      1.00000
    111      -2.0094      1.00000
    112      -1.9928      1.00000
    113      -1.9533      1.00000
    114      -1.8782      1.00000
    115      -1.3335      1.00000
    116      -1.3109      1.00000
    117      -1.2644      1.00000
    118      -1.2447      1.00000
    119      -1.1649      1.00000
    120      -1.1363      1.00000
    121       2.2155      0.00000
    122       2.2356      0.00000
    123       2.2559      0.00000
    124       2.2712      0.00000
    125       2.3336      0.00000
    126       2.3713      0.00000
    127       2.6097      0.00000
    128       2.6794      0.00000
    129       2.7333      0.00000
    130       2.7444      0.00000
    131       2.7893      0.00000
    132       2.8415      0.00000
    133       3.0413      0.00000
    134       3.0836      0.00000
    135       3.3245      0.00000
    136       3.3799      0.00000
    137       3.4721      0.00000
    138       3.5350      0.00000
    139       3.6241      0.00000
    140       3.6523      0.00000
    141       3.7420      0.00000
    142       3.7866      0.00000
    143       3.8442      0.00000
    144       3.8818      0.00000
    145       3.9402      0.00000
    146       3.9936      0.00000
    147       4.0332      0.00000
    148       4.0644      0.00000
    149       4.1428      0.00000
    150       4.2379      0.00000
    151       4.5055      0.00000
    152       4.6318      0.00000
    153       4.7868      0.00000
    154       4.9495      0.00000
    155       5.4485      0.00000
    156       5.6981      0.00000
    157       5.8432      0.00000
    158       6.1481      0.00000
    159       6.4013      0.00000
    160       6.4749      0.00000

 k-point     7 :      -0.3750    0.3750    0.1250
  band No.  band energies     occupation 
      1     -35.2714      1.00000
      2     -35.2706      1.00000
      3     -35.2645      1.00000
      4     -35.2644      1.00000
      5     -35.0595      1.00000
      6     -35.0593      1.00000
      7     -34.8115      1.00000
      8     -34.8113      1.00000
      9     -34.7985      1.00000
     10     -34.7984      1.00000
     11     -34.6874      1.00000
     12     -34.6713      1.00000
     13     -34.6301      1.00000
     14     -34.6186      1.00000
     15     -34.6114      1.00000
     16     -34.6004      1.00000
     17     -34.5900      1.00000
     18     -34.5743      1.00000
     19     -34.5709      1.00000
     20     -34.5693      1.00000
     21     -34.5328      1.00000
     22     -34.5325      1.00000
     23     -34.5148      1.00000
     24     -34.5144      1.00000
     25     -23.4053      1.00000
     26     -23.3995      1.00000
     27     -23.2475      1.00000
     28     -23.2361      1.00000
     29     -23.1375      1.00000
     30     -23.1289      1.00000
     31     -23.0786      1.00000
     32     -23.0748      1.00000
     33     -22.4367      1.00000
     34     -22.4360      1.00000
     35     -22.3127      1.00000
     36     -22.2872      1.00000
     37     -22.0398      1.00000
     38     -22.0230      1.00000
     39     -21.9471      1.00000
     40     -21.9320      1.00000
     41     -16.8111      1.00000
     42     -16.8072      1.00000
     43     -16.6092      1.00000
     44     -16.5911      1.00000
     45     -16.4812      1.00000
     46     -16.4277      1.00000
     47     -16.3582      1.00000
     48     -16.3248      1.00000
     49      -6.7355      1.00000
     50      -6.7242      1.00000
     51      -6.6260      1.00000
     52      -6.6137      1.00000
     53      -6.1401      1.00000
     54      -6.1341      1.00000
     55      -6.1091      1.00000
     56      -6.0903      1.00000
     57      -6.0734      1.00000
     58      -6.0663      1.00000
     59      -5.8619      1.00000
     60      -5.8442      1.00000
     61      -5.5185      1.00000
     62      -5.5038      1.00000
     63      -5.2238      1.00000
     64      -5.2173      1.00000
     65      -5.1729      1.00000
     66      -5.1456      1.00000
     67      -5.1148      1.00000
     68      -5.0876      1.00000
     69      -5.0779      1.00000
     70      -5.0221      1.00000
     71      -4.8750      1.00000
     72      -4.8362      1.00000
     73      -4.7384      1.00000
     74      -4.7199      1.00000
     75      -4.6891      1.00000
     76      -4.6710      1.00000
     77      -4.6356      1.00000
     78      -4.5930      1.00000
     79      -4.1884      1.00000
     80      -4.1635      1.00000
     81      -4.0569      1.00000
     82      -4.0019      1.00000
     83      -3.9274      1.00000
     84      -3.9005      1.00000
     85      -3.8217      1.00000
     86      -3.7778      1.00000
     87      -3.7208      1.00000
     88      -3.6875      1.00000
     89      -3.6444      1.00000
     90      -3.6313      1.00000
     91      -3.5740      1.00000
     92      -3.5296      1.00000
     93      -3.4820      1.00000
     94      -3.4533      1.00000
     95      -3.2961      1.00000
     96      -3.2632      1.00000
     97      -3.1416      1.00000
     98      -3.1165      1.00000
     99      -3.0111      1.00000
    100      -2.9225      1.00000
    101      -2.9076      1.00000
    102      -2.8556      1.00000
    103      -2.8048      1.00000
    104      -2.7822      1.00000
    105      -2.5412      1.00000
    106      -2.5259      1.00000
    107      -2.5127      1.00000
    108      -2.4851      1.00000
    109      -2.2453      1.00000
    110      -2.2213      1.00000
    111      -2.0244      1.00000
    112      -1.9947      1.00000
    113      -1.9754      1.00000
    114      -1.9412      1.00000
    115      -1.3259      1.00000
    116      -1.3110      1.00000
    117      -1.2566      1.00000
    118      -1.2412      1.00000
    119      -1.1450      1.00000
    120      -1.1263      1.00000
    121       2.2098      0.00000
    122       2.2310      0.00000
    123       2.2427      0.00000
    124       2.2592      0.00000
    125       2.3316      0.00000
    126       2.3724      0.00000
    127       2.6137      0.00000
[...]
  0.000   0.000   0.000  -0.000   0.000   0.000  -0.000  -0.000  -0.000   0.000  -0.000   0.000   0.000   0.000   0.000   0.000
  0.000   0.000  -0.000  -0.000  -0.000  -0.000   0.000   0.000   0.000  -0.000   0.000  -0.000  -0.000  -0.000   0.000  -0.000
 -0.000   0.000   0.000   0.000  -0.000  -0.000  -0.000   0.000   0.000   0.000  -0.000   0.000   0.000  -0.000  -0.000   0.000
 -0.000   0.000  -0.000  -0.000  -0.000   0.000  -0.000   0.000  -0.000   0.000  -0.000   0.000  -0.000   0.000  -0.000   0.000
 -0.000   0.000  -0.000   0.000  -0.000   0.000   0.000   0.000   0.000   0.000  -0.000  -0.000   0.000  -0.000   0.000   0.000
 -0.000  -0.000  -0.000   0.000  -0.000  -0.000   0.000   0.000  -0.000   0.000   0.000  -0.000  -0.000   0.000  -0.000  -0.000
  0.000  -0.000   0.000   0.000   0.000   0.000  -0.000  -0.000  -0.000   0.000  -0.000   0.000   0.000   0.000  -0.000   0.000
  0.000   0.000  -0.000  -0.000  -0.000   0.000  -0.000  -0.000   0.000   0.000   0.000   0.000   0.000  -0.000   0.000  -0.000
  0.000   0.000  -0.000   0.000  -0.000   0.000  -0.000  -0.000   0.000   0.000   0.000   0.000   0.000  -0.000  -0.000  -0.000


------------------------ aborting loop because EDIFF is reached ----------------------------------------


 


 total charge     
 
# of ion       s       p       d       tot
------------------------------------------
    1        0.319   6.479   1.805   8.603
    2        0.318   6.451   1.720   8.489
    3        0.316   6.457   1.769   8.542
    4        0.316   6.457   1.769   8.542
    5        0.318   6.461   1.779   8.557
    6        0.318   6.461   1.779   8.558
    7        0.318   6.451   1.720   8.489
    8        0.319   6.479   1.805   8.603
    9        1.568   3.462   0.000   5.031
   10        1.568   3.462   0.000   5.030
   11        1.568   3.461   0.000   5.030
   12        1.568   3.462   0.000   5.030
   13        1.573   3.463   0.000   5.036
   14        1.569   3.469   0.000   5.038
   15        1.570   3.475   0.000   5.045
   16        1.573   3.463   0.000   5.036
   17        1.731   4.394   0.000   6.124
   18        1.728   4.369   0.000   6.097
   19        1.728   4.369   0.000   6.097
   20        1.731   4.391   0.000   6.122
   21        1.730   4.391   0.000   6.120
   22        1.730   4.388   0.000   6.118
   23        1.730   4.390   0.000   6.120
   24        1.728   4.369   0.000   6.097
   25        1.730   4.390   0.000   6.120
   26        1.730   4.392   0.000   6.122
   27        1.728   4.369   0.000   6.098
   28        1.730   4.392   0.000   6.122
   29        1.730   4.380   0.000   6.110
   30        1.729   4.379   0.000   6.108
   31        1.729   4.376   0.000   6.105
   32        1.730   4.380   0.000   6.110
--------------------------------------------------
tot         42.769 149.535  14.148 206.451
 


 magnetization (x)
 
# of ion       s       p       d       tot
------------------------------------------
    1        0.000   0.000   0.000   0.000
    2       -0.000  -0.000   0.000  -0.000
    3        0.000  -0.000   0.000   0.000
    4        0.000  -0.000   0.000   0.000
    5        0.000   0.000   0.000   0.000
    6        0.000  -0.000   0.000   0.000
    7       -0.000  -0.000   0.000   0.000
    8        0.000  -0.000   0.000   0.000
    9       -0.000  -0.000   0.000  -0.000
   10       -0.000  -0.000   0.000  -0.000
   11       -0.000   0.000   0.000  -0.000
   12       -0.000  -0.000   0.000  -0.000
   13       -0.000   0.000   0.000  -0.000
   14       -0.000  -0.000   0.000  -0.000
   15       -0.000  -0.000   0.000  -0.000
   16       -0.000  -0.000   0.000  -0.000
   17       -0.000  -0.000   0.000  -0.000
   18       -0.000   0.000   0.000   0.000
   19       -0.000  -0.000   0.000  -0.000
   20        0.000  -0.000   0.000   0.000
   21        0.000   0.000   0.000   0.000
   22       -0.000   0.000   0.000   0.000
   23       -0.000  -0.000   0.000  -0.000
   24       -0.000  -0.000   0.000  -0.000
   25        0.000  -0.000   0.000  -0.000
   26        0.000  -0.000   0.000   0.000
   27        0.000  -0.000   0.000  -0.000
   28        0.000  -0.000   0.000   0.000
   29       -0.000  -0.000   0.000  -0.000
   30       -0.000  -0.000   0.000  -0.000
   31       -0.000  -0.000   0.000  -0.000
   32       -0.000  -0.000   0.000  -0.000
--------------------------------------------------
tot         -0.000  -0.000   0.000  -0.000
 
    CHARGE:  cpu time    1.2268: real time    1.2247
    FORLOC:  cpu time    0.0100: real time    0.0097
    FORNL :  cpu time    6.9179: real time    6.9105
    STRESS:  cpu time   20.7578: real time   20.7256
    FORCOR:  cpu time    0.1300: real time    0.1296
    FORHAR:  cpu time    0.0210: real time    0.0213
    MIXING:  cpu time    0.0020: real time    0.0016
    OFIELD:  cpu time    0.0000: real time    0.0000

  FORCE on cell =-STRESS in cart. coord.  units (eV):
  Direction    XX          YY          ZZ          XY          YZ          ZX
  --------------------------------------------------------------------------------------
  Alpha Z   759.24260   759.24260   759.24260
  Ewald   -4280.31882 -4274.39483 -4250.92888    -0.13262    -6.29207     5.62563
  Hartree  2742.00958  2746.33225  2746.71046    -0.05920    -1.56516     2.33207
  E(xc)   -1232.32794 -1232.32424 -1232.60502     0.00002     0.02612    -0.00601
  Local   -2131.85062 -2142.10320 -2194.30532     0.19376     8.77094    -8.18181
  n-local  -969.16195  -969.12755  -964.51648    -0.00041    -0.46951     0.30443
  augment   753.51060   753.51447   763.56503    -0.00357    -0.56034     0.17800
  Kinetic  4358.92121  4358.90292  4372.89630     0.00191     0.08924    -0.25105
  Fock        0.00000     0.00000     0.00000     0.00000     0.00000     0.00000
  -------------------------------------------------------------------------------------
  Total       0.02467     0.04240     0.05870    -0.00011    -0.00078     0.00126
  in kB       0.08570     0.14730     0.20391    -0.00039    -0.00273     0.00439
  external pressure =        0.15 kB  Pullay stress =        0.00 kB


 VOLUME and BASIS-vectors are now :
 -----------------------------------------------------------------------------
  energy-cutoff  :      700.00
  volume of cell :      461.20
      direct lattice vectors                 reciprocal lattice vectors
     7.756513959 -0.000086418  0.001998770     0.128923905  0.000001465 -0.000033330
    -0.000087325  7.756776952  0.003069186     0.000001450  0.128919545 -0.000051829
     0.001981713  0.003081740  7.665592939    -0.000033617 -0.000051618  0.130453082

  length of vectors
     7.756514217  7.756777560  7.665593814     0.128923909  0.128919556  0.130453097


 FORCES acting on ions
    electron-ion (+dipol)            ewald-force                    non-local-force                 convergence-correction
 -----------------------------------------------------------------------------------------------
   0.149E+02 -.166E+01 0.201E+02   -.147E+02 0.165E+01 -.201E+02   -.143E+00 0.171E-01 0.428E-02   0.181E-02 0.397E-04 0.904E-03
   0.931E+01 0.908E+01 -.225E+02   -.103E+02 -.101E+02 0.234E+02   0.103E+01 0.991E+00 -.878E+00   0.863E-03 0.478E-03 -.155E-02
   0.106E+02 -.497E+00 0.331E+02   -.115E+02 0.478E+00 -.340E+02   0.941E+00 0.196E-01 0.915E+00   0.115E-02 -.815E-04 0.161E-02
   0.143E+02 -.102E+02 -.330E+02   -.141E+02 0.111E+02 0.339E+02   -.170E+00 -.917E+00 -.914E+00   0.967E-03 -.870E-03 -.161E-02
   -.137E+02 -.125E+02 0.689E+01   0.136E+02 0.134E+02 -.576E+01   0.150E+00 -.942E+00 -.113E+01   -.115E-02 -.331E-03 -.277E-03
   -.124E+02 -.828E+00 -.672E+01   0.133E+02 0.819E+00 0.559E+01   -.965E+00 0.868E-02 0.113E+01   -.967E-03 -.536E-03 0.258E-03
   -.960E+01 0.924E+01 0.224E+02   0.106E+02 -.102E+02 -.233E+02   -.102E+01 0.100E+01 0.881E+00   -.872E-03 0.298E-03 0.166E-02
   -.155E+02 -.742E+00 -.201E+02   0.154E+02 0.720E+00 0.201E+02   0.157E+00 0.235E-01 -.665E-02   -.162E-02 0.421E-03 -.104E-02
   -.204E+02 -.613E+01 -.123E+02   0.219E+02 0.711E+01 0.131E+02   -.154E+01 -.982E+00 -.832E+00   -.574E-03 -.153E-04 -.357E-03
   0.214E+02 -.595E+01 -.289E+01   -.230E+02 0.694E+01 0.461E+01   0.164E+01 -.991E+00 -.171E+01   0.596E-03 0.187E-03 0.686E-03
   -.197E+01 -.214E+02 0.301E+01   0.286E+01 0.231E+02 -.472E+01   -.897E+00 -.165E+01 0.171E+01   0.747E-03 -.742E-03 -.649E-03
   0.209E+01 -.205E+02 0.126E+02   -.299E+01 0.220E+02 -.134E+02   0.901E+00 -.155E+01 0.837E+00   -.751E-03 -.667E-03 0.377E-03
   -.111E+01 -.860E+01 0.679E+02   0.200E+01 0.976E+01 -.740E+02   -.885E+00 -.117E+01 0.610E+01   0.842E-03 0.156E-03 0.158E-02
   -.663E+01 0.107E+02 -.612E-01   0.812E+01 -.122E+02 0.556E-01   -.150E+01 0.158E+01 0.570E-02   0.750E-03 -.189E-03 -.257E-03
   0.534E+01 0.909E+01 -.517E-01   -.679E+01 -.106E+02 0.513E-01   0.145E+01 0.152E+01 0.468E-03   -.776E-03 -.328E-03 0.358E-04
   0.284E+01 -.594E+01 -.679E+02   -.381E+01 0.702E+01 0.740E+02   0.970E+00 -.108E+01 -.610E+01   -.806E-03 0.261E-03 -.183E-02
   -.227E+02 0.946E+01 0.332E+01   0.248E+02 -.119E+02 -.241E+01   -.205E+01 0.246E+01 -.912E+00   -.790E-03 -.330E-03 0.187E-03
   0.106E+02 -.398E+01 -.107E+02   -.105E+02 0.510E+01 0.114E+02   -.157E+00 -.112E+01 -.756E+00   0.592E-03 0.185E-03 -.389E-03
   -.984E+01 -.372E+01 0.541E+01   0.960E+01 0.486E+01 -.371E+01   0.241E+00 -.114E+01 -.170E+01   -.704E-03 0.404E-03 0.108E-02
   0.235E+02 0.952E+01 0.982E+01   -.255E+02 -.119E+02 -.148E+02   0.208E+01 0.236E+01 0.502E+01   0.643E-03 -.167E-03 -.730E-03
   0.229E+02 0.105E+02 0.391E+01   -.250E+02 -.130E+02 -.305E+01   0.217E+01 0.244E+01 -.858E+00   0.374E-03 -.296E-03 0.224E-03
   -.236E+02 0.105E+02 0.144E+02   0.258E+02 -.128E+02 -.196E+02   -.218E+01 0.231E+01 0.517E+01   -.229E-03 -.879E-04 -.709E-03
   -.603E+01 -.234E+02 -.865E+01   0.823E+01 0.257E+02 0.136E+02   -.220E+01 -.220E+01 -.491E+01   0.104E-02 -.573E-03 0.794E-03
   0.114E+01 0.100E+02 -.565E+01   -.101E+00 -.974E+01 0.395E+01   -.104E+01 -.265E+00 0.170E+01   0.957E-03 0.871E-03 -.104E-02
   -.347E+01 0.239E+02 -.157E+02   0.552E+01 -.259E+02 0.211E+02   -.204E+01 0.203E+01 -.532E+01   0.110E-02 0.592E-03 0.700E-03
   0.379E+01 0.232E+02 -.495E+01   -.592E+01 -.253E+02 0.418E+01   0.213E+01 0.206E+01 0.777E+00   -.107E-02 0.717E-03 -.169E-03
   -.102E+01 0.107E+02 0.102E+02   -.123E-01 -.106E+02 -.110E+02   0.104E+01 -.185E+00 0.748E+00   -.971E-03 0.660E-03 0.408E-03
   0.647E+01 -.226E+02 -.247E+01   -.878E+01 0.247E+02 0.150E+01   0.231E+01 -.212E+01 0.975E+00   -.958E-03 -.613E-03 -.252E-03
   -.219E+01 -.539E+01 -.237E+02   0.361E+01 0.690E+01 0.226E+02   -.142E+01 -.151E+01 0.112E+01   0.118E-02 0.440E-03 -.869E-03
   -.181E+01 0.642E+01 0.207E+00   0.354E+01 -.825E+01 -.210E+00   -.173E+01 0.182E+01 0.227E-02   0.102E-02 -.450E-03 0.228E-03
   0.280E+01 0.669E+01 0.172E+00   -.449E+01 -.846E+01 -.165E+00   0.170E+01 0.177E+01 -.700E-02   -.994E-03 -.549E-03 -.815E-05
   -.916E-01 -.786E+01 0.238E+02   -.127E+01 0.944E+01 -.227E+02   0.136E+01 -.158E+01 -.111E+01   -.116E-02 0.599E-03 0.104E-02
 -----------------------------------------------------------------------------------------------
   -.320E+00 -.302E+01 0.362E-01   -.236E-12 0.995E-13 -.149E-12   0.323E+00 0.302E+01 -.351E-01   0.232E-03 -.517E-03 0.459E-04
 
 
 POSITION                                       TOTAL-FORCE (eV/Angst)
 -----------------------------------------------------------------------------------
      0.01086      7.75920      7.52099         0.004571      0.000999      0.000136
      7.67436      7.67599      3.85904         0.000657      0.001831     -0.004560
      7.64083      3.88088      7.58185        -0.001176     -0.000040      0.000930
      0.00288      3.99708      3.92133        -0.001109     -0.001379     -0.000998
      3.87592      0.11770      0.09833         0.000576     -0.000068     -0.000818
      3.99669      7.75656      3.73952         0.000957     -0.000340      0.000617
      3.96327      3.79999      7.64685        -0.000232      0.002423      0.003947
      3.87034      3.87938      3.98283        -0.004544      0.001756      0.002688
      5.81158      0.01143      3.83613        -0.002480     -0.000288     -0.000913
      5.82610      3.89008      0.03140         0.002812      0.000124      0.004256
      0.00664      5.81025      3.80677        -0.002027     -0.002117     -0.004671
      3.87447      1.93607      7.66519         0.001712     -0.002396      0.000775
      0.01562      0.02427      5.77411         0.002259     -0.002336     -0.003336
      0.01324      3.86386      5.75051        -0.003790      0.001741     -0.000216
      3.86961      7.74433      1.92036         0.001259     -0.000325     -0.000009
      3.86307      3.90054      5.72674         0.000493      0.001404      0.000421
      1.92896      7.72147      7.66870         0.001327     -0.002518     -0.002323
      1.95313      0.02487      3.84249         0.000398      0.002391      0.000086
      1.92657      3.90382      0.04824        -0.000536      0.002312      0.001333
      1.95452      3.84355      3.76401        -0.000819     -0.002785      0.004327
      5.83955      7.71940      7.66817         0.000502     -0.000733     -0.001325
      5.79517      3.84209      3.75462        -0.000575     -0.000775     -0.000708
      0.03427      1.91919      0.06985         0.001889      0.000610     -0.004736
      0.01793      1.95332      3.78713        -0.002348      0.000439     -0.000838
      0.02810      5.83520      0.08563         0.000424     -0.000431      0.001378
      3.84923      1.95541      3.83936        -0.000780     -0.000108      0.002776
      3.86335      5.83431      7.66015         0.001920      0.000837      0.000168
      3.84233      5.80146      3.83407        -0.002734      0.001025      0.001346
      0.03085      0.03344      1.87308         0.003792      0.004789     -0.002799
      0.02964      3.84343      1.91806         0.002189     -0.005441     -0.000065
      3.84923      7.72272      5.75348         0.000492     -0.002799      0.000088
      3.85206      3.91526      1.96224        -0.005080      0.002196      0.003042
 -----------------------------------------------------------------------------------
    total drift:                                0.002775      0.004532      0.001224


--------------------------------------------------------------------------------------------------------



  FREE ENERGIE OF THE ION-ELECTRON SYSTEM (eV)
  ---------------------------------------------------
  free  energy   TOTEN  =      -213.29343223 eV

  energy  without entropy=     -213.29343223  energy(sigma->0) =     -213.29343223
 


--------------------------------------------------------------------------------------------------------


    POTLOK:  cpu time    0.9789: real time    0.9767


--------------------------------------------------------------------------------------------------------


 stress matrix after NEB project (eV)
      0.02467     -0.00011      0.00126
     -0.00011      0.04240     -0.00078
      0.00127     -0.00078      0.05870
  FORCES: max atom, RMS     0.006719    0.003821
  FORCE total and by dimension    0.021617    0.005441
  Stress total and by dimension    0.076528    0.058699
 Quasi-Newton relaxation of ions (Broydens 2nd method)
  g(Force)  = 0.225E-04   g(Stress)= 0.883E-05

 Reset! Starting new Quasi-Newton update for ions 


--------------------------------------------------------------------------------------------------------


  
 reached required accuracy - stopping structural energy minimisation
 writing wavefunctions
     LOOP+:  cpu time  111.7530: real time  112.7289
    4ORBIT:  cpu time    0.0000: real time    0.0000
 


 total charge     
 
# of ion       s       p       d       tot
------------------------------------------
    1        0.319   6.479   1.805   8.603
    2        0.318   6.451   1.720   8.489
    3        0.316   6.457   1.769   8.542
    4        0.316   6.457   1.769   8.542
    5        0.318   6.461   1.779   8.557
    6        0.318   6.461   1.779   8.558
    7        0.318   6.451   1.720   8.489
    8        0.319   6.479   1.805   8.603
    9        1.568   3.462   0.000   5.031
   10        1.568   3.462   0.000   5.030
   11        1.568   3.461   0.000   5.030
   12        1.568   3.462   0.000   5.030
   13        1.573   3.463   0.000   5.036
   14        1.569   3.469   0.000   5.038
   15        1.570   3.475   0.000   5.045
   16        1.573   3.463   0.000   5.036
   17        1.731   4.394   0.000   6.124
   18        1.728   4.369   0.000   6.097
   19        1.728   4.369   0.000   6.097
   20        1.731   4.391   0.000   6.122
   21        1.730   4.391   0.000   6.120
   22        1.730   4.388   0.000   6.118
   23        1.730   4.390   0.000   6.120
   24        1.728   4.369   0.000   6.097
   25        1.730   4.390   0.000   6.120
   26        1.730   4.392   0.000   6.122
   27        1.728   4.369   0.000   6.098
   28        1.730   4.392   0.000   6.122
   29        1.730   4.380   0.000   6.110
   30        1.729   4.379   0.000   6.108
   31        1.729   4.376   0.000   6.105
   32        1.730   4.380   0.000   6.110
--------------------------------------------------
tot         42.769 149.535  14.148 206.451
 


 magnetization (x)
 
# of ion       s       p       d       tot
------------------------------------------
    1        0.000   0.000   0.000   0.000
    2       -0.000  -0.000   0.000  -0.000
    3        0.000  -0.000   0.000   0.000
    4        0.000  -0.000   0.000   0.000
    5        0.000   0.000   0.000   0.000
    6        0.000  -0.000   0.000   0.000
    7       -0.000  -0.000   0.000   0.000
    8        0.000  -0.000   0.000   0.000
    9       -0.000  -0.000   0.000  -0.000
   10       -0.000  -0.000   0.000  -0.000
   11       -0.000   0.000   0.000  -0.000
   12       -0.000  -0.000   0.000  -0.000
   13       -0.000   0.000   0.000  -0.000
   14       -0.000  -0.000   0.000  -0.000
   15       -0.000  -0.000   0.000  -0.000
   16       -0.000  -0.000   0.000  -0.000
   17       -0.000  -0.000   0.000  -0.000
   18       -0.000   0.000   0.000   0.000
   19       -0.000  -0.000   0.000  -0.000
   20        0.000  -0.000   0.000   0.000
   21        0.000   0.000   0.000   0.000
   22       -0.000   0.000   0.000   0.000
   23       -0.000  -0.000   0.000  -0.000
   24       -0.000  -0.000   0.000  -0.000
   25        0.000  -0.000   0.000  -0.000
   26        0.000  -0.000   0.000   0.000
   27        0.000  -0.000   0.000  -0.000
   28        0.000  -0.000   0.000   0.000
   29       -0.000  -0.000   0.000  -0.000
   30       -0.000  -0.000   0.000  -0.000
   31       -0.000  -0.000   0.000  -0.000
   32       -0.000  -0.000   0.000  -0.000
--------------------------------------------------
tot         -0.000  -0.000   0.000  -0.000
 

 total amount of memory used by VASP MPI-rank0   106882. kBytes
=======================================================================

   base      :      30000. kBytes
   nonlr-proj:       8597. kBytes
   fftplans  :       8424. kBytes
   grid      :       8783. kBytes
   one-center:        124. kBytes
   wavefun   :      50954. kBytes
 
  
  
 General timing and accounting informations for this job:
 ========================================================
  
                  Total CPU time used (sec):      161.295
                            User time (sec):      151.139
                          System time (sec):       10.156
                         Elapsed time (sec):      174.697
  
                   Maximum memory used (kb):      220212.
                   Average memory used (kb):           0.
  
                          Minor page faults:        87327
                          Major page faults:            2
                 Voluntary context switches:        62834
