 vasp.5.4.4.18Apr17-6-g9f103f2a35 (build Jul 16 2019 12:12:28) complex          
  
 executed on             LinuxIFC date 2020.01.07  00:56:30
 running on   96 total cores
 distrk:  each k-point on   96 cores,    1 groups
 distr:  one band on NCORES_PER_BAND=   8 cores,   12 groups


--------------------------------------------------------------------------------------------------------


 INCAR:
 POTCAR:    PAW_PBE Li_sv 10Sep2004               
 POTCAR:    PAW_PBE Ti_pv 07Sep2000               
 POTCAR:    PAW_PBE O 08Apr2002                   
 POTCAR:    PAW_PBE F 08Apr2002                   
 POTCAR:    PAW_PBE Li_sv 10Sep2004               
   VRHFIN =Li: 1s2s2p                                                           
   LEXCH  = PE                                                                  
   EATOM  =   202.7858 eV,   14.9043 Ry                                         
                                                                                
   TITEL  = PAW_PBE Li_sv 10Sep2004                                             
   LULTRA =        F    use ultrasoft PP ?                                      
   IUNSCR =        0    unscreen: 0-lin 1-nonlin 2-no                           
   RPACOR =    0.000    partial core radius                                     
   POMASS =    7.010; ZVAL   =    3.000    mass and valenz                      
   RCORE  =    1.700    outmost cutoff radius                                   
   RWIGS  =    2.050; RWIGS  =    1.085    wigner-seitz radius (au A)           
   ENMAX  =  499.034; ENMIN  =  374.276 eV                                      
   ICORE  =        2    local potential                                         
   LCOR   =        T    correct aug charges                                     
   LPAW   =        T    paw PP                                                  
   EAUG   =  628.945                                                            
   RMAX   =    1.732    core radius for proj-oper                               
   RAUG   =    1.300    factor for augmentation sphere                          
   RDEP   =    1.728    radius for radial grids                                 
   RDEPT  =    1.329    core radius for aug-charge                              
                                                                                
   Atomic configuration                                                         
    4 entries                                                                   
     n  l   j            E        occ.                                          
     1  0  0.50       -51.8549   2.0000                                         
     2  0  0.50        -2.8742   1.0000                                         
     2  1  0.50        -1.3606   0.0000                                         
     3  2  1.50        -1.3606   0.0000                                         
   Description                                                                  
     l       E           TYP  RCUT    TYP  RCUT                                 
     0    -51.8548813     23  1.400                                             
     0     -2.8742052     23  1.700                                             
     1     -1.3605826     23  1.400                                             
     2     -1.3605826     23  1.400                                             
  local pseudopotential read in
  atomic valenz-charges read in
  non local Contribution for L=           0  read in
    real space projection operators read in
  non local Contribution for L=           0  read in
    real space projection operators read in
  non local Contribution for L=           1  read in
    real space projection operators read in
    PAW grid and wavefunctions read in
 
   number of l-projection  operators is LMAX  =           3
   number of lm-projection operators is LMMAX =           5
 
 POTCAR:    PAW_PBE Ti_pv 07Sep2000               
   VRHFIN =Ti: d3 s1                                                            
   LEXCH  = PE                                                                  
   EATOM  =  1042.5995 eV,   76.6289 Ry                                         
                                                                                
   TITEL  = PAW_PBE Ti_pv 07Sep2000                                             
   LULTRA =        F    use ultrasoft PP ?                                      
   IUNSCR =        1    unscreen: 0-lin 1-nonlin 2-no                           
   RPACOR =    2.200    partial core radius                                     
   POMASS =   47.880; ZVAL   =   10.000    mass and valenz                      
   RCORE  =    2.500    outmost cutoff radius                                   
   RWIGS  =    2.500; RWIGS  =    1.323    wigner-seitz radius (au A)           
   ENMAX  =  222.335; ENMIN  =  166.751 eV                                      
   RCLOC  =    1.701    cutoff for local pot                                    
   LCOR   =        T    correct aug charges                                     
   LPAW   =        T    paw PP                                                  
   EAUG   =  482.848                                                            
   DEXC   =    0.000                                                            
   RMAX   =    2.564    core radius for proj-oper                               
   RAUG   =    1.300    factor for augmentation sphere                          
   RDEP   =    2.538    radius for radial grids                                 
   RDEPT  =    1.952    core radius for aug-charge                              
                                                                                
   Atomic configuration                                                         
    8 entries                                                                   
     n  l   j            E        occ.                                          
     1  0  0.50     -4865.3608   2.0000                                         
     2  0  0.50      -533.1368   2.0000                                         
     2  1  1.50      -440.5031   6.0000                                         
     3  0  0.50       -59.3186   2.0000                                         
     3  1  1.50       -35.7012   6.0000                                         
     3  2  2.50        -1.9157   3.0000                                         
     4  0  0.50        -3.7291   1.0000                                         
     4  3  2.50        -1.3606   0.0000                                         
   Description                                                                  
     l       E           TYP  RCUT    TYP  RCUT                                 
     1    -35.7012140     23  2.300                                             
     1     -1.3605826     23  2.300                                             
     2     -1.9156996     23  2.500                                             
     2     -0.4063033     23  2.500                                             
     0     -3.7290856     23  2.500                                             
     0     20.4087390     23  2.500                                             
  local pseudopotential read in
  partial core-charges read in
  partial kinetic energy density read in
  atomic valenz-charges read in
  non local Contribution for L=           1  read in
    real space projection operators read in
  non local Contribution for L=           1  read in
    real space projection operators read in
  non local Contribution for L=           2  read in
    real space projection operators read in
  non local Contribution for L=           2  read in
    real space projection operators read in
  non local Contribution for L=           0  read in
    real space projection operators read in
  non local Contribution for L=           0  read in
    real space projection operators read in
    PAW grid and wavefunctions read in
 
   number of l-projection  operators is LMAX  =           6
   number of lm-projection operators is LMMAX =          18
 
 POTCAR:    PAW_PBE O 08Apr2002                   
   VRHFIN =O: s2p4                                                              
   LEXCH  = PE                                                                  
   EATOM  =   432.3788 eV,   31.7789 Ry                                         
                                                                                
   TITEL  = PAW_PBE O 08Apr2002                                                 
   LULTRA =        F    use ultrasoft PP ?                                      
   IUNSCR =        1    unscreen: 0-lin 1-nonlin 2-no                           
   RPACOR =    1.200    partial core radius                                     
   POMASS =   16.000; ZVAL   =    6.000    mass and valenz                      
   RCORE  =    1.520    outmost cutoff radius                                   
   RWIGS  =    1.550; RWIGS  =    0.820    wigner-seitz radius (au A)           
   ENMAX  =  400.000; ENMIN  =  300.000 eV                                      
   ICORE  =        2    local potential                                         
   LCOR   =        T    correct aug charges                                     
   LPAW   =        T    paw PP                                                  
   EAUG   =  605.392                                                            
   DEXC   =    0.000                                                            
   RMAX   =    1.553    core radius for proj-oper                               
   RAUG   =    1.300    factor for augmentation sphere                          
   RDEP   =    1.550    radius for radial grids                                 
   RDEPT  =    1.329    core radius for aug-charge                              
                                                                                
   Atomic configuration                                                         
    4 entries                                                                   
     n  l   j            E        occ.                                          
     1  0  0.50      -514.6923   2.0000                                         
     2  0  0.50       -23.9615   2.0000                                         
     2  1  0.50        -9.0305   4.0000                                         
     3  2  1.50        -9.5241   0.0000                                         
   Description                                                                  
     l       E           TYP  RCUT    TYP  RCUT                                 
     0    -23.9615318     23  1.200                                             
     0     -9.5240782     23  1.200                                             
     1     -9.0304911     23  1.520                                             
     1      8.1634956     23  1.520                                             
     2     -9.5240782      7  1.500                                             
  local pseudopotential read in
  partial core-charges read in
  partial kinetic energy density read in
  kinetic energy density of atom read in
  atomic valenz-charges read in
  non local Contribution for L=           0  read in
    real space projection operators read in
  non local Contribution for L=           0  read in
    real space projection operators read in
  non local Contribution for L=           1  read in
    real space projection operators read in
  non local Contribution for L=           1  read in
    real space projection operators read in
    PAW grid and wavefunctions read in
 
   number of l-projection  operators is LMAX  =           4
   number of lm-projection operators is LMMAX =           8
 
 POTCAR:    PAW_PBE F 08Apr2002                   
   VRHFIN =F: s2p5                                                              
   LEXCH  = PE                                                                  
   EATOM  =   659.6475 eV,   48.4827 Ry                                         
                                                                                
   TITEL  = PAW_PBE F 08Apr2002                                                 
   LULTRA =        F    use ultrasoft PP ?                                      
   IUNSCR =        1    unscreen: 0-lin 1-nonlin 2-no                           
   RPACOR =    1.200    partial core radius                                     
   POMASS =   18.998; ZVAL   =    7.000    mass and valenz                      
   RCORE  =    1.520    outmost cutoff radius                                   
   RWIGS  =    1.500; RWIGS  =    0.794    wigner-seitz radius (au A)           
   ENMAX  =  400.000; ENMIN  =  300.000 eV                                      
   ICORE  =        2    local potential                                         
   LCOR   =        T    correct aug charges                                     
   LPAW   =        T    paw PP                                                  
   EAUG   =  613.614                                                            
   RMAX   =    1.555    core radius for proj-oper                               
   RAUG   =    1.300    factor for augmentation sphere                          
   RDEP   =    1.539    radius for radial grids                                 
   RDEPT  =    1.299    core radius for aug-charge                              
                                                                                
   Atomic configuration                                                         
    4 entries                                                                   
     n  l   j            E        occ.                                          
     1  0  0.50      -663.3661   2.0000                                         
     2  0  0.50       -29.8995   2.0000                                         
     2  1  0.50       -11.1114   5.0000                                         
     3  2  1.50       -10.8847   0.0000                                         
   Description                                                                  
     l       E           TYP  RCUT    TYP  RCUT                                 
     0    -29.8995018     23  1.200                                             
     0     -9.5240782     23  1.200                                             
     1    -11.1113914     23  1.520                                             
     1      1.3605826     23  1.520                                             
     2    -10.8846608      7  1.500                                             
  local pseudopotential read in
  partial core-charges read in
  partial kinetic energy density read in
  atomic valenz-charges read in
  non local Contribution for L=           0  read in
    real space projection operators read in
  non local Contribution for L=           0  read in
    real space projection operators read in
  non local Contribution for L=           1  read in
    real space projection operators read in
  non local Contribution for L=           1  read in
    real space projection operators read in
    PAW grid and wavefunctions read in
 
   number of l-projection  operators is LMAX  =           4
   number of lm-projection operators is LMMAX =           8
 
 Optimization of the real space projectors (new method)

 maximal supplied QI-value         = 22.11
 optimisation between [QCUT,QGAM] = [ 11.28, 22.77] = [ 35.61,145.23] Ry 
 Optimized for a Real-space Cutoff    1.31 Angstroem

   l    n(q)    QCUT    max X(q) W(low)/X(q) W(high)/X(q)  e(spline) 
   0      9    11.276    10.506    0.19E-04    0.17E-04    0.32E-07
   0      9    11.276     8.367    0.38E-04    0.40E-04    0.65E-07
   1      8    11.276     8.983    0.55E-04    0.98E-04    0.20E-06
 Optimization of the real space projectors (new method)

 maximal supplied QI-value         = 15.12
 optimisation between [QCUT,QGAM] = [ 11.34, 22.83] = [ 36.00,145.93] Ry 
 Optimized for a Real-space Cutoff    1.56 Angstroem

   l    n(q)    QCUT    max X(q) W(low)/X(q) W(high)/X(q)  e(spline) 
   1     10    11.338     4.216    0.27E-04    0.12E-04    0.66E-07
   1     10    11.338     5.422    0.81E-04    0.24E-04    0.19E-06
   2     10    11.338    72.084    0.64E-04    0.21E-03    0.51E-06
   2     10    11.338    65.965    0.63E-04    0.21E-03    0.50E-06
   0     11    11.338    41.531    0.33E-04    0.54E-04    0.13E-06
   0     11    11.338    16.290    0.26E-04    0.41E-04    0.11E-06
 Optimization of the real space projectors (new method)

 maximal supplied QI-value         = 24.76
 optimisation between [QCUT,QGAM] = [ 11.39, 22.77] = [ 36.31,145.25] Ry 
 Optimized for a Real-space Cutoff    1.20 Angstroem

   l    n(q)    QCUT    max X(q) W(low)/X(q) W(high)/X(q)  e(spline) 
   0      8    11.387    20.381    0.89E-04    0.31E-03    0.27E-06
   0      8    11.387    15.268    0.93E-04    0.32E-03    0.29E-06
   1      8    11.387     5.964    0.53E-04    0.28E-03    0.29E-06
   1      8    11.387     5.382    0.37E-04    0.22E-03    0.26E-06
 Optimization of the real space projectors (new method)

 maximal supplied QI-value         = 24.76
 optimisation between [QCUT,QGAM] = [ 11.39, 22.77] = [ 36.31,145.25] Ry 
 Optimized for a Real-space Cutoff    1.20 Angstroem

   l    n(q)    QCUT    max X(q) W(low)/X(q) W(high)/X(q)  e(spline) 
   0      8    11.387    14.049    0.69E-04    0.23E-03    0.18E-06
   0      8    11.387     8.945    0.88E-04    0.30E-03    0.26E-06
   1      8    11.387     7.086    0.62E-04    0.27E-03    0.27E-06
   1      8    11.387     6.747    0.46E-04    0.23E-03    0.25E-06

 ----------------------------------------------------------------------------- 
|                                                                             |
|  ADVICE TO THIS USER RUNNING 'VASP/VAMP'   (HEAR YOUR MASTER'S VOICE ...):  |
|                                                                             |
|      You enforced a specific xc-type in the INCAR file,                     |
|      a different type was found on the POTCAR file                          |
|          I HOPE YOU KNOW, WHAT YOU ARE  DOING                               |
|                                                                             |
 ----------------------------------------------------------------------------- 

  PAW_PBE Li_sv 10Sep2004               :
 energy of atom  1       EATOM= -202.7858
 kinetic energy error for atom=    0.0143 (will be added to EATOM!!)
  PAW_PBE Ti_pv 07Sep2000               :
 energy of atom  2       EATOM=-1042.5995
 kinetic energy error for atom=    0.0024 (will be added to EATOM!!)
  PAW_PBE O 08Apr2002                   :
 energy of atom  3       EATOM= -432.3788
 kinetic energy error for atom=    0.0224 (will be added to EATOM!!)
  PAW_PBE F 08Apr2002                   :
 energy of atom  4       EATOM= -659.6475
 kinetic energy error for atom=    0.0354 (will be added to EATOM!!)
 
 
 POSCAR: config 12                               
  positions in direct lattice
  velocities in cartesian coordinates
 exchange correlation table for  LEXCH =       14
   RHO(1)=    0.500       N(1)  =     2000
   RHO(2)=  100.500       N(2)  =     4000

 VTST: version 3.2, (02/03/18)

 CHAIN: initializing optimizer
 
 OPT: Using VASP QUASI-newton optimizer
 CHAIN: Read ICHAIN            0
 
 POSCAR: config 12                               
  positions in direct lattice
  velocities in cartesian coordinates
 


--------------------------------------------------------------------------------------------------------


 ion  position               nearest neighbor table
   1  0.107  0.630  0.920- 214 1.98 185 2.01  89 2.01
   2  0.995  0.995  0.994-  68 1.88 118 1.88 103 1.88 212 2.02 171 2.03 130 2.04
   3  0.998  0.991  0.494-  67 1.82 119 1.82 172 1.95 193 1.96 131 2.01 213 2.08
   4  0.005  0.491  0.998- 117 1.79  89 1.91 138 1.95 132 1.97 194 1.98 214 2.11
   5  0.995  0.504  0.507- 104 1.84  66 1.84 215 1.93 223 2.00 173 2.02 137 2.03
   6  0.495  0.993  0.000- 101 1.84 121 1.86 133 1.96 140 1.96 216 2.02 174 2.03
   7  0.502  0.009  0.499- 112 1.77 139 1.92 191 1.92 134 1.92 175 1.94 225 2.04
   8  0.504  0.495  0.996- 120 1.87  70 1.89  90 1.89 135 2.04 192 2.05 217 2.06
   9  0.492  0.499  0.495- 102 1.82  69 1.86 224 1.98 218 2.00 136 2.02 176 2.07
  10  0.006  0.003  0.256-  91 1.84  67 1.87 219 1.94 227 1.98 130 2.00 197 2.04
  11  0.002  0.007  0.757-  68 1.80 113 1.84 177 1.95 198 1.98 131 2.05 228 2.06
  12  0.994  0.492  0.251- 107 1.82 122 1.86 137 1.94 132 2.00 220 2.02 178 2.04
  13  0.992  0.500  0.740- 108 1.82  66 1.82 226 1.93 221 2.00 138 2.04 179 2.08
  14  0.504  0.010  0.251- 114 1.78  92 1.86 133 1.94 139 1.99 195 2.01 231 2.09
  15  0.494  0.006  0.752- 105 1.81 115 1.83 140 1.94 134 2.00 232 2.03 180 2.04
  16  0.492  0.496  0.257-  69 1.83 106 1.85 229 1.95 222 2.01 135 2.03 181 2.04
  17  0.501  0.504  0.759-  70 1.80 116 1.87 182 1.96 196 1.99 230 2.04 136 2.07
  18  0.994  0.255  0.002- 110 1.82 117 1.87 141 1.97 146 1.98 212 1.99 183 2.05
  19  0.998  0.248  0.491-  74 1.77 213 1.92 202 1.94 184 1.94 223 1.95 142 2.02
  20  0.996  0.760  0.008- 118 1.79  71 1.83 203 1.93 185 2.03 148 2.08 214 2.10
  21  0.996  0.756  0.506- 119 1.82  72 1.84 204 1.94 186 1.97 147 2.02 215 2.03
  22  0.495  0.258  0.003- 120 1.81 109 1.85 143 1.97 150 1.97 187 2.05 216 2.08
  23  0.509  0.246  0.497-  93 1.80 112 1.91 149 1.93 144 1.94 224 1.98 199 2.02
  24  0.509  0.756  0.000-  94 1.82 121 1.84 152 1.94 145 1.98 217 2.02 200 2.04
  25  0.506  0.753  0.509-  73 1.79  95 1.84 225 1.96 218 1.97 201 2.02 151 2.07
  26  0.002  0.259  0.254- 122 1.80  74 1.90 209 1.91 188 1.97 141 2.00 219 2.04
  27  0.008  0.243  0.748- 113 1.81  96 1.83 142 1.96 146 1.97 210 2.05 226 2.06
  28  0.006  0.747  0.244-  97 1.83  71 1.84 220 1.95 227 1.98 147 2.03 211 2.05
  29  0.992  0.749  0.743- 111 1.82  72 1.83 228 1.93 221 2.01 189 2.04 148 2.05
  30  0.511  0.242  0.253-  98 1.74 114 1.88 143 1.96 149 1.99 229 2.03 205 2.11
  31  0.508  0.244  0.751-  99 1.84 115 1.85 150 1.93 144 1.98 230 2.03 206 2.03
  32  0.506  0.751  0.251- 100 1.79 231 1.92 151 1.93 222 1.94 145 1.95 207 2.02
  33  0.503  0.742  0.744- 116 1.81  73 1.84 190 1.94 208 1.98 152 2.03 232 2.06
  34  0.257  0.999  0.006-  75 1.84 101 1.86 246 1.96 233 1.96 171 2.01 157 2.05
  35  0.251  0.994  0.507- 128 1.84  76 1.84 172 1.95 191 1.99 234 2.02 156 2.03
  36  0.244  0.508  0.995- 123 1.84  89 1.87 159 1.94 153 1.97 192 2.00 245 2.02
  37  0.255  0.495  0.507-  77 1.87 102 1.87 127 1.88 158 2.04 173 2.04 235 2.05
  38  0.757  0.001  0.994- 103 1.80  81 1.87 236 1.95 249 1.97 154 2.03 174 2.05
  39  0.749  0.008  0.494-  80 1.81 124 1.85 193 1.94 175 2.00 155 2.01 250 2.05
  40  0.741  0.501  0.004-  90 1.80  78 1.86 247 1.95 237 1.97 161 2.04 194 2.10
  41  0.755  0.498  0.505-  79 1.85 104 1.86 248 1.96 238 1.99 176 2.02 160 2.02
  42  0.244  0.003  0.243-  75 1.84  91 1.85 239 1.94 252 1.98 156 2.04 195 2.05
  43  0.258  0.998  0.745- 105 1.84  76 1.85 253 1.94 240 1.97 157 2.02 177 2.03
  44  0.254  0.491  0.250- 129 1.83 106 1.83 158 1.94 153 2.00 178 2.04 241 2.05
  45  0.246  0.506  0.741-  77 1.78 125 1.86 179 1.96 196 1.98 251 2.02 159 2.07
  46  0.743  0.002  0.255-  92 1.84  80 1.88 242 1.90 256 1.97 154 2.00 197 2.04
  47  0.747  0.007  0.755-  81 1.82 126 1.83 180 1.95 198 1.97 155 2.05 257 2.06
  48  0.755  0.498  0.242-  78 1.83 107 1.87 254 1.90 243 1.97 181 2.04 160 2.07
  49  0.757  0.499  0.742-  79 1.83 108 1.84 255 1.94 244 1.98 182 2.04 161 2.04
  50  0.256  0.251  0.007- 109 1.84  82 1.85 245 1.96 233 1.98 168 2.03 183 2.04
  51  0.254  0.256  0.506- 127 1.81  83 1.85 199 1.96 184 2.02 167 2.03 234 2.06
  52  0.254  0.745  0.993-  86 1.83 123 1.84 200 1.92 162 2.01 246 2.02 185 2.02
  53  0.252  0.756  0.493-  85 1.83 128 1.86 201 1.95 186 1.98 235 2.00 163 2.06
  54  0.755  0.253  0.010-  84 1.77 110 1.88 236 1.96 247 1.96 187 2.03 170 2.10
  55  0.742  0.243  0.498- 124 1.82  93 1.85 169 1.93 164 1.96 248 2.04 202 2.06
  56  0.741  0.748  0.995-  94 1.82  88 1.84 249 1.95 237 1.95 165 2.03 203 2.04
  57  0.741  0.753  0.495-  95 1.82  87 1.86 250 1.95 238 1.97 166 2.02 204 2.04
  58  0.252  0.257  0.243- 129 1.83  82 1.84 205 1.93 188 2.01 167 2.04 239 2.05
  59  0.244  0.251  0.744-  83 1.84  96 1.85 251 1.95 240 1.99 168 2.03 206 2.05
  60  0.244  0.748  0.256-  85 1.84  97 1.84 241 1.93 252 1.97 207 2.04 162 2.05
  61  0.247  0.742  0.757- 125 1.82  86 1.85 189 1.94 208 1.97 163 2.02 253 2.04
  62  0.746  0.252  0.245-  84 1.91  98 1.97 242 2.01 254 2.01 169 2.07 209 2.08
  63  0.744  0.243  0.752- 126 1.83  99 1.85 170 1.92 164 2.01 210 2.02 255 2.06
  64  0.745  0.749  0.257-  87 1.82 100 1.90 243 1.94 256 1.94 211 1.99 165 2.04
  65  0.757  0.750  0.758- 111 1.83  88 1.84 257 1.93 244 1.97 190 2.03 166 2.05
  66  0.014  0.507  0.625-  13 1.82   5 1.84
  67  0.996  0.001  0.376-   3 1.82  10 1.87
  68  0.002  0.998  0.873-  11 1.80   2 1.88
  69  0.494  0.490  0.375-  16 1.83   9 1.86
  70  0.489  0.494  0.874-  17 1.80   8 1.89
  71  0.995  0.741  0.125-  20 1.83  28 1.84
  72  0.997  0.740  0.625-  29 1.83  21 1.84
  73  0.496  0.748  0.625-  25 1.79  33 1.84
  74  0.989  0.251  0.376-  19 1.77  26 1.90
  75  0.257  0.008  0.125-  34 1.84  42 1.84
  76  0.257  0.009  0.625-  35 1.84  43 1.85
  77  0.234  0.504  0.626-  45 1.78  37 1.87
  78  0.745  0.488  0.124-  48 1.83  40 1.86
  79  0.742  0.490  0.624-  49 1.83  41 1.85
  80  0.749  0.003  0.377-  39 1.81  46 1.88
  81  0.744  0.004  0.873-  47 1.82  38 1.87
  82  0.240  0.244  0.125-  58 1.84  50 1.85
  83  0.246  0.244  0.625-  59 1.84  51 1.85
  84  0.737  0.266  0.122-  54 1.77  62 1.91
  85  0.250  0.752  0.375-  53 1.83  60 1.84
  86  0.244  0.760  0.875-  52 1.83  61 1.85
  87  0.747  0.747  0.375-  64 1.82  57 1.86
  88  0.743  0.747  0.876-  65 1.84  56 1.84
  89  0.125  0.516  0.980-  36 1.87   4 1.91   1 2.01
  90  0.625  0.512  0.993-  40 1.80   8 1.89
  91  0.125  0.008  0.250-  10 1.84  42 1.85
  92  0.624  0.007  0.248-  46 1.84  14 1.86
  93  0.624  0.262  0.486-  23 1.80  55 1.85
  94  0.625  0.735  0.009-  56 1.82  24 1.82
  95  0.624  0.768  0.502-  57 1.82  25 1.84
  96  0.125  0.258  0.755-  27 1.83  59 1.85
  97  0.125  0.745  0.248-  28 1.83  60 1.84
  98  0.622  0.238  0.272-  30 1.74  62 1.97
  99  0.626  0.259  0.756-  31 1.84  63 1.85
 100  0.622  0.747  0.247-  32 1.79  64 1.90
 101  0.376  0.992  0.990-   6 1.84  34 1.86
 102  0.375  0.510  0.509-   9 1.82  37 1.87
 103  0.873  0.995  0.998-  38 1.80   2 1.88
 104  0.876  0.508  0.506-   5 1.84  41 1.86
 105  0.376  0.004  0.760-  15 1.81  43 1.84
 106  0.373  0.491  0.242-  44 1.83  16 1.85
 107  0.876  0.490  0.245-  12 1.82  48 1.87
 108  0.876  0.515  0.740-  13 1.82  49 1.84
 109  0.375  0.254  0.010-  50 1.84  22 1.85
 110  0.877  0.255  0.011-  18 1.82  54 1.88
 111  0.875  0.736  0.756-  29 1.82  65 1.83
 112  0.515  0.122  0.490-   7 1.77  23 1.91
 113  0.005  0.126  0.748-  27 1.81  11 1.84
 114  0.487  0.124  0.266-  14 1.78  30 1.88
 115  0.508  0.124  0.753-  15 1.83  31 1.85
 116  0.510  0.625  0.754-  33 1.81  17 1.87
 117  0.010  0.375  0.008-   4 1.79  18 1.87
 118  0.009  0.875  0.005-  20 1.79   2 1.88
 119  0.987  0.874  0.503-   3 1.82  21 1.82
 120  0.507  0.375  0.010-  22 1.81   8 1.87
 121  0.510  0.875  0.008-  24 1.84   6 1.86
 122  0.016  0.374  0.244-  26 1.80  12 1.86
 123  0.258  0.626  0.989-  52 1.84  36 1.84
 124  0.735  0.126  0.508-  55 1.82  39 1.85
 125  0.236  0.625  0.762-  61 1.82  45 1.86
 126  0.744  0.125  0.740-  63 1.83  47 1.83
 127  0.258  0.373  0.501-  51 1.81  37 1.88
 128  0.259  0.875  0.506-  35 1.84  53 1.86
 129  0.236  0.374  0.250-  44 1.83  58 1.83
 130  0.999  0.005  0.126-  10 2.00   2 2.04
 131  0.003  0.999  0.624-   3 2.01  11 2.05
 132  0.009  0.513  0.124-   4 1.97  12 2.00
 133  0.490  0.011  0.126-  14 1.94   6 1.96
 134  0.494  0.001  0.623-   7 1.92  15 2.00
 135  0.505  0.512  0.127-  16 2.03   8 2.04
 136  0.512  0.503  0.624-   9 2.02  17 2.07
 137  0.997  0.491  0.376-  12 1.94   5 2.03
 138  0.989  0.493  0.873-   4 1.95  13 2.04
 139  0.505  0.983  0.377-   7 1.92  14 1.99
 140  0.518  0.994  0.875-  15 1.94   6 1.96
 141  0.018  0.241  0.127-  18 1.97  26 2.00
 142  0.008  0.254  0.621-  27 1.96  19 2.02
 143  0.516  0.235  0.126-  30 1.96  22 1.97
 144  0.507  0.243  0.623-  23 1.94  31 1.98
 145  0.490  0.740  0.126-  32 1.95  24 1.98
 146  0.990  0.254  0.874-  27 1.97  18 1.98
 147  0.998  0.754  0.375-  21 2.02  28 2.03
 148  0.012  0.750  0.874-  29 2.05  20 2.08
 149  0.481  0.266  0.377-  23 1.93  30 1.99
 150  0.492  0.257  0.875-  31 1.93  22 1.97
 151  0.497  0.760  0.375-  32 1.93  25 2.07
 152  0.506  0.756  0.874-  24 1.94  33 2.03
 153  0.236  0.503  0.123-  36 1.97  44 2.00
 154  0.751  0.996  0.125-  46 2.00  38 2.03
 155  0.748  0.991  0.623-  39 2.01  47 2.05
 156  0.250  0.995  0.376-  35 2.03  42 2.04
 157  0.241  0.988  0.874-  43 2.02  34 2.05
 158  0.254  0.505  0.375-  44 1.94  37 2.04
 159  0.266  0.489  0.873-  36 1.94  45 2.07
 160  0.753  0.514  0.375-  41 2.02  48 2.07
 161  0.759  0.512  0.874-  40 2.04  49 2.04
 162  0.253  0.747  0.123-  52 2.01  60 2.05
 163  0.253  0.743  0.626-  61 2.02  53 2.06
 164  0.744  0.265  0.623-  55 1.96  63 2.01
 165  0.757  0.753  0.125-  56 2.03  64 2.04
 166  0.754  0.752  0.625-  57 2.02  65 2.05
 167  0.261  0.249  0.375-  51 2.03  58 2.04
 168  0.259  0.258  0.875-  59 2.03  50 2.03
 169  0.770  0.239  0.376-  55 1.93  62 2.07
 170  0.761  0.240  0.875-  63 1.92  54 2.10
 171  0.126  0.007  0.003-  34 2.01   2 2.03
 172  0.125  0.994  0.500-  35 1.95   3 1.95
 173  0.124  0.494  0.488-   5 2.02  37 2.04
 174  0.625  0.008  0.009-   6 2.03  38 2.05
 175  0.623  0.978  0.505-   7 1.94  39 2.00
 176  0.626  0.488  0.493-  41 2.02   9 2.07
 177  0.127  0.991  0.745-  11 1.95  43 2.03
 178  0.124  0.514  0.255-  12 2.04  44 2.04
 179  0.123  0.487  0.768-  45 1.96  13 2.08
 180  0.623  0.987  0.739-  47 1.95  15 2.04
 181  0.624  0.510  0.254-  48 2.04  16 2.04
 182  0.627  0.487  0.761-  17 1.96  49 2.04
 183  0.126  0.244  0.988-  50 2.04  18 2.05
 184  0.124  0.253  0.490-  19 1.94  51 2.02
 185  0.124  0.732  1.000-   1 2.01  52 2.02  20 2.03
 186  0.124  0.758  0.501-  21 1.97  53 1.98
 187  0.626  0.245  0.986-  54 2.03  22 2.05
 188  0.126  0.232  0.264-  26 1.97  58 2.01
 189  0.124  0.762  0.744-  61 1.94  29 2.04
 190  0.627  0.762  0.744-  33 1.94  65 2.03
 191  0.377  0.014  0.492-   7 1.92  35 1.99
 192  0.372  0.492  0.013-  36 2.00   8 2.05
 193  0.874  0.016  0.508-  39 1.94   3 1.96
 194  0.877  0.494  0.005-   4 1.98  40 2.10
 195  0.375  0.988  0.258-  14 2.01  42 2.05
 196  0.374  0.509  0.736-  45 1.98  17 1.99
 197  0.874  0.992  0.248-  10 2.04  46 2.04
 198  0.874  0.002  0.744-  47 1.97  11 1.98
 199  0.379  0.235  0.507-  51 1.96  23 2.02
 200  0.377  0.764  0.996-  52 1.92  24 2.04
 201  0.377  0.737  0.498-  53 1.95  25 2.02
 202  0.874  0.243  0.513-  19 1.94  55 2.06
 203  0.872  0.761  0.992-  20 1.93  56 2.04
 204  0.872  0.735  0.499-  21 1.94  57 2.04
 205  0.377  0.263  0.238-  58 1.93  30 2.11
 206  0.376  0.243  0.745-  31 2.03  59 2.05
 207  0.376  0.755  0.250-  32 2.02  60 2.04
 208  0.375  0.743  0.756-  61 1.97  33 1.98
 209  0.880  0.264  0.235-  26 1.91  62 2.08
 210  0.875  0.247  0.740-  63 2.02  27 2.05
 211  0.874  0.753  0.253-  64 1.99  28 2.05
 212  0.999  0.126  0.998-  18 1.99   2 2.02
 213  0.006  0.125  0.505-  19 1.92   3 2.08
 214  0.995  0.626  0.983-   1 1.98  20 2.10   4 2.11
 215  0.010  0.626  0.488-   5 1.93  21 2.03
 216  0.498  0.124  0.992-   6 2.02  22 2.08
 217  0.484  0.628  0.995-  24 2.02   8 2.06
 218  0.514  0.627  0.493-  25 1.97   9 2.00
 219  0.988  0.128  0.250-  10 1.94  26 2.04
 220  0.992  0.623  0.261-  28 1.95  12 2.02
 221  0.020  0.624  0.764-  13 2.00  29 2.01
 222  0.492  0.627  0.260-  32 1.94  16 2.01
 223  0.995  0.374  0.503-  19 1.95   5 2.00
 224  0.488  0.372  0.511-  23 1.98   9 1.98
 225  0.481  0.878  0.504-  25 1.96   7 2.04
 226  0.989  0.375  0.745-  13 1.93  27 2.06
 227  0.002  0.875  0.247-  28 1.98  10 1.98
 228  0.991  0.874  0.745-  29 1.93  11 2.06
 229  0.511  0.373  0.237-  16 1.95  30 2.03
 230  0.491  0.374  0.740-  31 2.03  17 2.04
 231  0.502  0.875  0.240-  32 1.92  14 2.09
 232  0.494  0.875  0.750-  15 2.03  33 2.06
 233  0.254  0.125  0.987-  34 1.96  50 1.98
 234  0.243  0.124  0.492-  35 2.02  51 2.06
 235  0.240  0.627  0.499-  53 2.00  37 2.05
 236  0.751  0.126  0.008-  38 1.95  54 1.96
 237  0.767  0.625  0.008-  56 1.95  40 1.97
 238  0.736  0.626  0.507-  57 1.97  41 1.99
 239  0.265  0.126  0.258-  42 1.94  58 2.05
 240  0.243  0.124  0.763-  43 1.97  59 1.99
 241  0.257  0.624  0.246-  60 1.93  44 2.05
 242  0.764  0.123  0.241-  46 1.90  62 2.01
 243  0.755  0.625  0.241-  64 1.94  48 1.97
 244  0.733  0.625  0.743-  65 1.97  49 1.98
 245  0.240  0.377  0.004-  50 1.96  36 2.02
 246  0.238  0.873  0.010-  34 1.96  52 2.02
 247  0.745  0.377  0.980-  40 1.95  54 1.96
 248  0.762  0.373  0.486-  41 1.96  55 2.04
 249  0.738  0.875  0.001-  56 1.95  38 1.97
 250  0.768  0.876  0.499-  57 1.95  39 2.05
 251  0.261  0.376  0.747-  59 1.95  45 2.02
 252  0.246  0.875  0.244-  60 1.97  42 1.98
 253  0.257  0.873  0.739-  43 1.94  61 2.04
 254  0.736  0.379  0.272-  48 1.90  62 2.01
 255  0.763  0.375  0.761-  49 1.94  63 2.06
 256  0.747  0.875  0.249-  64 1.94  46 1.97
 257  0.760  0.875  0.750-  65 1.93  47 2.06
 

IMPORTANT INFORMATION: All symmetrisations will be switched off!
NOSYMM: (Re-)initialisation of all symmetry stuff for point group C_1.

 
 
 KPOINTS: Title                                   

Automatic generation of k-mesh.
Space group operators:
 irot       det(A)        alpha          n_x          n_y          n_z        tau_x        tau_y        tau_z
    1     1.000000     0.000001     1.000000     0.000000     0.000000     0.000000     0.000000     0.000000
 
 Subroutine IBZKPT returns following result:
 ===========================================
 
 Found      4 irreducible k-points:
 
 Following reciprocal coordinates:
            Coordinates               Weight
  0.250000  0.250000  0.250000      2.000000
 -0.250000  0.250000  0.250000      2.000000
  0.250000 -0.250000  0.250000      2.000000
 -0.250000 -0.250000  0.250000      2.000000
 
 Following cartesian coordinates:
            Coordinates               Weight
  0.016206  0.016206  0.016206      2.000000
 -0.016206  0.016206  0.016206      2.000000
  0.016206 -0.016206  0.016206      2.000000
 -0.016206 -0.016206  0.016206      2.000000
 


--------------------------------------------------------------------------------------------------------




 Dimension of arrays:
   k-points           NKPTS =      4   k-points in BZ     NKDIM =      4   number of bands    NBANDS=   1164
   number of dos      NEDOS =   3001   number of ions     NIONS =    257
   non local maximal  LDIM  =      6   non local SUM 2l+1 LMDIM =     18
   total plane-waves  NPLWV = ******
   max r-space proj   IRMAX =   7595   max aug-charges    IRDMAX= 146383
   dimension x,y,z NGX =   120 NGY =  120 NGZ =  120
   dimension x,y,z NGXF=   240 NGYF=  240 NGZF=  240
   support grid    NGXF=   480 NGYF=  480 NGZF=  480
   ions per type =               1  64  64 128
   NGX,Y,Z   is equivalent  to a cutoff of  12.93, 12.93, 12.93 a.u.
   NGXF,Y,Z  is equivalent  to a cutoff of  25.86, 25.86, 25.86 a.u.

 SYSTEM =  LTO                                     
 POSCAR =  config 12                               

 Startparameter for this run:
   NWRITE =      2    write-flag & timer
   PREC   = accura    normal or accurate (medium, high low for compatibility)
   ISTART =      1    job   : 0-new  1-cont  2-samecut
   ICHARG =      0    charge: 1-file 2-atom 10-const
   ISPIN  =      2    spin polarized calculation?
   LNONCOLLINEAR =      F non collinear calculations
   LSORBIT =      F    spin-orbit coupling
   INIWAV =      1    electr: 0-lowe 1-rand  2-diag
   LASPH  =      T    aspherical Exc in radial PAW
   METAGGA=      F    non-selfconsistent MetaGGA calc.

 Electronic Relaxation 1
   ENCUT  =  500.0 eV  36.75 Ry    6.06 a.u.  28.13 28.13 28.13*2*pi/ulx,y,z
   ENINI  =  500.0     initial cutoff
   ENAUG  =  628.9 eV  augmentation charge cutoff
   NELM   =     60;   NELMIN=  2; NELMDL=  0     # of ELM steps 
   EDIFF  = 0.1E-05   stopping-criterion for ELM
   LREAL  =      T    real-space projection
   NLSPLINE    = F    spline interpolate recip. space projectors
   LCOMPAT=      F    compatible to vasp.4.4
   GGA_COMPAT  = T    GGA compatible to vasp.4.4-vasp.4.6
   LMAXPAW     = -100 max onsite density
   LMAXMIX     =    4 max onsite mixed and CHGCAR
   VOSKOWN=      0    Vosko Wilk Nusair interpolation
   ROPT   =   -0.00010  -0.00010  -0.00010  -0.00010
 Ionic relaxation
   EDIFFG = -.5E-01   stopping-criterion for IOM
   NSW    =    100    number of steps for IOM
   NBLOCK =      1;   KBLOCK =    100    inner block; outer block 
   IBRION =      1    ionic relax: 0-MD 1-quasi-New 2-CG
   NFREE  =      0    steps in history (QN), initial steepest desc. (CG)
   ISIF   =      2    stress and relaxation
   IWAVPR =     11    prediction:  0-non 1-charg 2-wave 3-comb
   ISYM   =      0    0-nonsym 1-usesym 2-fastsym
   LCORR  =      T    Harris-Foulkes like correction to forces

   POTIM  = 0.5000    time-step for ionic-motion
   TEIN   =    0.0    initial temperature
   TEBEG  =    0.0;   TEEND  =   0.0 temperature during run
   SMASS  =  -3.00    Nose mass-parameter (am)
   estimated Nose-frequenzy (Omega)   =  0.10E-29 period in steps =****** mass=  -0.544E-26a.u.
   SCALEE = 1.0000    scale energy and forces
   NPACO  =    256;   APACO  = 16.0  distance and # of slots for P.C.
   PSTRESS=    0.0 pullay stress

  Mass of Ions in am
   POMASS =   7.01 47.88 16.00 19.00
  Ionic Valenz
   ZVAL   =   3.00 10.00  6.00  7.00
  Atomic Wigner-Seitz radii
   RWIGS  =  -1.00 -1.00 -1.00 -1.00
  virtual crystal weights 
   VCA    =   1.00  1.00  1.00  1.00
   NELECT =    1923.0000    total number of electrons
   NUPDOWN=       1.0000    fix difference up-down

 DOS related values:
   EMIN   =  10.00;   EMAX   =-10.00  energy-range for DOS
   EFERMI =   0.00
   ISMEAR =     0;   SIGMA  =   0.01  broadening in eV -4-tet -1-fermi 0-gaus

 Electronic relaxation 2 (details)
   IALGO  =     38    algorithm
   LDIAG  =      T    sub-space diagonalisation (order eigenvalues)
   LSUBROT=      F    optimize rotation matrix (better conditioning)
   TURBO    =      0    0=normal 1=particle mesh
   IRESTART =      0    0=no restart 2=restart with 2 vectors
   NREBOOT  =      0    no. of reboots
   NMIN     =      0    reboot dimension
   EREF     =   0.00    reference energy to select bands
   IMIX   =      4    mixing-type and parameters
     AMIX     =   0.40;   BMIX     =  1.00
     AMIX_MAG =   1.60;   BMIX_MAG =  1.00
     AMIN     =   0.10
     WC   =   100.;   INIMIX=   1;  MIXPRE=   1;  MAXMIX= -45

 Intra band minimization:
   WEIMIN = 0.0010     energy-eigenvalue tresh-hold
   EBREAK =  0.21E-09  absolut break condition
   DEPER  =   0.30     relativ break condition  

   TIME   =   0.40     timestep for ELM

  volume/ion in A,a.u.               =      14.28        96.39
  Fermi-wavevector in a.u.,A,eV,Ry     =   1.319690  2.493853 23.695660  1.741582
  Thomas-Fermi vector in A             =   2.449570
 
 Write flags
   LWAVE        =      T    write WAVECAR
   LDOWNSAMPLE  =      F    k-point downsampling of WAVECAR
   LCHARG       =      T    write CHGCAR
   LVTOT        =      F    write LOCPOT, total local potential
   LVHAR        =      F    write LOCPOT, Hartree potential only
   LELF         =      F    write electronic localiz. function (ELF)
   LORBIT       =     11    0 simple, 1 ext, 2 COOP (PROOUT), +10 PAW based schemes


 Dipole corrections
   LMONO  =      F    monopole corrections only (constant potential shift)
   LDIPOL =      F    correct potential (dipole corrections)
   IDIPOL =      0    1-x, 2-y, 3-z, 4-all directions 
   EPSILON=  1.0000000 bulk dielectric constant

 LDA+U is selected, type is set to LDAUTYPE =  2
   angular momentum for each species LDAUL =    -1    2   -1   -1
   U (eV)           for each species LDAUU =   0.0  4.2  0.0  0.0
   J (eV)           for each species LDAUJ =   0.0  0.0  0.0  0.0
 Exchange correlation treatment:
   GGA     =    PS    GGA type
   LEXCH   =    14    internal setting for exchange type
   VOSKOWN=      0    Vosko Wilk Nusair interpolation
   LHFCALC =     F    Hartree Fock is set to
   LHFONE  =     F    Hartree Fock one center treatment
   AEXX    =    0.0000 exact exchange contribution

 Linear response parameters
   LEPSILON=     F    determine dielectric tensor
   LRPA    =     F    only Hartree local field effects (RPA)
   LNABLA  =     F    use nabla operator in PAW spheres
   LVEL    =     F    velocity operator in full k-point grid
   LINTERFAST=   F  fast interpolation
   KINTER  =     0    interpolate to denser k-point grid
   CSHIFT  =0.1000    complex shift for real part using Kramers Kronig
   OMEGAMAX=  -1.0    maximum frequency
   DEG_THRESHOLD= 0.2000000E-02 threshold for treating states as degnerate
   RTIME   =   -0.100 relaxation time in fs
  (WPLASMAI=    0.000 imaginary part of plasma frequency in eV, 0.658/RTIME)
   DFIELD  = 0.0000000 0.0000000 0.0000000 field for delta impulse in time
 
 Orbital magnetization related:
   ORBITALMAG=     F  switch on orbital magnetization
   LCHIMAG   =     F  perturbation theory with respect to B field
   DQ        =  0.001000  dq finite difference perturbation B field
   LLRAUG    =     F  two centre corrections for induced B field



--------------------------------------------------------------------------------------------------------


 quasi-Newton-method for relaxation of ions
 charge density and potential will be updated during run
 spin polarized calculation
 Variant of blocked Davidson
 Davidson routine will perform the subspace rotation
 perform sub-space diagonalisation
    after iterative eigenvector-optimisation
 modified Broyden-mixing scheme, WC =      100.0
 initial mixing is a Kerker type mixing with AMIX =  0.4000 and BMIX =      1.0000
 Hartree-type preconditioning will be used
 using additional bands          202
 real space projection scheme for non local part
 use partial core corrections
 calculate Harris-corrections to forces 
   (improved forces if not selfconsistent)
 use gradient corrections 
 use of overlap-Matrix (Vanderbilt PP)
 Gauss-broadening in eV      SIGMA  =   0.01


--------------------------------------------------------------------------------------------------------


  energy-cutoff  :      500.00
  volume of cell :     3671.03
      direct lattice vectors                 reciprocal lattice vectors
    15.426331000  0.000000000  0.000000000     0.064824228  0.000000000  0.000000000
     0.000000000 15.426331000  0.000000000     0.000000000  0.064824228  0.000000000
     0.000000000  0.000000000 15.426331000     0.000000000  0.000000000  0.064824228

  length of vectors
    15.426331000 15.426331000 15.426331000     0.064824228  0.064824228  0.064824228


 
 old parameters found on file WAVECAR:
  energy-cutoff  :      500.00
  volume of cell :     3671.03
      direct lattice vectors                 reciprocal lattice vectors
    15.426331000  0.000000000  0.000000000     0.064824228  0.000000000  0.000000000
     0.000000000 15.426331000  0.000000000     0.000000000  0.064824228  0.000000000
     0.000000000  0.000000000 15.426331000     0.000000000  0.000000000  0.064824228

  length of vectors

 
 k-points in units of 2pi/SCALE and weight: Title                                   
   0.01620606  0.01620606  0.01620606       0.250
  -0.01620606  0.01620606  0.01620606       0.250
   0.01620606 -0.01620606  0.01620606       0.250
  -0.01620606 -0.01620606  0.01620606       0.250
 
 k-points in reciprocal lattice and weights: Title                                   
   0.25000000  0.25000000  0.25000000       0.250
  -0.25000000  0.25000000  0.25000000       0.250
   0.25000000 -0.25000000  0.25000000       0.250
  -0.25000000 -0.25000000  0.25000000       0.250
 
 position of ions in fractional coordinates (direct lattice) 
   0.10723456  0.63007301  0.91983005
   0.99546198  0.99506071  0.99413770
   0.99814497  0.99112505  0.49364979
   0.00490645  0.49050974  0.99804424
   0.99462285  0.50369555  0.50719869
   0.49456524  0.99348443  0.00011118
   0.50154883  0.00857322  0.49855787
   0.50396473  0.49544969  0.99585058
   0.49175482  0.49924685  0.49527260
   0.00578522  0.00302293  0.25556540
   0.00234202  0.00700287  0.75650974
   0.99378710  0.49249832  0.25057711
   0.99234604  0.49957826  0.74045802
   0.50381731  0.01047248  0.25077467
   0.49354383  0.00618301  0.75247562
   0.49206963  0.49640357  0.25660746
   0.50134511  0.50413423  0.75854295
   0.99434743  0.25468723  0.00220838
   0.99805041  0.24848028  0.49060788
   0.99605815  0.75969098  0.00815054
   0.99615074  0.75601577  0.50609062
   0.49480788  0.25835520  0.00288061
   0.50908213  0.24599613  0.49717232
   0.50880819  0.75584075  0.00019353
   0.50648350  0.75330130  0.50922474
   0.00200800  0.25896775  0.25417392
   0.00773193  0.24296639  0.74781933
   0.00617553  0.74717398  0.24383134
   0.99213043  0.74911663  0.74284614
   0.51108399  0.24229456  0.25323625
   0.50790078  0.24402119  0.75132335
   0.50635881  0.75144641  0.25117136
   0.50296826  0.74170228  0.74388679
   0.25663906  0.99875257  0.00585998
   0.25090602  0.99395413  0.50708109
   0.24441031  0.50763175  0.99544646
   0.25483482  0.49488130  0.50696978
   0.75671748  0.00076126  0.99367364
   0.74922404  0.00756539  0.49414632
   0.74077300  0.50073822  0.00435382
   0.75548531  0.49834198  0.50537799
   0.24437284  0.00309805  0.24346918
   0.25843262  0.99839254  0.74460295
   0.25449542  0.49141224  0.25009260
   0.24619233  0.50632464  0.74124598
   0.74283141  0.00199215  0.25478509
   0.74723492  0.00737743  0.75515169
   0.75469236  0.49758109  0.24199337
   0.75734158  0.49870556  0.74190314
   0.25619748  0.25122959  0.00657188
   0.25350422  0.25598777  0.50616397
   0.25422664  0.74490968  0.99273491
   0.25210504  0.75573637  0.49329615
   0.75512378  0.25332507  0.01005924
   0.74208976  0.24280535  0.49796491
   0.74080495  0.74828864  0.99471433
   0.74107787  0.75271106  0.49463972
   0.25210952  0.25712984  0.24280086
   0.24405631  0.25134600  0.74403779
   0.24353680  0.74797831  0.25585851
   0.24732205  0.74188408  0.75660087
   0.74573265  0.25192234  0.24535988
   0.74435412  0.24282146  0.75165392
   0.74498756  0.74933814  0.25668368
   0.75747738  0.74955135  0.75755251
   0.01400117  0.50723808  0.62458865
   0.99649215  0.00148039  0.37622445
   0.00185234  0.99845401  0.87277323
   0.49368694  0.49020699  0.37528913
   0.48934609  0.49399079  0.87445929
   0.99479630  0.74110987  0.12537349
   0.99694988  0.73982963  0.62455648
   0.49623861  0.74814287  0.62491364
   0.98861788  0.25119217  0.37607200
   0.25658173  0.00819961  0.12470420
   0.25673364  0.00857925  0.62540264
   0.23433973  0.50371482  0.62629081
   0.74505053  0.48787125  0.12442169
   0.74241351  0.49008503  0.62431698
   0.74895331  0.00322707  0.37664050
   0.74431918  0.00358915  0.87323265
   0.23979105  0.24387421  0.12516067
   0.24561186  0.24384024  0.62521657
   0.73721578  0.26644175  0.12249945
   0.25046414  0.75194251  0.37457299
   0.24383451  0.76004756  0.87532411
   0.74718737  0.74716423  0.37455698
   0.74251518  0.74653438  0.87553214
   0.12451641  0.51564761  0.98027240
   0.62528026  0.51202958  0.99337063
   0.12488477  0.00766029  0.25037720
   0.62413824  0.00710792  0.24849352
   0.62439175  0.26231867  0.48616654
   0.62481858  0.73465511  0.00908534
   0.62427597  0.76811916  0.50156085
   0.12511315  0.25831484  0.75545729
   0.12458717  0.74503526  0.24839456
   0.62198118  0.23781313  0.27225888
   0.62588728  0.25926339  0.75558226
   0.62243482  0.74701489  0.24655936
   0.37600862  0.99239321  0.99033116
   0.37539399  0.50994429  0.50919659
   0.87343414  0.99539754  0.99766340
   0.87568684  0.50823082  0.50585610
   0.37625208  0.00439305  0.75994338
   0.37317997  0.49066493  0.24219731
   0.87593347  0.48997066  0.24525687
   0.87566106  0.51544216  0.73971146
   0.37536076  0.25402844  0.01046411
   0.87696114  0.25490897  0.01092654
   0.87547913  0.73576971  0.75618301
   0.51547784  0.12244489  0.49040222
   0.00504671  0.12569600  0.74752165
   0.48661066  0.12357233  0.26604927
   0.50834625  0.12408048  0.75257042
   0.51011598  0.62522941  0.75380323
   0.01021889  0.37493448  0.00812067
   0.00912859  0.87468254  0.00501474
   0.98746972  0.87388751  0.50269208
   0.50691208  0.37485938  0.01040327
   0.51041743  0.87451046  0.00825965
   0.01600100  0.37445236  0.24368277
   0.25837938  0.62600439  0.98858978
   0.73496578  0.12552355  0.50810689
   0.23619027  0.62456753  0.76209916
   0.74351381  0.12512375  0.73959053
   0.25759436  0.37334566  0.50106981
   0.25927798  0.87523050  0.50575146
   0.23631295  0.37449548  0.24967053
   0.99888773  0.00503668  0.12600499
   0.00276496  0.99911733  0.62392770
   0.00851407  0.51346614  0.12377990
   0.49023746  0.01122651  0.12573867
   0.49398126  0.00110491  0.62285034
   0.50522106  0.51232079  0.12668614
   0.51214577  0.50335053  0.62449509
   0.99653318  0.49139884  0.37606876
   0.98864954  0.49266708  0.87267744
   0.50521721  0.98334247  0.37682661
   0.51762913  0.99444499  0.87517986
   0.01759569  0.24141815  0.12680618
   0.00791171  0.25430584  0.62119409
   0.51647306  0.23488654  0.12634501
   0.50715467  0.24314889  0.62265306
   0.49036355  0.74045561  0.12644626
   0.99012764  0.25441641  0.87405342
   0.99756116  0.75403232  0.37519964
   0.01248005  0.75029211  0.87434744
   0.48105332  0.26576764  0.37673389
   0.49167960  0.25725615  0.87498306
   0.49679328  0.75967154  0.37541239
   0.50572894  0.75595779  0.87449680
   0.23587285  0.50346421  0.12260740
   0.75074531  0.99593553  0.12529899
   0.74822194  0.99104395  0.62323920
   0.24994282  0.99525217  0.37560380
   0.24140925  0.98761294  0.87419095
   0.25426563  0.50514114  0.37494503
   0.26595768  0.48900544  0.87310883
   0.75264560  0.51376075  0.37536975
   0.75863446  0.51160563  0.87375462
   0.25332933  0.74686320  0.12302068
   0.25345083  0.74250748  0.62593389
   0.74387156  0.26545034  0.62310252
   0.75713615  0.75344743  0.12511915
   0.75360492  0.75234942  0.62489088
   0.26105740  0.24939815  0.37465214
   0.25879222  0.25799515  0.87486696
   0.77046761  0.23905529  0.37636794
   0.76090330  0.23984512  0.87487984
   0.12639081  0.00749434  0.00292817
   0.12456194  0.99441412  0.50042909
   0.12372161  0.49361820  0.48769913
   0.62491848  0.00757213  0.00926905
   0.62341916  0.97841174  0.50454415
   0.62555192  0.48794373  0.49319474
   0.12719168  0.99089376  0.74499992
   0.12412589  0.51360798  0.25543253
   0.12335618  0.48652512  0.76816412
   0.62345574  0.98723427  0.73903080
   0.62385994  0.50993172  0.25373825
   0.62699739  0.48662493  0.76086753
   0.12573520  0.24407085  0.98758135
   0.12385022  0.25316493  0.49012843
   0.12415801  0.73154236  0.99979888
   0.12389699  0.75801871  0.50091762
   0.62600332  0.24543964  0.98586929
   0.12616406  0.23220929  0.26436878
   0.12364616  0.76162033  0.74446580
   0.62701304  0.76218230  0.74391839
   0.37745425  0.01429828  0.49226245
   0.37198212  0.49225747  0.01256232
   0.87425904  0.01552673  0.50776653
   0.87695673  0.49425915  0.00526350
   0.37542006  0.98822881  0.25777354
   0.37441464  0.50925015  0.73593287
   0.87444853  0.99249277  0.24810607
   0.87440750  0.00224469  0.74442937
   0.37903195  0.23504159  0.50727200
   0.37695018  0.76376586  0.99596303
   0.37707336  0.73677571  0.49762073
   0.87449791  0.24253862  0.51294045
   0.87223900  0.76089492  0.99188380
   0.87213257  0.73493158  0.49883879
   0.37695710  0.26292872  0.23789660
   0.37645456  0.24270366  0.74510678
   0.37553901  0.75465609  0.24969728
   0.37506497  0.74342515  0.75601673
   0.87965281  0.26414200  0.23498015
   0.87498001  0.24698101  0.73953378
   0.87373909  0.75328501  0.25282175
   0.99909602  0.12610485  0.99783220
   0.00584693  0.12526649  0.50501889
   0.99547582  0.62598450  0.98345861
   0.00952021  0.62648497  0.48750250
   0.49829935  0.12430433  0.99227642
   0.48415627  0.62766826  0.99468965
   0.51401632  0.62678112  0.49258276
   0.98769289  0.12755663  0.24951716
   0.99181820  0.62300504  0.26103197
   0.02040697  0.62371033  0.76400797
   0.49228773  0.62653871  0.26047463
   0.99488802  0.37423763  0.50319018
   0.48772066  0.37179050  0.51137232
   0.48148661  0.87802686  0.50396181
   0.98874689  0.37488546  0.74500316
   0.00192458  0.87510441  0.24665292
   0.99129034  0.87406496  0.74544546
   0.51065517  0.37317793  0.23725975
   0.49050805  0.37380629  0.74049082
   0.50180361  0.87522409  0.23981332
   0.49445723  0.87488811  0.74951775
   0.25364595  0.12455435  0.98658917
   0.24256979  0.12388368  0.49199455
   0.23977096  0.62659777  0.49900357
   0.75145057  0.12635994  0.00836101
   0.76731643  0.62539542  0.00823168
   0.73553967  0.62584401  0.50726682
   0.26483191  0.12601761  0.25784896
   0.24331799  0.12409530  0.76319819
   0.25738695  0.62392947  0.24616338
   0.76416578  0.12275613  0.24092957
   0.75523999  0.62519877  0.24078880
   0.73286009  0.62490568  0.74271326
   0.24015273  0.37708542  0.00412609
   0.23759502  0.87337892  0.01029914
   0.74499802  0.37654200  0.97961121
   0.76180703  0.37312474  0.48633189
   0.73779769  0.87450146  0.00109138
   0.76793236  0.87605617  0.49891640
   0.26102178  0.37637645  0.74673478
   0.24646646  0.87504982  0.24359752
   0.25701160  0.87269390  0.73896660
   0.73595972  0.37937299  0.27205039
   0.76314225  0.37476514  0.76131309
   0.74719845  0.87471291  0.24894664
   0.75972400  0.87464925  0.75030718
 
 position of ions in cartesian coordinates  (Angst):
   1.65423576  9.71971485 14.18960275
  15.35632596 15.35013581 15.33589729
  15.39771474 15.28942311  7.61520503
   0.07568859  7.56676568 15.39616087
  15.34338137  7.77017427  7.82421483
   7.62932713 15.32581961  0.00171505
   7.73705819  0.13225329  7.69091877
   7.77432670  7.64297087 15.36232074
   7.58597264  7.70154714  7.64023908
   0.08924471  0.04663265  3.94243640
   0.03612872  0.10802860 11.67016969
  15.33048868  7.59744214  3.86548545
  15.30825843  7.70665960 11.42255056
   7.77205260  0.16155196  3.86853313
   7.61357049  0.09538120 11.60793791
   7.59082906  7.65768576  3.95851162
   7.73391554  7.77694152 11.70153468
  15.33913263  3.92888959  0.03406714
  15.39625600  3.83313901  7.56827955
  15.36552267 11.71924454  0.12573292
  15.36695110 11.66254952  7.80712136
   7.63307013  3.98547283  0.04443732
   7.85326939  3.79481766  7.66954481
   7.84904355 11.65984954  0.00298547
   7.81318208 11.62067520  7.85546943
   0.03097613  3.99492228  3.92097106
   0.11927533  3.74807998 11.53610845
   0.09526585 11.52615306  3.76142301
  15.30493240 11.55612105 11.45939038
   7.88415087  3.73771614  3.90650624
   7.83504553  3.76435168 11.59016270
   7.81125859 11.59206106  3.87465258
   7.75895483 11.44174493 11.47544385
   3.95899911 15.40708772  0.09039792
   3.87055928 15.33306546  7.82240069
   3.77035438  7.83089534 15.35608652
   3.93116627  7.63420271  7.82068367
  11.67337434  0.01174343 15.32873853
  11.55777810  0.11670621  7.62286468
  11.42740950  7.72455359  0.06716349
  11.65436645  7.68758833  7.79612820
   3.76977631  0.04779153  3.75583623
   3.98666709 15.40153386 11.48649149
   3.92593059  7.58068781  3.85801123
   3.79784438  7.81073143 11.43470587
  11.45916319  0.03073152  3.93039907
  11.52709323  0.11380670 11.64921995
  11.64213414  7.67585053  3.73306990
  11.68300191  7.69319710 11.44484339
   3.95218715  3.87555084  0.10138003
   3.91063999  3.94895212  7.80825298
   3.92178436 11.49122334 15.31425731
   3.88905581 11.65823936  7.60974971
  11.64878939  3.90787633  0.15517719
  11.44772233  3.74559573  7.68177154
  11.42790240 11.54334817 15.34479249
  11.43211249 11.61156998  7.63047611
   3.88912495  3.96656997  3.74552636
   3.76489347  3.87734657 11.47777319
   3.75687932 11.53856098  3.94695812
   3.81527183 11.44454934 11.67157553
  11.50391867  3.88623739  3.78500271
  11.48265297  3.74584415 11.59526215
  11.49242464 11.55953823  3.95968749
  11.68509685 11.56282730 11.68625580
   0.21598670  7.82482258  9.63511121
  15.37221780  0.02283696  5.80376293
   0.02857482 15.40248210 13.46368870
   7.61577812  7.56209524  5.78933429
   7.54881471  7.62046546 13.48969845
  15.34605703 11.43260609  1.93405289
  15.37927883 11.41285675  9.63461505
   7.65514110 11.54109962  9.64012469
  15.25074661  3.87497349  5.80141112
   3.95811464  0.12648986  1.92372829
   3.96045805  0.13234641  9.64766809
   3.61500228  7.77047149  9.66136938
  11.49339607  7.52606345  1.91937012
  11.45271657  7.56021387  9.63092041
  11.55360160  0.04978182  5.81018104
  11.48211408  0.05536743 13.47077589
   3.69909607  3.76208432  1.93076990
   3.78888989  3.76156022  9.64479770
  11.37253467  4.11021862  1.88971713
   3.86374270 11.59971402  5.77828697
   3.76147193 11.72474529 13.50303945
  11.52635976 11.52600275  5.77804001
  11.45428488 11.51628652 13.50624867
   1.92083131  7.95455071 15.12200645
   9.64578019  7.89873773 15.32406414
   1.92651372  0.11817009  3.86240155
   9.62816301  0.10964917  3.83334329
   9.63207386  4.04661458  7.49976598
   9.63865817 11.33303293  0.14015342
   9.63028775 11.84926042  7.73724365
   1.93003693  3.98485021 11.65393415
   1.92192291 11.49316060  3.83181678
   9.59488749  3.66858405  4.19995559
   9.65514433  3.99948286 11.65586206
   9.60188555 11.52369897  3.80350636
   5.80043346 15.30898613 15.27717622
   5.79095201  7.86656943  7.85503515
  13.47388422 15.35533193 15.39028589
  13.50863498  7.84013682  7.80350359
   5.80418907  0.06776870 11.72313810
   5.75679779  7.56915955  3.73621590
  13.51243957  7.55844956  3.78341364
  13.50823731  7.95138140 11.41103389
   5.79043931  3.91872675  0.16142285
  13.52829280  3.93231010  0.16855638
  13.50543089 11.35022708 11.66512935
   7.95193180  1.88887544  7.56510692
   0.07785217  1.93902809 11.53151640
   7.50661712  1.90626765  4.10416410
   7.84191750  1.91410656 11.60940043
   7.86921803  9.64499587 11.62841809
   0.15763999  5.78386338  0.12527220
   0.14082065 13.49314232  0.07735903
  15.23303471 13.48087796  7.75469434
   7.81979349  5.78270488  0.16048435
   7.87386829 13.49048784  0.12741616
   0.24683671  5.77642608  3.75913106
   3.98584586  9.65695092 15.25031324
  11.33782535  1.93636785  7.83822507
   3.64354932  9.63478548 11.75639391
  11.46969009  1.93020032 11.40916840
   3.97373588  5.75935368  7.72966875
   3.99970787 13.50159536  7.80188936
   3.64544173  5.77709120  3.85150026
  15.40917278  0.07769747  1.94379465
   0.04265323 15.41271468  9.62491529
   0.13134086  7.92089858  1.90946964
   7.56256527  0.17318384  1.93968638
   7.62031845  0.01704466  9.60829543
   7.79370727  7.90323007  1.95430231
   7.90053024  7.76485189  9.63366795
  15.37285063  7.58048112  5.80136110
  15.25123505  7.60004541 13.46221098
   7.79364795 15.16936636  5.81305204
   7.98511825 15.34063761 13.50081425
   0.27143691  3.72419636  1.95615407
   0.12204871  3.92300608  9.58274557
   7.96728442  3.62343754  1.94903995
   7.82353582  3.75089533  9.60525221
   7.56451051 11.42251328  1.95060187
  15.27403669  3.92471175 13.48343741
  15.38870870 11.63195208  5.78795377
   0.19252132 11.57425441 13.48797299
   7.42088772  4.09981958  5.81162164
   7.58481233  3.96851849 13.49777835
   7.66369761 11.71894460  5.79123583
   7.80154209 11.66165509 13.49027703
   3.63865272  7.76660553  1.89138226
  11.58124557 15.36363119  1.93290374
  11.54231927 15.28817205  9.61429421
   3.85570070 15.35308943  5.79418848
   3.72405894 15.23524410 13.48555889
   3.92238579  7.79247435  5.78402615
   4.10275121  7.54355978 13.46886580
  11.61056017  7.92544333  5.79057806
  11.70294631  7.89219773 13.47882804
   3.90794207 11.52135890  1.89775780
   3.90981640 11.45416613  9.65586332
  11.47520887  4.09492486  9.61218565
  11.67983287 11.62292947  1.93012947
  11.62535894 11.60599113  9.63977350
   4.02715788  3.84729846  5.77950788
   3.99221442  3.97991866 13.49598730
  11.88548843  3.68774609  5.80597649
  11.73794620  3.69993025 13.49618601
   1.94974647  0.11561021  0.04517091
   1.92153374 15.34016132  7.71978478
   1.90857056  7.61471776  7.52340820
   9.64019931  0.11681026  0.14298738
   9.61707038 15.09330333  7.78326501
   9.64997099  7.52718148  7.60818525
   1.96210100 15.28585519 11.49261539
   1.91480701  7.92308670  3.94038672
   1.90293328  7.50529747 11.84995396
   9.61763462 15.22940260 11.40053378
   9.62386998  7.86637542  3.91425021
   9.67226934  7.50683731 11.73739443
   1.93963276  3.76511769 15.23475685
   1.91055451  3.90540605  7.56088338
   1.91530254 11.28501466 15.42322848
   1.91127601 11.69344749  7.72732099
   9.65693440  3.78623306 15.20834606
   1.94624852  3.58213736  4.07824036
   1.90740661 11.74900733 11.48437584
   9.67251069 11.75767639 11.47593125
   5.82273416  0.22057000  7.59380348
   5.73831933  7.59372668  0.19379044
  13.48660939  0.23952051  7.83297455
  13.52822479  7.62460525  0.08119651
   5.79135408 15.24474473  3.97650001
   5.77584415  7.85586133 11.35274407
  13.48953252 15.31052193  3.82736641
  13.48889950  0.03462726 11.48381385
   5.84707239  3.62582940  7.82534572
   5.81495825 11.78210493 15.36405531
   5.81685846 11.36574603  7.67646210
  13.49029424  3.74148109  7.91278913
  13.45544760 11.73781686 15.30112774
  13.45380573 11.33729779  7.69525227
   5.81506505  4.05602539  3.66987177
   5.80731267  3.74402694 11.49426379
   5.79318910 11.64157462  3.85191286
   5.78587633 11.46832248 11.66256437
  13.56981543  4.07474189  3.62488164
  13.49773133  3.81001076 11.40829291
  13.47858841 11.62042388  3.90011206
  15.41238588  1.94533509 15.39288975
   0.09019663  1.93240240  7.79058857
  15.35653949  9.65664403 15.17115810
   0.14686185  9.66436451  7.52037498
   7.68693064  1.91755972 15.30718444
   7.46875495  9.68261828 15.34441183
   7.92938589  9.66893308  7.59874463
  15.23647746  1.96773073  3.84913435
  15.30011586  9.61068192  4.02676557
   0.31480464  9.62156199 11.78583986
   7.59419352  9.66519357  4.01816781
  15.34747192  5.77311361  7.76237835
   7.52374026  5.73536331  7.88859868
   7.42757184 13.54473302  7.77428165
  15.25273673  5.78310712 11.49266539
   0.02968917 13.49965032  3.80494956
  15.29197293 13.48361538 11.49948838
   7.87753570  5.75676622  3.66004742
   7.56673948  5.76645961 11.42305642
   7.74098858 13.50149647  3.69943969
   7.62766093 13.49631350 11.56230887
   3.91282639  1.92141657 15.21945104
   3.74196190  1.91107062  7.58967079
   3.69878626  9.66610463  7.69779431
  11.59212525  1.94927027  0.12897967
  11.83687730  9.64755670  0.12698461
  11.34667842  9.65447679  7.82526593
   4.08538477  1.94398931  3.97766343
   3.75350388  1.91433516 11.77334783
   3.97053632  9.62494250  3.79739773
  11.78827422  1.89367670  3.71665928
  11.65058199  9.64452324  3.71448778
  11.30534229  9.64000186 11.45734066
   3.70467554  5.81704447  0.06365046
   3.66521948 13.47303230  0.15887791
  11.49258598  5.80866151 15.11180672
  11.75188744  5.75594576  7.50231673
  11.38151142 13.49034904  0.01683605
  11.84637883 13.51433251  7.69644951
   4.02660835  5.80610765 11.51937793
   3.80207321 13.49880815  3.75781600
   3.96474601 13.46246489 11.39954335
  11.35315826  5.85233339  4.19673933
  11.77248500  5.78125103 11.74426770
  11.52653067 13.49361094  3.84033334
  11.71975396 13.49262890 11.57448693
 


--------------------------------------------------------------------------------------------------------


 k-point  1 :   0.2500 0.2500 0.2500  plane waves:   93161
 k-point  2 :  -0.2500 0.2500 0.2500  plane waves:   93161
 k-point  3 :   0.2500-0.2500 0.2500  plane waves:   93161
 k-point  4 :  -0.2500-0.2500 0.2500  plane waves:   93161

 maximum and minimum number of plane-waves per node :     11686    11606

 maximum number of plane-waves:     93161
 maximum index in each direction: 
   IXMAX=   28   IYMAX=   28   IZMAX=   27
   IXMIN=  -28   IYMIN=  -28   IZMIN=  -28


 real space projection operators:
  total allocation   :     105602.51 KBytes
  max/ min on nodes  :      13252.59      13153.09


 parallel 3D FFT for wavefunctions:
    minimum data exchange during FFTs selected (reduces bandwidth)
 parallel 3D FFT for charge:
    minimum data exchange during FFTs selected (reduces bandwidth)


 total amount of memory used by VASP MPI-rank0   291502. kBytes
=======================================================================

   base      :      30000. kBytes
   nonlr-proj:      49467. kBytes
   fftplans  :      27976. kBytes
   grid      :      34041. kBytes
   one-center:       1026. kBytes
   wavefun   :     148992. kBytes
 
     INWAV:  cpu time   59.8140: real time   61.3384
 Broyden mixing: mesh for mixing (old mesh)
   NGX = 57   NGY = 57   NGZ = 57
  (NGX  =240   NGY  =240   NGZ  =240)
  gives a total of 185193 points

 charge density for first step will be calculated from the start-wavefunctions


--------------------------------------------------------------------------------------------------------


 Maximum index for non-local projection operator          968
 Maximum index for augmentation-charges         3288 (set IRDMAX)


--------------------------------------------------------------------------------------------------------


 initial charge from wavefunction
 First call to EWALD:  gamma=   0.115
 Maximum number of real-space cells 3x 3x 3
 Maximum number of reciprocal cells 3x 3x 3

    FEWALD:  cpu time    0.0344: real time    0.0351


--------------------------------------- Iteration      1(   1)  ---------------------------------------


    POTLOK:  cpu time    0.3266: real time    0.3515
    SETDIJ:  cpu time    1.3986: real time    1.4576
     EDDAV:  cpu time  142.9679: real time  144.0963
       DOS:  cpu time    0.0020: real time    0.0021
    CHARGE:  cpu time    5.3305: real time    5.3348
    MIXING:  cpu time    0.0648: real time    0.0649
    --------------------------------------------
      LOOP:  cpu time  150.0906: real time  151.3072

 eigenvalue-minimisations  : 25644
 total energy-change (2. order) :-0.1757874E+04  (-0.1109093E-05)
 number of electron    1923.0000023 magnetization       1.0000000
 augmentation part      496.8031771 magnetization       0.5886085

 Broyden mixing:
  rms(total) = 0.71740E-03    rms(broyden)= 0.69903E-03
  rms(prec ) = 0.83931E-03
  weight for this iteration     100.00

 Free energy of the ion-electron system (eV)
  ---------------------------------------------------
  alpha Z        PSCENC =      6118.73324990
  Ewald energy   TEWEN  =   -103797.87475369
  -Hartree energ DENC   =    -64843.59769616
  -exchange      EXHF   =         0.00000000
  -V(xc)+E(xc)   XCENC  =      8966.43832088
  PAW double counting   =    196710.55527714  -197714.09851998
  entropy T*S    EENTRO =        -0.00000000
  eigenvalues    EBANDS =    -25775.28251647
  atomic energy  EATOM  =    178577.25249613
  Solvation  Ediel_sol  =         0.00000000
  ---------------------------------------------------
  free energy    TOTEN  =     -1757.87414225 eV

  energy without entropy =    -1757.87414225  energy(sigma->0) =    -1757.87414225


--------------------------------------------------------------------------------------------------------




--------------------------------------- Iteration      1(   2)  ---------------------------------------


    POTLOK:  cpu time    0.2868: real time    0.2888
    SETDIJ:  cpu time    1.3958: real time    1.3971
     EDDAV:  cpu time  137.2352: real time  138.3493
       DOS:  cpu time    0.0019: real time    0.0019
    CHARGE:  cpu time    5.3046: real time    5.3081
    MIXING:  cpu time    0.0221: real time    0.0258
    --------------------------------------------
      LOOP:  cpu time  144.2465: real time  145.3710

 eigenvalue-minimisations  : 23964
 total energy-change (2. order) : 0.4131289E-06  (-0.1094550E-05)
 number of electron    1923.0000023 magnetization       1.0000000
 augmentation part      496.8023822 magnetization       0.5886085

 Broyden mixing:
  rms(total) = 0.62712E-03    rms(broyden)= 0.60608E-03
  rms(prec ) = 0.67682E-03
  weight for this iteration     100.00

 eigenvalues of (default mixing * dielectric matrix)
  average eigenvalue GAMMA=   0.5805
  0.5805

 Free energy of the ion-electron system (eV)
  ---------------------------------------------------
  alpha Z        PSCENC =      6118.73324990
  Ewald energy   TEWEN  =   -103797.87475369
  -Hartree energ DENC   =    -64843.60924938
  -exchange      EXHF   =         0.00000000
  -V(xc)+E(xc)   XCENC  =      8966.43751025
  PAW double counting   =    196710.44027449  -197713.98087915
  entropy T*S    EENTRO =        -0.00000000
  eigenvalues    EBANDS =    -25775.27279038
  atomic energy  EATOM  =    178577.25249613
  Solvation  Ediel_sol  =         0.00000000
  ---------------------------------------------------
  free energy    TOTEN  =     -1757.87414184 eV

  energy without entropy =    -1757.87414184  energy(sigma->0) =    -1757.87414184


--------------------------------------------------------------------------------------------------------




--------------------------------------- Iteration      1(   3)  ---------------------------------------


    POTLOK:  cpu time    0.2655: real time    0.2657
    SETDIJ:  cpu time    1.3907: real time    1.3918
     EDDAV:  cpu time   90.7754: real time   91.4852
       DOS:  cpu time    0.0019: real time    0.0019
    --------------------------------------------
      LOOP:  cpu time   92.4334: real time   93.1446

 eigenvalue-minimisations  : 13632
 total energy-change (2. order) : 0.2153683E-06  (-0.2163119E-06)
 number of electron    1923.0000023 magnetization       1.0000000
 augmentation part      496.8023822 magnetization       0.5886085

 Free energy of the ion-electron system (eV)
  ---------------------------------------------------
  alpha Z        PSCENC =      6118.73324990
  Ewald energy   TEWEN  =   -103797.87475369
  -Hartree energ DENC   =    -64843.61006393
  -exchange      EXHF   =         0.00000000
  -V(xc)+E(xc)   XCENC  =      8966.43804190
  PAW double counting   =    196710.49704282  -197714.03878304
  entropy T*S    EENTRO =        -0.00000000
  eigenvalues    EBANDS =    -25775.27137171
  atomic energy  EATOM  =    178577.25249613
  Solvation  Ediel_sol  =         0.00000000
  ---------------------------------------------------
  free energy    TOTEN  =     -1757.87414162 eV

  energy without entropy =    -1757.87414162  energy(sigma->0) =    -1757.87414162


--------------------------------------------------------------------------------------------------------




 average (electrostatic) potential at core
  the test charge radii are     0.7079  1.0397  0.7215  0.7167
  (the norm of the test charge is              1.0000)
       1 -63.2303       2 -58.5247       3 -58.8793       4 -58.8774       5 -58.9102
       6 -58.8664       7 -59.7326       8 -58.5076       9 -58.7399      10 -58.9078
      11 -58.6674      12 -58.8796      13 -58.8670      14 -58.7439      15 -58.9200
      16 -58.7711      17 -58.7364      18 -58.8391      19 -59.4889      20 -58.6088
      21 -58.9643      22 -58.6610      23 -59.3940      24 -58.8657      25 -58.9249
      26 -59.0446      27 -58.7460      28 -58.8274      29 -58.9207      30 -58.3446
      31 -58.9717      32 -59.4293      33 -58.8296      34 -58.8419      35 -58.9090
      36 -58.9891      37 -58.4976      38 -58.7419      39 -59.0356      40 -58.6965
      41 -58.9688      42 -58.8419      43 -58.9129      44 -58.7321      45 -58.7212
      46 -58.9323      47 -58.8178      48 -58.8010      49 -58.9144      50 -58.7566
      51 -58.7148      52 -58.9246      53 -58.8927      54 -58.5639      55 -59.1669
      56 -58.9176      57 -59.0549      58 -58.7395      59 -58.7893      60 -58.8372
      61 -58.9043      62 -56.7395      63 -58.8903      64 -59.1344      65 -58.9602
      66 -74.1805      67 -74.0280      68 -73.8663      69 -73.8622      70 -73.8187
      71 -74.0102      72 -74.1183      73 -74.2516      74 -74.5104      75 -73.9584
      76 -74.0310      77 -73.9942      78 -73.9259      79 -74.0029      80 -74.1422
      81 -73.9868      82 -73.8968      83 -73.8923      84 -73.7905      85 -74.0278
      86 -74.0658      87 -74.2053      88 -74.1166      89 -73.9977      90 -73.8708
      91 -73.9796      92 -74.0143      93 -74.5388      94 -74.2391      95 -74.2726
      96 -73.9596      97 -74.0311      98 -73.7274      99 -74.0442     100 -74.3381
     101 -73.9526     102 -73.8288     103 -73.8542     104 -73.9934     105 -74.2164
     106 -73.8903     107 -73.9711     108 -74.1559     109 -73.8562     110 -73.8844
     111 -74.2408     112 -74.7701     113 -74.0849     114 -74.0657     115 -74.0840
     116 -73.9867     117 -74.1197     118 -73.9579     119 -74.2624     120 -73.8162
     121 -73.9820     122 -74.2452     123 -74.2122     124 -74.3828     125 -74.1206
     126 -74.1482     127 -73.8431     128 -74.0018     129 -74.0438     130 -78.3908
     131 -78.4242     132 -79.2077     133 -79.4611     134 -79.7771     135 -78.2786
     136 -78.2495     137 -78.9682     138 -79.0022     139 -79.7589     140 -79.4632
     141 -79.0593     142 -79.0230     143 -79.2334     144 -79.5351     145 -79.3820
     146 -79.1239     147 -78.5178     148 -78.5838     149 -79.4882     150 -79.3081
     151 -79.2204     152 -79.1048     153 -79.0865     154 -78.4780     155 -78.5126
     156 -78.3948     157 -78.3923     158 -78.8059     159 -78.8681     160 -78.3084
     161 -78.3653     162 -78.5351     163 -78.4828     164 -79.2487     165 -78.5497
     166 -78.5777     167 -78.3262     168 -78.3099     169 -79.0844     170 -78.8435
     171 -78.3245     172 -79.4776     173 -78.3307     174 -78.2786     175 -79.7672
     176 -78.2886     177 -78.9348     178 -78.3281     179 -78.9018     180 -78.9825
     181 -78.3070     182 -78.8372     183 -78.2274     184 -79.3399     185 -79.4118
     186 -79.1696     187 -78.2990     188 -79.1028     189 -79.0530     190 -79.0111
     191 -79.7205     192 -78.4188     193 -79.5354     194 -78.4398     195 -78.4654
     196 -79.0088     197 -78.3334     198 -79.0880     199 -79.0497     200 -79.1887
     201 -79.0458     202 -79.3099     203 -79.1152     204 -79.0359     205 -78.7095
     206 -78.4057     207 -78.5541     208 -79.2240     209 -78.9135     210 -78.4441
     211 -78.6255     212 -78.5699     213 -79.2500     214 -78.6234     215 -79.1118
     216 -78.2861     217 -78.3429     218 -79.1893     219 -78.9479     220 -78.9959
     221 -79.3260     222 -79.2642     223 -79.4040     224 -79.1402     225 -79.1614
     226 -79.0511     227 -79.1001     228 -79.0208     229 -78.9508     230 -78.4966
     231 -79.1210     232 -78.4382     233 -79.0512     234 -78.3501     235 -78.3632
     236 -79.2119     237 -79.3305     238 -79.2021     239 -78.9032     240 -79.0799
     241 -78.9003     242 -79.0578     243 -79.4204     244 -79.2015     245 -78.9067
     246 -78.9772     247 -79.2455     248 -79.0330     249 -79.3046     250 -79.1025
     251 -78.9204     252 -79.0943     253 -78.9223     254 -79.0222     255 -78.9621
     256 -79.4167     257 -78.9927
 
 
 
 E-fermi :  -0.6938     XC(G=0):  -9.0609     alpha+bet : -7.7421


 spin component 1

 k-point     1 :       0.2500    0.2500    0.2500
  band No.  band energies     occupation 
      1     -43.9022      1.00000
      2     -35.7435      1.00000
      3     -35.7235      1.00000
      4     -35.5438      1.00000
      5     -35.4607      1.00000
      6     -35.4551      1.00000
      7     -35.4040      1.00000
      8     -35.3975      1.00000
      9     -35.3925      1.00000
     10     -35.3040      1.00000
     11     -35.2645      1.00000
     12     -35.2396      1.00000
     13     -35.2028      1.00000
     14     -35.1619      1.00000
     15     -35.1485      1.00000
     16     -35.0746      1.00000
     17     -35.0617      1.00000
     18     -35.0565      1.00000
     19     -35.0317      1.00000
     20     -35.0316      1.00000
     21     -35.0030      1.00000
     22     -34.9829      1.00000
     23     -34.9764      1.00000
     24     -34.9749      1.00000
     25     -34.9742      1.00000
     26     -34.9692      1.00000
     27     -34.9653      1.00000
     28     -34.9578      1.00000
     29     -34.9576      1.00000
     30     -34.9564      1.00000
     31     -34.9529      1.00000
     32     -34.9482      1.00000
     33     -34.9475      1.00000
     34     -34.9417      1.00000
     35     -34.9375      1.00000
     36     -34.9312      1.00000
     37     -34.9308      1.00000
     38     -34.9246      1.00000
     39     -34.9233      1.00000
     40     -34.9218      1.00000
     41     -34.9117      1.00000
     42     -34.9080      1.00000
     43     -34.9075      1.00000
     44     -34.9024      1.00000
     45     -34.8946      1.00000
     46     -34.8911      1.00000
     47     -34.8876      1.00000
     48     -34.8868      1.00000
     49     -34.8851      1.00000
     50     -34.8828      1.00000
     51     -34.8815      1.00000
     52     -34.8762      1.00000
     53     -34.8675      1.00000
     54     -34.8673      1.00000
     55     -34.8665      1.00000
     56     -34.8643      1.00000
     57     -34.8635      1.00000
     58     -34.8452      1.00000
     59     -34.8440      1.00000
     60     -34.8438      1.00000
     61     -34.8374      1.00000
     62     -34.8346      1.00000
     63     -34.8332      1.00000
     64     -34.8311      1.00000
     65     -34.8270      1.00000
     66     -34.8217      1.00000
     67     -34.8185      1.00000
     68     -34.8175      1.00000
     69     -34.8160      1.00000
     70     -34.8150      1.00000
     71     -34.8109      1.00000
     72     -34.8097      1.00000
     73     -34.8066      1.00000
     74     -34.8060      1.00000
     75     -34.8035      1.00000
     76     -34.7993      1.00000
     77     -34.7967      1.00000
     78     -34.7933      1.00000
     79     -34.7890      1.00000
     80     -34.7872      1.00000
     81     -34.7858      1.00000
     82     -34.7822      1.00000
     83     -34.7783      1.00000
     84     -34.7781      1.00000
     85     -34.7766      1.00000
     86     -34.7764      1.00000
     87     -34.7750      1.00000
     88     -34.7731      1.00000
     89     -34.7688      1.00000
     90     -34.7678      1.00000
     91     -34.7672      1.00000
     92     -34.7632      1.00000
     93     -34.7616      1.00000
     94     -34.7583      1.00000
     95     -34.7582      1.00000
     96     -34.7562      1.00000
     97     -34.7499      1.00000
     98     -34.7463      1.00000
     99     -34.7451      1.00000
    100     -34.7438      1.00000
    101     -34.7425      1.00000
    102     -34.7420      1.00000
    103     -34.7401      1.00000
    104     -34.7393      1.00000
    105     -34.7382      1.00000
    106     -34.7285      1.00000
    107     -34.7280      1.00000
    108     -34.7250      1.00000
    109     -34.7241      1.00000
    110     -34.7234      1.00000
    111     -34.7220      1.00000
    112     -34.7218      1.00000
    113     -34.7206      1.00000
[...]
   81        1.574   3.459   0.000   5.032
   82        1.575   3.458   0.000   5.032
   83        1.574   3.458   0.000   5.033
   84        1.576   3.470   0.000   5.047
   85        1.575   3.462   0.000   5.038
   86        1.574   3.464   0.000   5.038
   87        1.575   3.461   0.000   5.036
   88        1.575   3.464   0.000   5.038
   89        1.566   3.479   0.000   5.046
   90        1.575   3.455   0.000   5.030
   91        1.574   3.457   0.000   5.031
   92        1.574   3.459   0.000   5.033
   93        1.578   3.463   0.000   5.041
   94        1.578   3.471   0.000   5.049
   95        1.576   3.469   0.000   5.045
   96        1.575   3.461   0.000   5.036
   97        1.575   3.464   0.000   5.039
   98        1.578   3.457   0.000   5.035
   99        1.575   3.459   0.000   5.034
  100        1.575   3.456   0.000   5.032
  101        1.574   3.455   0.000   5.029
  102        1.575   3.455   0.000   5.030
  103        1.575   3.458   0.000   5.033
  104        1.574   3.456   0.000   5.030
  105        1.577   3.469   0.000   5.046
  106        1.574   3.458   0.000   5.033
  107        1.574   3.456   0.000   5.030
  108        1.576   3.467   0.000   5.042
  109        1.574   3.457   0.000   5.032
  110        1.574   3.457   0.000   5.031
  111        1.576   3.468   0.000   5.043
  112        1.577   3.457   0.000   5.033
  113        1.576   3.472   0.000   5.048
  114        1.577   3.469   0.000   5.045
  115        1.574   3.461   0.000   5.036
  116        1.575   3.460   0.000   5.035
  117        1.576   3.464   0.000   5.041
  118        1.576   3.465   0.000   5.041
  119        1.576   3.472   0.000   5.048
  120        1.575   3.456   0.000   5.031
  121        1.574   3.459   0.000   5.033
  122        1.577   3.465   0.000   5.042
  123        1.574   3.470   0.000   5.045
  124        1.576   3.465   0.000   5.040
  125        1.574   3.468   0.000   5.042
  126        1.576   3.467   0.000   5.042
  127        1.574   3.456   0.000   5.031
  128        1.574   3.457   0.000   5.031
  129        1.576   3.467   0.000   5.043
  130        1.737   4.369   0.000   6.106
  131        1.737   4.371   0.000   6.107
  132        1.737   4.375   0.000   6.112
  133        1.738   4.385   0.000   6.123
  134        1.738   4.382   0.000   6.120
  135        1.737   4.366   0.000   6.102
  136        1.736   4.363   0.000   6.100
  137        1.738   4.378   0.000   6.116
  138        1.738   4.377   0.000   6.115
  139        1.739   4.383   0.000   6.122
  140        1.739   4.383   0.000   6.122
  141        1.738   4.376   0.000   6.114
  142        1.738   4.378   0.000   6.116
  143        1.737   4.381   0.000   6.119
  144        1.738   4.383   0.000   6.121
  145        1.738   4.380   0.000   6.119
  146        1.737   4.378   0.000   6.115
  147        1.737   4.370   0.000   6.106
  148        1.736   4.368   0.000   6.104
  149        1.740   4.378   0.000   6.117
  150        1.738   4.383   0.000   6.121
  151        1.738   4.374   0.000   6.112
  152        1.737   4.378   0.000   6.116
  153        1.737   4.377   0.000   6.114
  154        1.737   4.371   0.000   6.108
  155        1.737   4.370   0.000   6.108
  156        1.736   4.367   0.000   6.103
  157        1.737   4.365   0.000   6.101
  158        1.737   4.375   0.000   6.112
  159        1.739   4.371   0.000   6.109
  160        1.736   4.364   0.000   6.100
  161        1.736   4.365   0.000   6.102
  162        1.736   4.368   0.000   6.105
  163        1.736   4.366   0.000   6.102
  164        1.737   4.374   0.000   6.112
  165        1.737   4.368   0.000   6.104
  166        1.736   4.368   0.000   6.104
  167        1.736   4.367   0.000   6.103
  168        1.736   4.367   0.000   6.103
  169        1.738   4.376   0.000   6.114
  170        1.738   4.371   0.000   6.109
  171        1.737   4.368   0.000   6.105
  172        1.738   4.385   0.000   6.123
  173        1.737   4.366   0.000   6.103
  174        1.737   4.367   0.000   6.104
  175        1.739   4.378   0.000   6.116
  176        1.736   4.363   0.000   6.099
  177        1.737   4.377   0.000   6.114
  178        1.737   4.366   0.000   6.102
  179        1.738   4.369   0.000   6.106
  180        1.738   4.376   0.000   6.114
  181        1.736   4.365   0.000   6.101
  182        1.737   4.372   0.000   6.109
  183        1.737   4.365   0.000   6.101
  184        1.737   4.377   0.000   6.114
  185        1.736   4.388   0.000   6.124
  186        1.737   4.378   0.000   6.115
  187        1.736   4.366   0.000   6.102
  188        1.738   4.373   0.000   6.111
  189        1.738   4.377   0.000   6.116
  190        1.738   4.377   0.000   6.115
  191        1.739   4.383   0.000   6.121
  192        1.737   4.366   0.000   6.103
  193        1.738   4.384   0.000   6.123
  194        1.737   4.366   0.000   6.102
  195        1.737   4.369   0.000   6.106
  196        1.737   4.375   0.000   6.112
  197        1.737   4.367   0.000   6.103
  198        1.737   4.380   0.000   6.116
  199        1.738   4.376   0.000   6.113
  200        1.739   4.379   0.000   6.117
  201        1.738   4.377   0.000   6.114
  202        1.738   4.373   0.000   6.111
  203        1.738   4.379   0.000   6.117
  204        1.738   4.374   0.000   6.112
  205        1.738   4.370   0.000   6.107
  206        1.736   4.366   0.000   6.102
  207        1.737   4.369   0.000   6.106
  208        1.737   4.379   0.000   6.116
  209        1.738   4.373   0.000   6.111
  210        1.736   4.367   0.000   6.104
  211        1.737   4.370   0.000   6.107
  212        1.737   4.373   0.000   6.111
  213        1.738   4.373   0.000   6.112
  214        1.735   4.376   0.000   6.111
  215        1.739   4.377   0.000   6.115
  216        1.736   4.364   0.000   6.100
  217        1.737   4.364   0.000   6.101
  218        1.737   4.375   0.000   6.112
  219        1.738   4.375   0.000   6.113
  220        1.738   4.377   0.000   6.115
  221        1.737   4.375   0.000   6.112
  222        1.737   4.377   0.000   6.115
  223        1.737   4.380   0.000   6.117
  224        1.738   4.376   0.000   6.114
  225        1.738   4.375   0.000   6.113
  226        1.738   4.376   0.000   6.114
  227        1.737   4.378   0.000   6.115
  228        1.737   4.374   0.000   6.112
  229        1.737   4.375   0.000   6.113
  230        1.736   4.366   0.000   6.102
  231        1.738   4.372   0.000   6.110
  232        1.736   4.367   0.000   6.103
  233        1.738   4.378   0.000   6.115
  234        1.737   4.367   0.000   6.103
  235        1.737   4.368   0.000   6.105
  236        1.738   4.385   0.000   6.122
  237        1.739   4.381   0.000   6.120
  238        1.737   4.376   0.000   6.113
  239        1.738   4.374   0.000   6.112
  240        1.737   4.376   0.000   6.113
  241        1.738   4.376   0.000   6.114
  242        1.738   4.384   0.000   6.122
  243        1.738   4.384   0.000   6.123
  244        1.738   4.376   0.000   6.114
  245        1.737   4.376   0.000   6.113
  246        1.738   4.376   0.000   6.114
  247        1.738   4.381   0.000   6.119
  248        1.738   4.373   0.000   6.110
  249        1.738   4.383   0.000   6.120
  250        1.738   4.372   0.000   6.110
  251        1.738   4.378   0.000   6.116
  252        1.737   4.380   0.000   6.117
  253        1.738   4.376   0.000   6.113
  254        1.739   4.382   0.000   6.121
  255        1.738   4.372   0.000   6.110
  256        1.738   4.385   0.000   6.123
  257        1.738   4.375   0.000   6.113
--------------------------------------------------
tot        345.3301194.304 111.9781651.612
 


 magnetization (x)
 
# of ion       s       p       d       tot
------------------------------------------
    1        0.000   0.000   0.000   0.000
    2       -0.000  -0.000   0.000  -0.000
    3       -0.000  -0.000  -0.000  -0.000
    4       -0.000  -0.000   0.000   0.000
    5       -0.000  -0.000   0.000   0.000
    6       -0.000  -0.000   0.000   0.000
    7       -0.000  -0.000   0.000   0.000
    8       -0.000  -0.000   0.000   0.000
    9       -0.000  -0.000   0.000  -0.000
   10        0.000   0.000   0.000   0.000
   11       -0.000  -0.000   0.000   0.000
   12        0.000   0.000   0.004   0.004
   13       -0.000  -0.000   0.000   0.000
   14        0.000   0.000   0.011   0.011
   15        0.000   0.000   0.000   0.000
   16        0.000   0.000   0.001   0.001
   17       -0.000  -0.000  -0.000  -0.000
   18       -0.000  -0.000  -0.000  -0.000
   19       -0.000  -0.000   0.000  -0.000
   20       -0.000   0.000   0.000   0.000
   21       -0.000  -0.000   0.000   0.000
   22       -0.000  -0.000   0.000   0.000
   23       -0.000  -0.000   0.000   0.000
   24        0.000  -0.000   0.000   0.000
   25       -0.000  -0.000   0.000   0.000
   26       -0.000   0.000   0.009   0.009
   27       -0.000   0.000   0.000   0.000
   28        0.000   0.000   0.000   0.000
   29       -0.000   0.000   0.000   0.000
   30        0.000   0.001   0.061   0.062
   31       -0.000  -0.000   0.000   0.000
   32        0.000   0.000   0.000   0.000
   33       -0.000  -0.000   0.000   0.000
   34       -0.000  -0.000  -0.000  -0.000
   35       -0.000  -0.000   0.000   0.000
   36       -0.000  -0.000   0.000   0.000
   37       -0.000  -0.000  -0.000  -0.000
   38        0.000   0.000   0.000   0.000
   39       -0.000  -0.000   0.001   0.001
   40       -0.000  -0.000   0.000   0.000
   41        0.000  -0.000   0.000   0.000
   42        0.000   0.000   0.000   0.000
   43       -0.000   0.000   0.000   0.000
   44        0.000   0.000   0.000   0.000
   45        0.000   0.000   0.000   0.000
   46        0.000   0.000   0.012   0.012
   47        0.000   0.000   0.000   0.000
   48       -0.000   0.000   0.010   0.010
   49        0.000  -0.000   0.000   0.000
   50        0.000   0.000   0.000   0.000
   51        0.000   0.000   0.000   0.000
   52        0.000   0.000   0.000   0.000
   53       -0.000  -0.000  -0.000  -0.000
   54       -0.000  -0.000   0.002   0.002
   55       -0.000  -0.000   0.001   0.001
   56        0.000  -0.000   0.000   0.000
   57       -0.000   0.000   0.000   0.000
   58       -0.000  -0.000   0.000   0.000
   59        0.000   0.000   0.000   0.000
   60        0.000   0.000   0.000   0.000
   61       -0.000  -0.000  -0.000  -0.000
   62        0.005   0.006   0.882   0.893
   63       -0.000  -0.000   0.000   0.000
   64        0.000   0.000   0.000   0.000
   65        0.000   0.000   0.000   0.000
   66       -0.000  -0.000   0.000  -0.000
   67       -0.000  -0.000   0.000  -0.000
   68       -0.000  -0.000   0.000  -0.000
   69       -0.000  -0.000   0.000  -0.000
   70       -0.000  -0.000   0.000  -0.000
   71       -0.000  -0.000   0.000  -0.000
   72        0.000  -0.000   0.000  -0.000
   73       -0.000  -0.000   0.000  -0.000
   74       -0.000  -0.000   0.000  -0.000
   75       -0.000  -0.000   0.000  -0.000
   76       -0.000  -0.000   0.000  -0.000
   77       -0.000  -0.000   0.000  -0.000
   78       -0.000  -0.001   0.000  -0.001
   79       -0.000  -0.000   0.000  -0.000
   80       -0.000  -0.001   0.000  -0.001
   81       -0.000  -0.000   0.000  -0.000
   82       -0.000  -0.000   0.000  -0.000
   83       -0.000  -0.000   0.000  -0.000
   84       -0.001  -0.017   0.000  -0.017
   85       -0.000  -0.000   0.000  -0.000
   86        0.000   0.000   0.000   0.000
   87       -0.000  -0.000   0.000  -0.000
   88       -0.000  -0.000   0.000  -0.000
   89       -0.000  -0.000   0.000  -0.000
   90       -0.000  -0.000   0.000  -0.000
   91       -0.000  -0.000   0.000  -0.000
   92       -0.000  -0.002   0.000  -0.002
   93       -0.000  -0.000   0.000  -0.000
   94       -0.000  -0.000   0.000  -0.000
   95       -0.000  -0.000   0.000  -0.000
   96       -0.000  -0.000   0.000  -0.000
   97       -0.000  -0.000   0.000  -0.000
   98       -0.001  -0.031   0.000  -0.032
   99       -0.000  -0.000   0.000  -0.000
  100       -0.000  -0.000   0.000  -0.000
  101       -0.000  -0.000   0.000  -0.000
  102       -0.000  -0.000   0.000  -0.000
  103       -0.000  -0.000   0.000  -0.000
  104       -0.000  -0.000   0.000  -0.000
  105       -0.000  -0.000   0.000  -0.000
  106       -0.000  -0.000   0.000  -0.000
  107       -0.000  -0.002   0.000  -0.002
  108       -0.000  -0.000   0.000  -0.000
  109       -0.000  -0.000   0.000  -0.000
  110       -0.000  -0.000   0.000  -0.000
  111       -0.000  -0.000   0.000  -0.000
  112       -0.000  -0.000   0.000  -0.000
  113       -0.000  -0.000   0.000  -0.000
  114       -0.000  -0.004   0.000  -0.004
  115       -0.000  -0.000   0.000  -0.000
  116       -0.000   0.000   0.000   0.000
  117       -0.000  -0.000   0.000  -0.000
  118       -0.000  -0.000   0.000  -0.000
  119       -0.000  -0.000   0.000  -0.000
  120       -0.000  -0.000   0.000  -0.000
  121       -0.000  -0.000   0.000  -0.000
  122       -0.000  -0.001   0.000  -0.001
  123        0.000  -0.000   0.000  -0.000
  124       -0.000  -0.000   0.000  -0.000
  125        0.000  -0.000   0.000  -0.000
  126       -0.000  -0.000   0.000  -0.000
  127       -0.000  -0.000   0.000  -0.000
  128        0.000  -0.000   0.000  -0.000
  129       -0.000  -0.000   0.000  -0.000
  130       -0.000  -0.000   0.000  -0.000
  131       -0.000  -0.000   0.000  -0.000
  132       -0.000  -0.000   0.000  -0.000
  133       -0.000  -0.000   0.000  -0.000
  134        0.000  -0.000   0.000  -0.000
  135       -0.000  -0.000   0.000  -0.000
  136       -0.000  -0.000   0.000  -0.000
  137       -0.000  -0.000   0.000  -0.000
  138       -0.000  -0.000   0.000  -0.000
  139       -0.000  -0.000   0.000  -0.000
  140       -0.000  -0.000   0.000  -0.000
  141       -0.000  -0.000   0.000  -0.000
  142       -0.000  -0.000   0.000  -0.000
  143       -0.000  -0.001   0.000  -0.001
  144        0.000  -0.000   0.000  -0.000
  145       -0.000  -0.000   0.000  -0.000
  146       -0.000  -0.000   0.000  -0.000
  147       -0.000  -0.000   0.000  -0.000
  148       -0.000  -0.000   0.000  -0.000
  149       -0.000  -0.000   0.000  -0.000
  150       -0.000  -0.000   0.000  -0.000
  151       -0.000  -0.000   0.000  -0.000
  152        0.000   0.000   0.000   0.000
  153       -0.000  -0.000   0.000  -0.000
  154       -0.000  -0.000   0.000  -0.000
  155       -0.000  -0.000   0.000  -0.000
  156       -0.000  -0.000   0.000  -0.000
  157       -0.000  -0.000   0.000  -0.000
  158       -0.000  -0.000   0.000  -0.000
  159        0.000  -0.000   0.000  -0.000
  160       -0.000  -0.000   0.000  -0.000
  161        0.000  -0.000   0.000  -0.000
  162       -0.000  -0.000   0.000  -0.000
  163       -0.000   0.000   0.000   0.000
  164       -0.000  -0.000   0.000  -0.000
  165       -0.000  -0.000   0.000  -0.000
  166        0.000  -0.000   0.000  -0.000
  167       -0.000  -0.000   0.000  -0.000
  168       -0.000  -0.000   0.000  -0.000
  169       -0.000  -0.004   0.000  -0.004
  170       -0.000  -0.000   0.000  -0.000
  171       -0.000  -0.000   0.000  -0.000
  172       -0.000  -0.000   0.000  -0.000
  173        0.000  -0.000   0.000  -0.000
  174       -0.000  -0.000   0.000  -0.000
  175       -0.000  -0.000   0.000  -0.000
  176       -0.000  -0.000   0.000  -0.000
  177       -0.000  -0.000   0.000  -0.000
  178       -0.000  -0.000   0.000  -0.000
  179       -0.000  -0.000   0.000  -0.000
  180       -0.000  -0.000   0.000  -0.000
  181        0.000  -0.000   0.000  -0.000
  182        0.000   0.000   0.000   0.000
  183       -0.000  -0.000   0.000  -0.000
  184       -0.000  -0.000   0.000  -0.000
  185        0.000  -0.000   0.000  -0.000
  186       -0.000   0.000   0.000   0.000
  187       -0.000  -0.000   0.000  -0.000
  188       -0.000  -0.000   0.000  -0.000
  189        0.000  -0.000   0.000  -0.000
  190       -0.000  -0.000   0.000  -0.000
  191       -0.000  -0.000   0.000  -0.000
  192       -0.000  -0.000   0.000  -0.000
  193       -0.000  -0.000   0.000  -0.000
  194       -0.000  -0.000   0.000  -0.000
  195       -0.000   0.000   0.000  -0.000
  196       -0.000  -0.000   0.000  -0.000
  197        0.000   0.000   0.000   0.000
  198       -0.000  -0.000   0.000  -0.000
  199        0.000  -0.000   0.000  -0.000
  200       -0.000  -0.000   0.000  -0.000
  201       -0.000  -0.000   0.000  -0.000
  202       -0.000  -0.000   0.000  -0.000
  203       -0.000  -0.000   0.000  -0.000
  204       -0.000  -0.000   0.000  -0.000
  205       -0.000  -0.000   0.000  -0.000
  206       -0.000  -0.000   0.000  -0.000
  207        0.000  -0.000   0.000  -0.000
  208       -0.000   0.000   0.000   0.000
  209       -0.000  -0.001   0.000  -0.001
  210       -0.000  -0.000   0.000  -0.000
  211       -0.000  -0.000   0.000  -0.000
  212       -0.000  -0.000   0.000  -0.000
  213       -0.000  -0.000   0.000  -0.000
  214       -0.000  -0.000   0.000  -0.000
  215       -0.000  -0.000   0.000  -0.000
  216       -0.000  -0.000   0.000  -0.000
  217       -0.000  -0.000   0.000  -0.000
  218       -0.000  -0.000   0.000  -0.000
  219        0.000   0.000   0.000   0.000
  220       -0.000  -0.000   0.000  -0.000
  221       -0.000  -0.000   0.000  -0.000
  222        0.000  -0.000   0.000  -0.000
  223       -0.000  -0.000   0.000  -0.000
  224       -0.000  -0.000   0.000  -0.000
  225       -0.000  -0.000   0.000  -0.000
  226        0.000  -0.000   0.000  -0.000
  227        0.000   0.000   0.000   0.000
  228       -0.000  -0.000   0.000  -0.000
  229       -0.000  -0.000   0.000  -0.000
  230       -0.000  -0.000   0.000  -0.000
  231       -0.000  -0.000   0.000  -0.000
  232       -0.000  -0.000   0.000  -0.000
  233       -0.000  -0.000   0.000  -0.000
  234       -0.000  -0.000   0.000  -0.000
  235        0.000   0.000   0.000   0.000
  236       -0.000  -0.000   0.000  -0.000
  237       -0.000  -0.000   0.000  -0.000
  238        0.000  -0.000   0.000  -0.000
  239       -0.000  -0.000   0.000  -0.000
  240       -0.000  -0.000   0.000  -0.000
  241       -0.000  -0.000   0.000  -0.000
  242       -0.000   0.000   0.000  -0.000
  243       -0.000  -0.000   0.000  -0.000
  244        0.000   0.000   0.000   0.000
  245       -0.000  -0.000   0.000  -0.000
  246        0.000  -0.000   0.000  -0.000
  247       -0.000  -0.000   0.000  -0.000
  248        0.000  -0.000   0.000  -0.000
  249       -0.000  -0.000   0.000  -0.000
  250       -0.000  -0.000   0.000  -0.000
  251        0.000  -0.000   0.000  -0.000
  252        0.000   0.000   0.000   0.000
  253        0.000   0.000   0.000   0.000
  254       -0.000   0.001   0.000   0.000
  255        0.000  -0.000   0.000  -0.000
  256        0.000  -0.000   0.000  -0.000
  257       -0.000  -0.000   0.000  -0.000
--------------------------------------------------
tot          0.001  -0.060   0.998   0.939
 

 total amount of memory used by VASP MPI-rank0   291502. kBytes
=======================================================================

   base      :      30000. kBytes
   nonlr-proj:      49467. kBytes
   fftplans  :      27976. kBytes
   grid      :      34041. kBytes
   one-center:       1026. kBytes
   wavefun   :     148992. kBytes
 
  
  
 General timing and accounting informations for this job:
 ========================================================
  
                  Total CPU time used (sec):     1009.503
                            User time (sec):      678.263
                          System time (sec):      331.240
                         Elapsed time (sec):     1042.825
  
                   Maximum memory used (kb):      623148.
                   Average memory used (kb):           0.
  
                          Minor page faults:        89794
                          Major page faults:           24
                 Voluntary context switches:        18988
