 vasp.6.3.0 20Jan22 (build Jan 25 2022 13:20:17) complex                        
  
 executed on             LinuxIFC date 2024.06.12  13:14:03
 running on   80 total cores
 distrk:  each k-point on   80 cores,    1 groups
 distr:  one band on NCORE=   8 cores,   10 groups


--------------------------------------------------------------------------------------------------------


 INCAR:
   SYSTEM = LTO
   ISTART = 1
   ENCUT = 700.0
   IALGO = 38
   EDIFF = 1E-6
   PREC = Accurate
   ISPIN = 2
   LMAXMIX = 4
   ADDGRID = .TRUE.
   LASPH = .TRUE.
   LREAL = Auto
   ROPT = 1E-4 1E-4 1E-4
   GGA = PS
   LDAU = .TRUE.
   LDAUTYPE = 2
   LDAUL = 2   -1    -1
   LDAUU = 4.2  0.0  0.0
   LDAUJ = 0.0  0.0  0.0
   NSW = 100
   EDIFFG = -0.01
   IBRION = 1
   ISIF = 3
   ISMEAR = 0
   SIGMA = 0.01
   ISYM = 0
   LORBIT = 11
   NEDOS = 3001
   NWRITE = 2
   NCORE = 8

 POTCAR:   PAW_PBE Ti_pv 07Sep2000                
 POTCAR:   PAW_PBE O 08Apr2002                    
 POTCAR:    PAW_PBE F 08Apr2002                   
 -----------------------------------------------------------------------------
|                                                                             |
|           W    W    AA    RRRRR   N    N  II  N    N   GGGG   !!!           |
|           W    W   A  A   R    R  NN   N  II  NN   N  G    G  !!!           |
|           W    W  A    A  R    R  N N  N  II  N N  N  G       !!!           |
|           W WW W  AAAAAA  RRRRR   N  N N  II  N  N N  G  GGG   !            |
|           WW  WW  A    A  R   R   N   NN  II  N   NN  G    G                |
|           W    W  A    A  R    R  N    N  II  N    N   GGGG   !!!           |
|                                                                             |
|     You use a magnetic or noncollinear calculation, but did not specify     |
|     the initial magnetic moment with the MAGMOM tag. Note that a            |
|     default of 1 will be used for all atoms. This ferromagnetic setup       |
|     may break the symmetry of the crystal, in particular it may rule        |
|     out finding an antiferromagnetic solution. Thence, we recommend         |
|     setting the initial magnetic moment manually or verifying carefully     |
|     that this magnetic setup is desired.                                    |
|                                                                             |
 -----------------------------------------------------------------------------

 POTCAR:   PAW_PBE Ti_pv 07Sep2000                
   VRHFIN =Ti: d3 s1                                                                                
   LEXCH  = PE                                                                                      
   EATOM  =  1042.3781 eV,   76.6126 Ry                                                             
                                                                                                    
   TITEL  = PAW_PBE Ti_pv 07Sep2000                                                                 
   LULTRA =        F    use ultrasoft PP ?                                                          
   IUNSCR =        1    unscreen: 0-lin 1-nonlin 2-no                                               
   RPACOR =    2.200    partial core radius                                                         
   POMASS =   47.880; ZVAL   =   10.000    mass and valenz                                          
   RCORE  =    2.500    outmost cutoff radius                                                       
   RWIGS  =    2.500; RWIGS  =    1.323    wigner-seitz radius (au A)                               
   ENMAX  =  222.338; ENMIN  =  166.753 eV                                                          
   RCLOC  =    1.701    cutoff for local pot                                                        
   LCOR   =        T    correct aug charges                                                         
   LPAW   =        T    paw PP                                                                      
   EAUG   =  482.848                                                                                
   DEXC   =    -.008                                                                                
   RMAX   =    3.092    core radius for proj-oper                                                   
   RAUG   =    1.300    factor for augmentation sphere                                              
   RDEP   =    2.538    radius for radial grids                                                     
   QCUT   =   -4.042; QGAM   =    8.085    optimization parameters                                  
                                                                                                    
   Description                                                                                      
     l     E      TYP  RCUT    TYP  RCUT                                                            
     1   .000     23  2.300                                                                         
     1  -.100     23  2.300                                                                         
     2   .000     23  2.500                                                                         
     2   .000     23  2.500                                                                         
     0   .000     23  2.500                                                                         
     0  1.500     23  2.500                                                                         
     3   .000      7   .000                                                                         
  local pseudopotential read in
  partial core-charges read in
  atomic valenz-charges read in
  non local Contribution for L=           1  read in
    real space projection operators read in
  non local Contribution for L=           1  read in
    real space projection operators read in
  non local Contribution for L=           2  read in
    real space projection operators read in
  non local Contribution for L=           2  read in
    real space projection operators read in
  non local Contribution for L=           0  read in
    real space projection operators read in
  non local Contribution for L=           0  read in
    real space projection operators read in
    PAW grid and wavefunctions read in
 
   number of l-projection  operators is LMAX  =           6
   number of lm-projection operators is LMMAX =          18
 
 POTCAR:   PAW_PBE O 08Apr2002                    
   VRHFIN =O: s2p4                                                                                  
   LEXCH  = PE                                                                                      
   EATOM  =   432.3788 eV,   31.7789 Ry                                                             
                                                                                                    
   TITEL  = PAW_PBE O 08Apr2002                                                                     
   LULTRA =        F    use ultrasoft PP ?                                                          
   IUNSCR =        0    unscreen: 0-lin 1-nonlin 2-no                                               
   RPACOR =     .000    partial core radius                                                         
   POMASS =   16.000; ZVAL   =    6.000    mass and valenz                                          
   RCORE  =    1.520    outmost cutoff radius                                                       
   RWIGS  =    1.550; RWIGS  =     .820    wigner-seitz radius (au A)                               
   ENMAX  =  400.000; ENMIN  =  300.000 eV                                                          
   ICORE  =        2    local potential                                                             
   LCOR   =        T    correct aug charges                                                         
   LPAW   =        T    paw PP                                                                      
   EAUG   =  605.392                                                                                
   DEXC   =     .000                                                                                
   RMAX   =    2.264    core radius for proj-oper                                                   
   RAUG   =    1.300    factor for augmentation sphere                                              
   RDEP   =    1.550    radius for radial grids                                                     
   QCUT   =   -5.520; QGAM   =   11.041    optimization parameters                                  
                                                                                                    
   Description                                                                                      
     l     E      TYP  RCUT    TYP  RCUT                                                            
     0   .000     23  1.200                                                                         
     0  -.700     23  1.200                                                                         
     1   .000     23  1.520                                                                         
     1   .600     23  1.520                                                                         
     2   .000      7  1.500                                                                         
  local pseudopotential read in
  atomic valenz-charges read in
  non local Contribution for L=           0  read in
    real space projection operators read in
  non local Contribution for L=           0  read in
    real space projection operators read in
  non local Contribution for L=           1  read in
    real space projection operators read in
  non local Contribution for L=           1  read in
    real space projection operators read in
    PAW grid and wavefunctions read in
 
   number of l-projection  operators is LMAX  =           4
   number of lm-projection operators is LMMAX =           8
 
 POTCAR:    PAW_PBE F 08Apr2002                   
   VRHFIN =F: s2p5                                                                                  
   LEXCH  = PE                                                                                      
   EATOM  =   659.6475 eV,   48.4827 Ry                                                             
                                                                                                    
   TITEL  = PAW_PBE F 08Apr2002                                                                     
   LULTRA =        F    use ultrasoft PP ?                                                          
   IUNSCR =        1    unscreen: 0-lin 1-nonlin 2-no                                               
   RPACOR =    1.200    partial core radius                                                         
   POMASS =   18.998; ZVAL   =    7.000    mass and valenz                                          
   RCORE  =    1.520    outmost cutoff radius                                                       
   RWIGS  =    1.500; RWIGS  =    0.794    wigner-seitz radius (au A)                               
   ENMAX  =  400.000; ENMIN  =  300.000 eV                                                          
   ICORE  =        2    local potential                                                             
   LCOR   =        T    correct aug charges                                                         
   LPAW   =        T    paw PP                                                                      
   EAUG   =  613.614                                                                                
   RMAX   =    1.555    core radius for proj-oper                                                   
   RAUG   =    1.300    factor for augmentation sphere                                              
   RDEP   =    1.539    radius for radial grids                                                     
   RDEPT  =    1.299    core radius for aug-charge                                                  
                                                                                                    
   Atomic configuration                                                                             
    4 entries                                                                                       
     n  l   j            E        occ.                                                              
     1  0  0.50      -663.3661   2.0000                                                             
     2  0  0.50       -29.8995   2.0000                                                             
     2  1  0.50       -11.1114   5.0000                                                             
     3  2  1.50       -10.8847   0.0000                                                             
   Description                                                                                      
     l       E           TYP  RCUT    TYP  RCUT                                                     
     0    -29.8995018     23  1.200                                                                 
     0     -9.5240782     23  1.200                                                                 
     1    -11.1113914     23  1.520                                                                 
     1      1.3605826     23  1.520                                                                 
     2    -10.8846608      7  1.500                                                                 
  local pseudopotential read in
  partial core-charges read in
  partial kinetic energy density read in
  atomic valenz-charges read in
  non local Contribution for L=           0  read in
    real space projection operators read in
  non local Contribution for L=           0  read in
    real space projection operators read in
  non local Contribution for L=           1  read in
    real space projection operators read in
  non local Contribution for L=           1  read in
    real space projection operators read in
    PAW grid and wavefunctions read in
 
   number of l-projection  operators is LMAX  =           4
   number of lm-projection operators is LMMAX =           8
 
 Optimization of the real space projectors (new method)

 maximal supplied QI-value         = 15.12
 optimisation between [QCUT,QGAM] = [ 13.45, 27.06] = [ 50.69,205.06] Ry 
 Optimized for a Real-space Cutoff    1.49 Angstroem

   l    n(q)    QCUT    max X(q) W(low)/X(q) W(high)/X(q)  e(spline) 
   1     12    13.455     4.841    0.13E-05    0.83E-06    0.56E-07
   1     12    13.455     5.701    0.32E-04    0.25E-04    0.17E-06
   2     11    13.455     4.569    0.64E-05    0.34E-05    0.50E-07
   2     11    13.455    32.276    0.49E-04    0.38E-04    0.46E-06
   0     12    13.455    30.046    0.17E-04    0.41E-05    0.51E-07
   0     12    13.455    45.433    0.12E-04    0.27E-04    0.38E-06
 Optimization of the real space projectors (new method)

 maximal supplied QI-value         = 24.76
 optimisation between [QCUT,QGAM] = [ 13.37, 26.98] = [ 50.04,203.89] Ry 
 Optimized for a Real-space Cutoff    1.17 Angstroem

   l    n(q)    QCUT    max X(q) W(low)/X(q) W(high)/X(q)  e(spline) 
   0      9    13.368     4.192    0.20E-04    0.58E-05    0.56E-07
   0      9    13.368     8.473    0.60E-04    0.52E-04    0.21E-06
   1      9    13.368     2.474    0.22E-04    0.17E-04    0.28E-07
   1      9    13.368     3.912    0.94E-04    0.97E-04    0.20E-06
 Optimization of the real space projectors (new method)

 maximal supplied QI-value         = 24.76
 optimisation between [QCUT,QGAM] = [ 13.37, 26.98] = [ 50.04,203.89] Ry 
 Optimized for a Real-space Cutoff    1.17 Angstroem

   l    n(q)    QCUT    max X(q) W(low)/X(q) W(high)/X(q)  e(spline) 
   0      9    13.368    14.049    0.39E-04    0.34E-04    0.16E-06
   0      9    13.368     8.945    0.54E-04    0.47E-04    0.20E-06
   1      9    13.368     7.086    0.99E-04    0.10E-03    0.23E-06
   1      9    13.368     6.747    0.86E-04    0.89E-04    0.21E-06
 -----------------------------------------------------------------------------
|                                                                             |
|               ----> ADVICE to this user running VASP <----                  |
|                                                                             |
|     You enforced a specific xc type in the INCAR file but a different       |
|     type was found in the POTCAR file.                                      |
|     I HOPE YOU KNOW WHAT YOU ARE DOING!                                     |
|                                                                             |
 -----------------------------------------------------------------------------

 PAW_PBE Ti_pv 07Sep2000                :
 energy of atom  1       EATOM=-1042.3781
 kinetic energy error for atom=    0.0006 (will be added to EATOM!!)
 PAW_PBE O 08Apr2002                    :
 energy of atom  2       EATOM= -432.3788
 kinetic energy error for atom=    0.0091 (will be added to EATOM!!)
  PAW_PBE F 08Apr2002                   :
 energy of atom  3       EATOM= -659.6475
 kinetic energy error for atom=    0.0140 (will be added to EATOM!!)
 
 
 POSCAR: Ti27 O27 F54
  positions in direct lattice
  velocities in cartesian coordinates
 exchange correlation table for  LEXCH =       14
   RHO(1)=    0.500       N(1)  =     2000
   RHO(2)=  100.500       N(2)  =     4000
 


--------------------------------------------------------------------------------------------------------


 ion  position               nearest neighbor table
   1  0.988  1.000  0.009-  43 1.79  46 1.82  58 1.95  55 1.95  92 2.07  73 2.12
   2  0.999  0.011  0.324-  28 1.80  46 1.84  85 1.95  74 1.96  59 2.07  91 2.08
   3  0.990  0.007  0.666-  44 1.79  29 1.86  91 1.93  92 1.94  75 2.04  60 2.06
   4  1.000  0.342  0.012-  47 1.79  30 1.85  86 1.95  76 1.96  55 2.05  94 2.10
   5  0.990  0.325  0.325-  45 1.81  47 1.87  28 1.87  56 2.06  77 2.07  93 2.09
   6  0.002  0.319  0.667-  29 1.77  94 1.91  93 1.91  78 1.92  87 1.92  57 2.12
   7  0.001  0.656  0.011-  48 1.81  30 1.82  88 1.94  79 1.94  58 2.06  96 2.11
   8  0.011  0.668  0.323-  37 1.81  48 1.82  56 1.94  59 1.94  89 2.03  95 2.12
   9  0.001  0.666  0.667-  90 1.89  80 1.89  95 1.89  96 1.89  57 1.90  60 1.91
  10  0.333  0.000  0.999-  61 1.89  65 1.89  81 1.89  73 1.89  97 1.90  98 1.90
  11  0.338  0.009  0.343-  31 1.83  49 1.83  38 1.89  74 2.01  66 2.04  97 2.11
  12  0.333  0.990  0.654-  49 1.79  33 1.81  75 1.95  82 1.95  62 2.06  98 2.11
  13  0.337  0.346  0.008-  32 1.80  50 1.84  39 1.90  76 2.01 100 2.06  61 2.12
  14  0.331  0.323  0.322-  50 1.81  31 1.83  83 1.95  77 1.95  63 2.06  99 2.09
  15  0.347  0.333  0.668-  40 1.75  99 1.93 100 1.93  62 1.94  64 1.94  78 2.10
  16  0.341  0.655  0.007-  32 1.82  41 1.85  51 1.86 102 2.05  79 2.05  65 2.12
  17  0.324  0.666  0.322-  51 1.80  37 1.85  66 1.95  63 1.95  84 2.04 101 2.08
  18  0.347  0.676  0.667-  42 1.78  33 1.84 101 1.94 102 1.94  64 2.06  80 2.13
  19  0.676  0.991  0.992-  36 1.83  43 1.84  52 1.86 103 2.04  67 2.05  81 2.10
  20  0.653  1.000  0.334-  38 1.77  68 1.92  71 1.93 104 1.94 103 1.94  85 2.07
  21  0.675  0.000  0.680-  52 1.79  44 1.87  72 1.94  69 1.94  82 2.03 104 2.09
  22  0.653  0.334  0.999-  39 1.77 105 1.93 106 1.93  70 1.94  67 1.94  86 2.08
  23  0.676  0.343  0.343-  53 1.84  45 1.84  34 1.85  83 2.06  68 2.07 105 2.08
  24  0.661  0.344  0.656-  53 1.81  35 1.83  40 1.91  87 2.04  69 2.06 106 2.09
  25  0.656  0.678  1.000-  41 1.81  36 1.82 107 1.95 108 1.95  88 2.08  70 2.08
  26  0.667  0.656  0.345-  34 1.80  54 1.82  84 1.96  89 1.96 107 2.07  71 2.09
  27  0.658  0.656  0.658-  35 1.83  54 1.84  42 1.85 108 2.05  72 2.07  90 2.11
  28  0.008  0.165  0.342-   2 1.80   5 1.87
  29  0.004  0.167  0.662-   6 1.77   3 1.86
  30  0.004  0.500  0.995-   7 1.82   4 1.85
  31  0.324  0.166  0.330-  11 1.83  14 1.83
  32  0.321  0.500  0.993-  13 1.80  16 1.82
  33  0.332  0.834  0.669-  12 1.81  18 1.84
  34  0.663  0.501  0.331-  26 1.80  23 1.85
  35  0.676  0.500  0.672-  24 1.83  27 1.83
  36  0.663  0.834  0.003-  25 1.82  19 1.83
  37  0.166  0.666  0.341-   8 1.81  17 1.85
  38  0.500  0.999  0.329-  20 1.77  11 1.89
  39  0.501  0.337  0.994-  22 1.77  13 1.90
  40  0.498  0.335  0.674-  15 1.75  24 1.91
  41  0.500  0.661  0.995-  25 1.81  16 1.85
  42  0.499  0.662  0.674-  18 1.78  27 1.85
  43  0.834  0.003  0.995-   1 1.79  19 1.84
  44  0.836  0.996  0.669-   3 1.79  21 1.87
  45  0.834  0.331  0.332-   5 1.81  23 1.84
  46  0.000  0.000  0.166-   1 1.82   2 1.84
  47  0.007  0.332  0.166-   4 1.79   5 1.87
  48  0.003  0.669  0.167-   7 1.81   8 1.82
  49  0.330  0.001  0.501-  12 1.79  11 1.83
  50  0.328  0.337  0.166-  14 1.81  13 1.84
  51  0.330  0.667  0.166-  17 1.80  16 1.86
  52  0.658  0.003  0.833-  21 1.79  19 1.86
  53  0.664  0.331  0.501-  24 1.81  23 1.84
  54  0.669  0.671  0.501-  26 1.82  27 1.84
  55  0.004  0.166  0.990-   1 1.95   4 2.05
  56  0.997  0.501  0.339-   8 1.94   5 2.06
  57  0.994  0.502  0.671-   9 1.90   6 2.12
  58  0.001  0.833  0.992-   1 1.95   7 2.06
  59  0.994  0.833  0.340-   8 1.94   2 2.07
  60  0.010  0.830  0.666-   9 1.91   3 2.06
  61  0.332  0.163  0.002-  10 1.89  13 2.12
  62  0.327  0.167  0.669-  15 1.94  12 2.06
  63  0.342  0.500  0.340-  17 1.95  14 2.06
  64  0.325  0.500  0.670-  15 1.94  18 2.06
  65  0.337  0.837  0.993-  10 1.89  16 2.12
  66  0.334  0.834  0.333-  17 1.95  11 2.04
  67  0.662  0.167  0.005-  22 1.94  19 2.05
  68  0.666  0.165  0.331-  20 1.92  23 2.07
  69  0.671  0.167  0.665-  21 1.94  24 2.06
  70  0.677  0.499  0.998-  22 1.94  25 2.08
  71  0.672  0.835  0.327-  20 1.93  26 2.09
  72  0.663  0.834  0.669-  21 1.94  27 2.07
  73  0.170  0.998  0.994-  10 1.89   1 2.12
  74  0.166  0.986  0.331-   2 1.96  11 2.01
  75  0.166  1.000  0.674-  12 1.95   3 2.04
  76  0.166  0.321  0.990-   4 1.96  13 2.01
  77  0.166  0.346  0.343-  14 1.95   5 2.07
  78  0.166  0.340  0.666-   6 1.92  15 2.10
  79  0.166  0.680  0.993-   7 1.94  16 2.05
  80  0.163  0.660  0.660-   9 1.89  18 2.13
  81  0.496  0.005  0.010-  10 1.89  19 2.10
  82  0.500  0.007  0.663-  12 1.95  21 2.03
  83  0.499  0.327  0.331-  14 1.95  23 2.06
  84  0.499  0.675  0.333-  26 1.96  17 2.04
  85  0.832  0.002  0.339-   2 1.95  20 2.07
  86  0.833  0.327  0.001-   4 1.95  22 2.08
  87  0.837  0.330  0.668-   6 1.92  24 2.04
  88  0.835  0.668  0.997-   7 1.94  25 2.08
  89  0.836  0.667  0.334-  26 1.96   8 2.03
  90  0.838  0.678  0.671-   9 1.89  27 2.11
  91  0.006  0.990  0.501-   3 1.93   2 2.08
  92  0.007  0.996  0.832-   3 1.94   1 2.07
  93  0.001  0.344  0.504-   6 1.91   5 2.09
  94  0.999  0.333  0.831-   6 1.91   4 2.10
  95  0.993  0.665  0.504-   9 1.89   8 2.12
  96  0.003  0.670  0.829-   9 1.89   7 2.11
  97  0.325  0.994  0.162-  10 1.90  11 2.11
  98  0.340  0.006  0.836-  10 1.90  12 2.11
  99  0.334  0.333  0.502-  15 1.93  14 2.09
 100  0.325  0.325  0.833-  15 1.93  13 2.06
 101  0.337  0.665  0.500-  18 1.94  17 2.08
 102  0.321  0.669  0.832-  18 1.94  16 2.05
 103  0.671  0.005  0.167-  20 1.94  19 2.04
 104  0.665  0.998  0.500-  20 1.94  21 2.09
 105  0.664  0.331  0.165-  22 1.93  23 2.08
 106  0.676  0.325  0.834-  22 1.93  24 2.09
 107  0.670  0.666  0.167-  25 1.95  26 2.07
 108  0.677  0.671  0.833-  25 1.95  27 2.05
 

IMPORTANT INFORMATION: All symmetrisations will be switched off!
NOSYMM: (Re-)initialisation of all symmetry stuff for point group C_1.


----------------------------------------------------------------------------------------

                                     Primitive cell                                     

  volume of cell :    1558.4460

  direct lattice vectors                    reciprocal lattice vectors
    11.587880817  0.000167985  0.009828425     0.086297118 -0.000001132 -0.000073231
     0.000152208 11.590701579  0.000211351    -0.000001249  0.086276054 -0.000001616
     0.009846395  0.000217510 11.603214313    -0.000073097 -0.000001571  0.086183078

  length of vectors
    11.587884986 11.590701582 11.603218493     0.086297149  0.086276054  0.086183109

  position of ions in fractional coordinates (direct lattice)
     0.987824892  0.999837436  0.009261325
     0.999302954  0.011314268  0.323869578
     0.989901748  0.006841573  0.666451835
     0.999946904  0.341941711  0.012149966
     0.990363835  0.324577991  0.325470204
     0.001838102  0.319421125  0.666826231
     0.001048439  0.656373396  0.010928921
     0.010667645  0.667537969  0.322966210
     0.000721449  0.665679086  0.666818440
     0.333070416  0.000335892  0.999254119
     0.337821979  0.009487712  0.343047669
     0.332658092  0.989546188  0.654467716
     0.337331531  0.346023318  0.008225335
     0.331492652  0.323467009  0.321594838
     0.346686026  0.333240903  0.667639937
     0.341219828  0.655145725  0.007009024
     0.324163612  0.666313442  0.321716066
     0.346624279  0.676031632  0.666962271
     0.676127026  0.990878097  0.991989891
     0.653070737  0.999633079  0.333663244
     0.674741255  0.000436642  0.679846400
     0.653306788  0.333609045  0.999065618
     0.675979727  0.342743159  0.343454448
     0.661287944  0.344224891  0.656297247
     0.655675536  0.677634551  0.999854662
     0.667037240  0.655551411  0.344636356
     0.658344177  0.656329231  0.658405875
     0.008163428  0.164923591  0.342180633
     0.003798311  0.166686467  0.662030959
     0.004393643  0.500377937  0.995495241
     0.323977883  0.166062771  0.329616352
     0.321148529  0.499819867  0.992510347
     0.332288936  0.833772129  0.669429774
     0.662604666  0.501145187  0.330638509
     0.676431617  0.500193323  0.672134885
     0.662547939  0.834397935  0.003432876
     0.166048192  0.666387212  0.341441068
     0.500168786  0.999074900  0.329332020
     0.500598727  0.337454950  0.993929434
     0.497542583  0.334574452  0.674204250
     0.500309932  0.660779832  0.994502422
     0.499218744  0.662007518  0.674222169
     0.834226646  0.002509201  0.995396407
     0.835691567  0.995607775  0.668606408
     0.834265010  0.330868525  0.332420916
     0.000493191  0.000475245  0.165702861
     0.006610907  0.331745190  0.165612788
     0.003100638  0.668953150  0.166500147
     0.329843011  0.000934736  0.500601650
     0.327993295  0.336750721  0.166113024
     0.329677327  0.666569272  0.166288014
     0.658399478  0.003141953  0.833281356
     0.664247511  0.331242357  0.501106928
     0.668738828  0.670986173  0.500658311
     0.003925297  0.166406949  0.989715419
     0.996983846  0.501442069  0.338699563
     0.994068457  0.502233231  0.671120727
     0.000560406  0.832782628  0.992398853
     0.993764940  0.833467938  0.340478772
     0.010396079  0.830138623  0.666350130
     0.332044755  0.163194410  0.002188674
     0.326605465  0.166813221  0.668572701
     0.342318184  0.499707397  0.340239131
     0.325315012  0.499619356  0.669591005
     0.336700534  0.837460652  0.992511381
     0.334113052  0.833765779  0.333241018
     0.662368273  0.166677162  0.004767111
     0.666121549  0.165019182  0.331289818
     0.670529787  0.166776749  0.665352540
     0.677419089  0.499105088  0.997717509
     0.671822521  0.834619862  0.326678824
     0.663090634  0.834239246  0.668728268
     0.169717504  0.998321498  0.993546978
     0.166460239  0.985912760  0.330833317
     0.166046623  0.999829354  0.673621942
     0.166141626  0.321480477  0.990451646
     0.166412114  0.346392342  0.343397060
     0.165971229  0.339666194  0.666169738
     0.166255116  0.679832723  0.993492787
     0.163319855  0.659924922  0.659802495
     0.496042510  0.004904055  0.009812995
     0.500169928  0.006716903  0.662767887
     0.499083717  0.326725635  0.331234714
     0.499344934  0.675156352  0.332520454
     0.831547693  0.002007926  0.338792186
     0.832942443  0.327407886  0.000925564
     0.836707344  0.329991121  0.667852902
     0.834895900  0.668482576  0.997123604
     0.835593199  0.667437290  0.333558015
     0.838433489  0.677671304  0.671062630
     0.006248470  0.990350482  0.501370281
     0.007496167  0.996356673  0.832339449
     0.001097600  0.344101831  0.503787390
     0.998838132  0.333291553  0.830977077
     0.992511750  0.664913076  0.504355985
     0.003250374  0.669905504  0.829490506
     0.325401984  0.993604629  0.162286259
     0.340420213  0.006302581  0.835651284
     0.334403432  0.333120236  0.501830387
     0.324878450  0.324984745  0.832681192
     0.337278709  0.665197162  0.500392006
     0.321169591  0.668609970  0.832419415
     0.670624743  0.004717190  0.167425523
     0.664881740  0.998011203  0.500263961
     0.664428404  0.331434922  0.164668458
     0.675699069  0.325278497  0.834411764
     0.670062979  0.665885142  0.166590084
     0.677290711  0.671004895  0.833187444

  ion indices of the primitive-cell ions
   primitive index   ion index
                 1           1
                 2           2
                 3           3
                 4           4
                 5           5
                 6           6
                 7           7
                 8           8
                 9           9
                10          10
                11          11
                12          12
                13          13
                14          14
                15          15
                16          16
                17          17
                18          18
                19          19
                20          20
                21          21
                22          22
                23          23
                24          24
                25          25
                26          26
                27          27
                28          28
                29          29
                30          30
                31          31
                32          32
                33          33
                34          34
                35          35
                36          36
                37          37
                38          38
                39          39
                40          40
                41          41
                42          42
                43          43
                44          44
                45          45
                46          46
                47          47
                48          48
                49          49
                50          50
                51          51
                52          52
                53          53
                54          54
                55          55
                56          56
                57          57
                58          58
                59          59
                60          60
                61          61
                62          62
                63          63
                64          64
                65          65
                66          66
                67          67
                68          68
                69          69
                70          70
                71          71
                72          72
                73          73
                74          74
                75          75
                76          76
                77          77
                78          78
                79          79
                80          80
                81          81
                82          82
                83          83
                84          84
                85          85
                86          86
                87          87
                88          88
                89          89
                90          90
                91          91
                92          92
                93          93
                94          94
                95          95
                96          96
                97          97
                98          98
                99          99
               100         100
               101         101
               102         102
               103         103
               104         104
               105         105
               106         106
               107         107
               108         108

----------------------------------------------------------------------------------------

 
 
 KPOINTS: Title                                   

Automatic generation of k-mesh.
 Grid dimensions read from file:
 generate k-points for:    3    3    3

 Generating k-lattice:

  Cartesian coordinates                     Fractional coordinates (reciprocal lattice)
     0.028765706 -0.000000377 -0.000024410     0.333333333  0.000000000  0.000000000
    -0.000000416  0.028758685 -0.000000539     0.000000000  0.333333333 -0.000000000
    -0.000024366 -0.000000524  0.028727693     0.000000000  0.000000000  0.333333333

  Length of vectors
     0.028765716  0.028758685  0.028727703

  Shift w.r.t. Gamma in fractional coordinates (k-lattice)
     0.000000000  0.000000000  0.000000000

 
 Subroutine IBZKPT returns following result:
 ===========================================
 
 Found     14 irreducible k-points:
 
 Following reciprocal coordinates:
            Coordinates               Weight
  0.000000  0.000000  0.000000      1.000000
  0.333333 -0.000000  0.000000      2.000000
 -0.000000  0.333333  0.000000      2.000000
  0.333333  0.333333  0.000000      2.000000
 -0.333333  0.333333 -0.000000      2.000000
 -0.000000 -0.000000  0.333333      2.000000
  0.333333 -0.000000  0.333333      2.000000
 -0.333333 -0.000000  0.333333      2.000000
  0.000000  0.333333  0.333333      2.000000
 -0.000000  0.333333 -0.333333      2.000000
  0.333333  0.333333  0.333333      2.000000
 -0.333333  0.333333 -0.333333      2.000000
 -0.333333  0.333333  0.333333      2.000000
  0.333333  0.333333 -0.333333      2.000000
 
 Following cartesian coordinates:
            Coordinates               Weight
  0.000000  0.000000  0.000000      1.000000
  0.028766 -0.000000 -0.000024      2.000000
 -0.000000  0.028759 -0.000001      2.000000
  0.028765  0.028758 -0.000025      2.000000
 -0.028766  0.028759  0.000024      2.000000
 -0.000024 -0.000001  0.028728      2.000000
  0.028741 -0.000001  0.028703      2.000000
 -0.028790 -0.000000  0.028752      2.000000
 -0.000025  0.028758  0.028727      2.000000
  0.000024  0.028759 -0.028728      2.000000
  0.028741  0.028758  0.028703      2.000000
 -0.028742  0.028760 -0.028704      2.000000
 -0.028790  0.028759  0.028752      2.000000
  0.028790  0.028759 -0.028753      2.000000
 


--------------------------------------------------------------------------------------------------------




 Dimension of arrays:
   k-points           NKPTS =     14   k-points in BZ     NKDIM =     14   number of bands    NBANDS=    540
   number of dos      NEDOS =   3001   number of ions     NIONS =    108
   non local maximal  LDIM  =      6   non local SUM 2l+1 LMDIM =     18
   total plane-waves  NPLWV = ******
   max r-space proj   IRMAX =   8903   max aug-charges    IRDMAX= 199474
   dimension x,y,z NGX =   100 NGY =  100 NGZ =  100
   dimension x,y,z NGXF=   200 NGYF=  200 NGZF=  200
   support grid    NGXF=   400 NGYF=  400 NGZF=  400
   ions per type =              27  27  54
   NGX,Y,Z   is equivalent  to a cutoff of  14.35, 14.34, 14.33 a.u.
   NGXF,Y,Z  is equivalent  to a cutoff of  28.69, 28.69, 28.66 a.u.

 SYSTEM =  LTO                                     
 POSCAR =  Ti27 O27 F54                            

 Startparameter for this run:
   NWRITE =      2    write-flag & timer
   PREC   = accura    normal or accurate (medium, high low for compatibility)
   ISTART =      0    job   : 0-new  1-cont  2-samecut
   ICHARG =      2    charge: 1-file 2-atom 10-const
   ISPIN  =      2    spin polarized calculation?
   LNONCOLLINEAR =      F non collinear calculations
   LSORBIT =      F    spin-orbit coupling
   INIWAV =      1    electr: 0-lowe 1-rand  2-diag
   LASPH  =      T    aspherical Exc in radial PAW
 Electronic Relaxation 1
   ENCUT  =  700.0 eV  51.45 Ry    7.17 a.u.  25.00 25.00 25.03*2*pi/ulx,y,z
   ENINI  =  700.0     initial cutoff
   ENAUG  =  613.6 eV  augmentation charge cutoff
   NELM   =     60;   NELMIN=  2; NELMDL=  0     # of ELM steps 
   EDIFF  = 0.1E-05   stopping-criterion for ELM
   LREAL  =      T    real-space projection
   NLSPLINE    = F    spline interpolate recip. space projectors
   LCOMPAT=      F    compatible to vasp.4.4
   GGA_COMPAT  = T    GGA compatible to vasp.4.4-vasp.4.6
   LMAXPAW     = -100 max onsite density
   LMAXMIX     =    4 max onsite mixed and CHGCAR
   VOSKOWN=      0    Vosko Wilk Nusair interpolation
   ROPT   =   -0.00010  -0.00010  -0.00010
 Ionic relaxation
   EDIFFG = -.1E-01   stopping-criterion for IOM
   NSW    =    100    number of steps for IOM
   NBLOCK =      1;   KBLOCK =    100    inner block; outer block 
   IBRION =      1    ionic relax: 0-MD 1-quasi-New 2-CG
   NFREE  =      0    steps in history (QN), initial steepest desc. (CG)
   ISIF   =      3    stress and relaxation
   IWAVPR =     11    prediction:  0-non 1-charg 2-wave 3-comb
   ISYM   =      0    0-nonsym 1-usesym 2-fastsym
   LCORR  =      T    Harris-Foulkes like correction to forces

   POTIM  = 0.5000    time-step for ionic-motion
   TEIN   =    0.0    initial temperature
   TEBEG  =    0.0;   TEEND  =   0.0 temperature during run
   SMASS  =  -3.00    Nose mass-parameter (am)
   estimated Nose-frequenzy (Omega)   =  0.10E-29 period in steps = 0.13E+47 mass=  -0.307E-26a.u.
   SCALEE = 1.0000    scale energy and forces
   NPACO  =    256;   APACO  = 10.0  distance and # of slots for P.C.
   PSTRESS=    0.0 pullay stress

  Mass of Ions in am
   POMASS =  47.88 16.00 19.00
  Ionic Valenz
   ZVAL   =  10.00  6.00  7.00
  Atomic Wigner-Seitz radii
   RWIGS  =  -1.00 -1.00 -1.00
  virtual crystal weights 
   VCA    =   1.00  1.00  1.00
   NELECT =     810.0000    total number of electrons
   NUPDOWN=      -1.0000    fix difference up-down

 DOS related values:
   EMIN   =  10.00;   EMAX   =-10.00  energy-range for DOS
   EFERMI =   0.00
   ISMEAR =     0;   SIGMA  =   0.01  broadening in eV -4-tet -1-fermi 0-gaus

 Electronic relaxation 2 (details)
   IALGO  =     38    algorithm
   LDIAG  =      T    sub-space diagonalisation (order eigenvalues)
   LSUBROT=      F    optimize rotation matrix (better conditioning)
   TURBO    =      0    0=normal 1=particle mesh
   IRESTART =      0    0=no restart 2=restart with 2 vectors
   NREBOOT  =      0    no. of reboots
   NMIN     =      0    reboot dimension
   EREF     =   0.00    reference energy to select bands
   IMIX   =      4    mixing-type and parameters
     AMIX     =   0.40;   BMIX     =  1.00
     AMIX_MAG =   1.60;   BMIX_MAG =  1.00
     AMIN     =   0.10
     WC   =   100.;   INIMIX=   1;  MIXPRE=   1;  MAXMIX= -45

 Intra band minimization:
   WEIMIN = 0.0010     energy-eigenvalue tresh-hold
   EBREAK =  0.46E-09  absolut break condition
   DEPER  =   0.30     relativ break condition  

   TIME   =   0.40     timestep for ELM

  volume/ion in A,a.u.               =      14.43        97.38
  Fermi-wavevector in a.u.,A,eV,Ry     =   1.316253  2.487357 23.572379  1.732521
  Thomas-Fermi vector in A             =   2.446378
 
 Write flags
   LWAVE        =      T    write WAVECAR
   LDOWNSAMPLE  =      F    k-point downsampling of WAVECAR
   LCHARG       =      T    write CHGCAR
   LVTOT        =      F    write LOCPOT, total local potential
   LVHAR        =      F    write LOCPOT, Hartree potential only
   LELF         =      F    write electronic localiz. function (ELF)
   LORBIT       =     11    0 simple, 1 ext, 2 COOP (PROOUT), +10 PAW based schemes


 Dipole corrections
   LMONO  =      F    monopole corrections only (constant potential shift)
   LDIPOL =      F    correct potential (dipole corrections)
   IDIPOL =      0    1-x, 2-y, 3-z, 4-all directions 
   EPSILON=  1.0000000 bulk dielectric constant

 LDA+U is selected, type is set to LDAUTYPE =  2
   angular momentum for each species LDAUL =     2   -1   -1
   U (eV)           for each species LDAUU =   4.2  0.0  0.0
   J (eV)           for each species LDAUJ =   0.0  0.0  0.0
 Exchange correlation treatment:
   GGA     =    PS    GGA type
   LEXCH   =    14    internal setting for exchange type
   LIBXC   =     F    Libxc                    
   VOSKOWN =     0    Vosko Wilk Nusair interpolation
   LHFCALC =     F    Hartree Fock is set to
   LHFONE  =     F    Hartree Fock one center treatment
   AEXX    =    0.0000 exact exchange contribution

 Linear response parameters
   LEPSILON=     F    determine dielectric tensor
   LRPA    =     F    only Hartree local field effects (RPA)
   LNABLA  =     F    use nabla operator in PAW spheres
   LVEL    =     F    velocity operator in full k-point grid
   CSHIFT  =0.1000    complex shift for real part using Kramers Kronig
   OMEGAMAX=  -1.0    maximum frequency
   DEG_THRESHOLD= 0.2000000E-02 threshold for treating states as degnerate
   RTIME   =   -0.100 relaxation time in fs
  (WPLASMAI=    0.000 imaginary part of plasma frequency in eV, 0.658/RTIME)
   DFIELD  = 0.0000000 0.0000000 0.0000000 field for delta impulse in time
 
  Optional k-point grid parameters
   LKPOINTS_OPT  =     F    use optional k-point grid
   KPOINTS_OPT_MODE=     1    mode for optional k-point grid
 
 Orbital magnetization related:
   ORBITALMAG=     F  switch on orbital magnetization
   LCHIMAG   =     F  perturbation theory with respect to B field
   DQ        =  0.001000  dq finite difference perturbation B field
   LLRAUG    =     F  two centre corrections for induced B field



--------------------------------------------------------------------------------------------------------


 quasi-Newton-method for relaxation of ions
 charge density and potential will be updated during run
 spin polarized calculation
 Variant of blocked Davidson
 Davidson routine will perform the subspace rotation
 perform sub-space diagonalisation
    after iterative eigenvector-optimisation
 modified Broyden-mixing scheme, WC =      100.0
 initial mixing is a Kerker type mixing with AMIX =  0.4000 and BMIX =      1.0000
 Hartree-type preconditioning will be used
 using additional bands          135
 real space projection scheme for non local part
 use partial core corrections
 calculate Harris-corrections to forces 
   (improved forces if not selfconsistent)
 use gradient corrections 
 use of overlap-Matrix (Vanderbilt PP)
 Gauss-broadening in eV      SIGMA  =   0.01


--------------------------------------------------------------------------------------------------------


  energy-cutoff  :      700.00
  volume of cell :     1558.45
      direct lattice vectors                 reciprocal lattice vectors
    11.587880817  0.000167985  0.009828425     0.086297118 -0.000001132 -0.000073231
     0.000152208 11.590701579  0.000211351    -0.000001249  0.086276054 -0.000001616
     0.009846395  0.000217510 11.603214313    -0.000073097 -0.000001571  0.086183078

  length of vectors
    11.587884986 11.590701582 11.603218493     0.086297149  0.086276054  0.086183109


 
 k-points in units of 2pi/SCALE and weight: Title                                   
   0.00000000  0.00000000  0.00000000       0.037
   0.02876571 -0.00000038 -0.00002441       0.074
  -0.00000042  0.02875868 -0.00000054       0.074
   0.02876529  0.02875831 -0.00002495       0.074
  -0.02876612  0.02875906  0.00002387       0.074
  -0.00002437 -0.00000052  0.02872769       0.074
   0.02874134 -0.00000090  0.02870328       0.074
  -0.02879007 -0.00000015  0.02875210       0.074
  -0.00002478  0.02875816  0.02872715       0.074
   0.00002395  0.02875921 -0.02872823       0.074
   0.02874092  0.02875778  0.02870274       0.074
  -0.02874176  0.02875959 -0.02870382       0.074
  -0.02879049  0.02875854  0.02875156       0.074
   0.02878966  0.02875883 -0.02875264       0.074
 
 k-points in reciprocal lattice and weights: Title                                   
   0.00000000  0.00000000  0.00000000       0.037
   0.33333333 -0.00000000  0.00000000       0.074
  -0.00000000  0.33333333  0.00000000       0.074
   0.33333333  0.33333333  0.00000000       0.074
  -0.33333333  0.33333333 -0.00000000       0.074
  -0.00000000 -0.00000000  0.33333333       0.074
   0.33333333 -0.00000000  0.33333333       0.074
  -0.33333333 -0.00000000  0.33333333       0.074
   0.00000000  0.33333333  0.33333333       0.074
  -0.00000000  0.33333333 -0.33333333       0.074
   0.33333333  0.33333333  0.33333333       0.074
  -0.33333333  0.33333333 -0.33333333       0.074
  -0.33333333  0.33333333  0.33333333       0.074
   0.33333333  0.33333333 -0.33333333       0.074
 
 position of ions in fractional coordinates (direct lattice) 
   0.98782489  0.99983744  0.00926132
   0.99930295  0.01131427  0.32386958
   0.98990175  0.00684157  0.66645183
   0.99994690  0.34194171  0.01214997
   0.99036384  0.32457799  0.32547020
   0.00183810  0.31942113  0.66682623
   0.00104844  0.65637340  0.01092892
   0.01066764  0.66753797  0.32296621
   0.00072145  0.66567909  0.66681844
   0.33307042  0.00033589  0.99925412
   0.33782198  0.00948771  0.34304767
   0.33265809  0.98954619  0.65446772
   0.33733153  0.34602332  0.00822534
   0.33149265  0.32346701  0.32159484
   0.34668603  0.33324090  0.66763994
   0.34121983  0.65514572  0.00700902
   0.32416361  0.66631344  0.32171607
   0.34662428  0.67603163  0.66696227
   0.67612703  0.99087810  0.99198989
   0.65307074  0.99963308  0.33366324
   0.67474126  0.00043664  0.67984640
   0.65330679  0.33360904  0.99906562
   0.67597973  0.34274316  0.34345445
   0.66128794  0.34422489  0.65629725
   0.65567554  0.67763455  0.99985466
   0.66703724  0.65555141  0.34463636
   0.65834418  0.65632923  0.65840588
   0.00816343  0.16492359  0.34218063
   0.00379831  0.16668647  0.66203096
   0.00439364  0.50037794  0.99549524
   0.32397788  0.16606277  0.32961635
   0.32114853  0.49981987  0.99251035
   0.33228894  0.83377213  0.66942977
   0.66260467  0.50114519  0.33063851
   0.67643162  0.50019332  0.67213489
   0.66254794  0.83439794  0.00343288
   0.16604819  0.66638721  0.34144107
   0.50016879  0.99907490  0.32933202
   0.50059873  0.33745495  0.99392943
   0.49754258  0.33457445  0.67420425
   0.50030993  0.66077983  0.99450242
   0.49921874  0.66200752  0.67422217
   0.83422665  0.00250920  0.99539641
   0.83569157  0.99560778  0.66860641
   0.83426501  0.33086853  0.33242092
   0.00049319  0.00047525  0.16570286
   0.00661091  0.33174519  0.16561279
   0.00310064  0.66895315  0.16650015
   0.32984301  0.00093474  0.50060165
   0.32799329  0.33675072  0.16611302
   0.32967733  0.66656927  0.16628801
   0.65839948  0.00314195  0.83328136
   0.66424751  0.33124236  0.50110693
   0.66873883  0.67098617  0.50065831
   0.00392530  0.16640695  0.98971542
   0.99698385  0.50144207  0.33869956
   0.99406846  0.50223323  0.67112073
   0.00056041  0.83278263  0.99239885
   0.99376494  0.83346794  0.34047877
   0.01039608  0.83013862  0.66635013
   0.33204476  0.16319441  0.00218867
   0.32660547  0.16681322  0.66857270
   0.34231818  0.49970740  0.34023913
   0.32531501  0.49961936  0.66959100
   0.33670053  0.83746065  0.99251138
   0.33411305  0.83376578  0.33324102
   0.66236827  0.16667716  0.00476711
   0.66612155  0.16501918  0.33128982
   0.67052979  0.16677675  0.66535254
   0.67741909  0.49910509  0.99771751
   0.67182252  0.83461986  0.32667882
   0.66309063  0.83423925  0.66872827
   0.16971750  0.99832150  0.99354698
   0.16646024  0.98591276  0.33083332
   0.16604662  0.99982935  0.67362194
   0.16614163  0.32148048  0.99045165
   0.16641211  0.34639234  0.34339706
   0.16597123  0.33966619  0.66616974
   0.16625512  0.67983272  0.99349279
   0.16331985  0.65992492  0.65980249
   0.49604251  0.00490405  0.00981299
   0.50016993  0.00671690  0.66276789
   0.49908372  0.32672564  0.33123471
   0.49934493  0.67515635  0.33252045
   0.83154769  0.00200793  0.33879219
   0.83294244  0.32740789  0.00092556
   0.83670734  0.32999112  0.66785290
   0.83489590  0.66848258  0.99712360
   0.83559320  0.66743729  0.33355801
   0.83843349  0.67767130  0.67106263
   0.00624847  0.99035048  0.50137028
   0.00749617  0.99635667  0.83233945
   0.00109760  0.34410183  0.50378739
   0.99883813  0.33329155  0.83097708
   0.99251175  0.66491308  0.50435599
   0.00325037  0.66990550  0.82949051
   0.32540198  0.99360463  0.16228626
   0.34042021  0.00630258  0.83565128
   0.33440343  0.33312024  0.50183039
   0.32487845  0.32498475  0.83268119
   0.33727871  0.66519716  0.50039201
   0.32116959  0.66860997  0.83241941
   0.67062474  0.00471719  0.16742552
   0.66488174  0.99801120  0.50026396
   0.66442840  0.33143492  0.16466846
   0.67569907  0.32527850  0.83441176
   0.67006298  0.66588514  0.16659008
   0.67729071  0.67100490  0.83318744
 
 position of ions in cartesian coordinates  (Angst):
  11.44704049 11.58898530  0.11738122
  11.58299420  0.13137862  3.76775209
  11.47742666  0.07960988  7.74271409
  11.58743723  3.96351495  0.15087883
  11.47947220  3.76232379  3.78630285
   0.02791416  3.70246029  7.73741325
   0.01235670  7.60783071  0.12695964
   0.12689705  7.73730543  3.74769208
   0.01502715  7.71583280  7.73738504
   3.86941939  0.00416652 11.59783333
   3.91802006  0.11010060  3.98377789
   3.86139709 11.46973280  7.59740782
   3.90909124  4.01071147  0.09882890
   3.84451313  3.74933520  3.73486024
   4.02398092  3.86269931  7.75024709
   3.95418343  7.59365743  0.08481932
   3.75963847  7.72316470  3.73626731
   4.02331091  7.83588420  7.74245582
   7.84479773 11.48530167 11.51712599
   7.57114340 11.58663098  3.87819606
   7.82551535  0.00532220  7.89503522
   7.58032917  3.86708993 11.59886397
   7.83660647  3.97282194  3.99189182
   7.66944044  3.99006182  7.62172978
   7.60783807  7.85458748 11.60811540
   7.73304125  7.59848779  4.00558397
   7.63539668  7.60757005  7.64623368
   0.09799118  1.91165593  3.97051031
   0.05055836  1.93215773  7.68175966
   0.06079121  5.79994862 11.55109356
   3.75748790  1.92491014  3.82782846
   3.73127961  5.79353275 11.51957229
   3.85724296  9.66420536  7.77097923
   7.68151577  5.80880754  3.84308776
   7.84510320  5.79785136  7.80567909
   7.67768735  9.67136951  0.04652056
   1.92761005  7.72399747  3.96358672
   5.79929108 11.58013467  3.82643704
   5.81071637  3.91163990 11.53776766
   5.77215356  3.87818286  7.82789718
   5.80742471  7.65920220 11.54448166
   5.79162673  7.67336210  7.82819077
   9.67672039  0.02944004 11.55799751
   9.69062918 11.54007842  7.76640740
   9.67068701  3.83521078  3.86542057
   0.00734669  0.00554455  1.92269075
   0.07828759  3.84519663  1.92177577
   0.03767107  7.75367307  1.93210874
   3.82711076  0.01099855  5.81183027
   3.80243408  3.90326834  1.93073985
   3.82200037  7.72609706  1.93285655
   7.63765998  0.03670928  9.67521385
   7.70220550  3.83955189  5.82104960
   7.75429765  7.77742173  5.81596015
   0.05525633  1.92898922 11.48395387
  11.55634127  5.81230653  3.93990838
  11.52583136  5.82154846  7.79703390
   0.01639222  9.65275087 11.51519810
  11.51910904  9.66071914  3.96059146
   0.12715602  9.62203573  7.73208099
   3.84774144  1.89159396  0.02869362
   3.79127362  1.93368255  7.76083760
   3.97016850  5.79209082  3.95133761
   3.77638069  5.79113915  7.77271086
   3.91154579  9.70702894 11.51980849
   3.87507036  9.66405894  3.87012697
   7.67551691  1.93201754  0.06185907
   7.72222425  1.91287205  3.85060856
   7.77659596  1.93331689  7.72685362
   7.85975155  5.78530894 11.58349353
   7.78834295  9.67401367  3.79730376
   7.69052678  9.66967499  7.76609087
   1.97660101 11.57149118 11.53021757
   1.93232899 11.42752051  3.84057429
   1.93091341 11.58889808  7.81802305
   1.93503067  3.72642761 11.49412357
   1.93179769  4.01503291  3.98621847
   1.92986590  3.93714227  7.73141326
   1.93643027  7.87998224 11.52948743
   1.89912813  7.64916378  7.65757440
   5.74817885  0.05692689  0.11873863
   5.80243641  0.07808180  7.69515513
   5.78663383  3.78713522  3.84836164
   5.78972647  7.82569200  3.86335656
   9.63921175  0.02348665  3.93925157
   9.65209670  3.79502722  0.01899523
   9.70229116  3.82511443  7.75753361
   9.68459400  7.74853919 11.57818587
   9.68614033  7.73627937  3.87869876
   9.72237804  7.85497266  7.79486723
   0.07749395 11.47896700  5.81777754
   0.09521189 11.54865516  9.65809726
   0.01773173  3.98849140  5.84563656
  11.58265008  3.86343146  9.65189256
  11.50617516  7.70708547  5.86204594
   0.04593440  7.76485576  9.62492965
   3.77246858 11.51666470  1.88645043
   3.95297797  0.07329028  9.69958807
   3.88001904  3.86126257  5.82620259
   3.77290113  3.76703689  9.66504005
   3.91337378  7.71026729  5.80961119
   3.72997304  7.74989364  9.66203877
   7.77276885  0.05482462  1.94926641
   7.70964806 11.56787053  5.81141563
   7.70098899  3.84171070  1.91728374
   7.83818574  3.77050099  9.68856833
   7.76635160  7.71822476  1.93970685
   7.85667006  7.77771250  9.67445100
 


--------------------------------------------------------------------------------------------------------


 k-point   1 :   0.0000 0.0000 0.0000  plane waves:   65347
 k-point   2 :   0.3333-0.0000 0.0000  plane waves:   65491
 k-point   3 :  -0.0000 0.3333 0.0000  plane waves:   65504
 k-point   4 :   0.3333 0.3333 0.0000  plane waves:   65526
 k-point   5 :  -0.3333 0.3333-0.0000  plane waves:   65525
 k-point   6 :  -0.0000-0.0000 0.3333  plane waves:   65497
 k-point   7 :   0.3333-0.0000 0.3333  plane waves:   65516
 k-point   8 :  -0.3333-0.0000 0.3333  plane waves:   65531
 k-point   9 :   0.0000 0.3333 0.3333  plane waves:   65531
 k-point  10 :  -0.0000 0.3333-0.3333  plane waves:   65530
 k-point  11 :   0.3333 0.3333 0.3333  plane waves:   65565
 k-point  12 :  -0.3333 0.3333-0.3333  plane waves:   65565
 k-point  13 :  -0.3333 0.3333 0.3333  plane waves:   65575
 k-point  14 :   0.3333 0.3333-0.3333  plane waves:   65575

 maximum and minimum number of plane-waves per node :      8259     8134

 maximum number of plane-waves:     65575
 maximum index in each direction: 
   IXMAX=   25   IYMAX=   25   IZMAX=   25
   IXMIN=  -25   IYMIN=  -25   IZMIN=  -25


 real space projection operators:
  total allocation   :      54016.28 KBytes
  max/ min on nodes  :       7365.73       6122.31


 parallel 3D FFT for wavefunctions:
    minimum data exchange during FFTs selected (reduces bandwidth)
 parallel 3D FFT for charge:
    minimum data exchange during FFTs selected (reduces bandwidth)


 total amount of memory used by VASP MPI-rank0   299413. kBytes
=======================================================================

   base      :      30000. kBytes
   nonlr-proj:      25321. kBytes
   fftplans  :      18873. kBytes
   grid      :      21088. kBytes
   one-center:        435. kBytes
   wavefun   :     203696. kBytes
 
     INWAV:  cpu time      0.0001: real time      0.0002
 Broyden mixing: mesh for mixing (old mesh)
   NGX = 49   NGY = 51   NGZ = 51
  (NGX  =200   NGY  =200   NGZ  =200)
  gives a total of 127449 points

 initial charge density was supplied:
 charge density of overlapping atoms calculated
 number of electron     810.0000000 magnetization     108.0000000
 keeping initial charge density in first step


--------------------------------------------------------------------------------------------------------


 Maximum index for non-local projection operator         1370
 Maximum index for augmentation-charges         4044 (set IRDMAX)


--------------------------------------------------------------------------------------------------------


 First call to EWALD:  gamma=   0.153
 Maximum number of real-space cells 3x 3x 3
 Maximum number of reciprocal cells 3x 3x 3

    FEWALD:  cpu time      0.0047: real time      0.0052


--------------------------------------- Iteration      1(   1)  ---------------------------------------


    POTLOK:  cpu time      0.1606: real time      0.1677
    SETDIJ:  cpu time      0.9003: real time      0.9051
     EDDAV:  cpu time     87.8872: real time     88.1874
       DOS:  cpu time      0.0062: real time      0.0063
    --------------------------------------------
      LOOP:  cpu time     88.9543: real time     89.2665

 eigenvalue-minimisations  : 30240
 total energy-change (2. order) : 0.1319409E+05  (-0.4641156E+05)
 number of electron     810.0000000 magnetization     108.0000000
 augmentation part      810.0000000 magnetization     108.0000000

 Free energy of the ion-electron system (eV)
  ---------------------------------------------------
  alpha Z        PSCENC =      2559.35136574
  Ewald energy   TEWEN  =    -43252.81545893
  -Hartree energ DENC   =    -27750.88681569
  -exchange      EXHF   =         0.00000000
  -V(xc)+E(xc)   XCENC  =      3762.35511309
  PAW double counting   =     55010.87535266   -55252.78449702
  entropy T*S    EENTRO =        -0.00284908
  eigenvalues    EBANDS =      2847.55393497
  atomic energy  EATOM  =     75270.44210491
  Solvation  Ediel_sol  =         0.00000000
  ---------------------------------------------------
  free energy    TOTEN  =     13194.08825065 eV

  energy without entropy =    13194.09109973  energy(sigma->0) =    13194.08967519


--------------------------------------------------------------------------------------------------------




--------------------------------------- Iteration      1(   2)  ---------------------------------------


     EDDAV:  cpu time     88.0376: real time     88.2658
       DOS:  cpu time      0.0074: real time      0.0074
    --------------------------------------------
      LOOP:  cpu time     88.0451: real time     88.2732

 eigenvalue-minimisations  : 30300
 total energy-change (2. order) :-0.1154972E+05  (-0.1080783E+05)
 number of electron     810.0000000 magnetization     108.0000000
 augmentation part      810.0000000 magnetization     108.0000000

 Free energy of the ion-electron system (eV)
  ---------------------------------------------------
  alpha Z        PSCENC =      2559.35136574
  Ewald energy   TEWEN  =    -43252.81545893
  -Hartree energ DENC   =    -27750.88681569
  -exchange      EXHF   =         0.00000000
  -V(xc)+E(xc)   XCENC  =      3762.35511309
  PAW double counting   =     55010.87535266   -55252.78449702
  entropy T*S    EENTRO =        -0.00155093
  eigenvalues    EBANDS =     -8702.16958559
  atomic energy  EATOM  =     75270.44210491
  Solvation  Ediel_sol  =         0.00000000
  ---------------------------------------------------
  free energy    TOTEN  =      1644.36602823 eV

  energy without entropy =     1644.36757917  energy(sigma->0) =     1644.36680370


--------------------------------------------------------------------------------------------------------




--------------------------------------- Iteration      1(   3)  ---------------------------------------


     EDDAV:  cpu time     93.7034: real time     93.9666
       DOS:  cpu time      0.0090: real time      0.0090
    --------------------------------------------
      LOOP:  cpu time     93.7125: real time     93.9757

 eigenvalue-minimisations  : 32430
 total energy-change (2. order) :-0.2414407E+04  (-0.2266577E+04)
 number of electron     810.0000000 magnetization     108.0000000
 augmentation part      810.0000000 magnetization     108.0000000

 Free energy of the ion-electron system (eV)
  ---------------------------------------------------
  alpha Z        PSCENC =      2559.35136574
  Ewald energy   TEWEN  =    -43252.81545893
  -Hartree energ DENC   =    -27750.88681569
  -exchange      EXHF   =         0.00000000
  -V(xc)+E(xc)   XCENC  =      3762.35511309
  PAW double counting   =     55010.87535266   -55252.78449702
  entropy T*S    EENTRO =        -0.00000000
  eigenvalues    EBANDS =    -11116.57861783
  atomic energy  EATOM  =     75270.44210491
  Solvation  Ediel_sol  =         0.00000000
  ---------------------------------------------------
  free energy    TOTEN  =      -770.04145308 eV

  energy without entropy =     -770.04145308  energy(sigma->0) =     -770.04145308


--------------------------------------------------------------------------------------------------------




--------------------------------------- Iteration      1(   4)  ---------------------------------------


     EDDAV:  cpu time    104.4942: real time    104.9161
       DOS:  cpu time      0.0039: real time      0.0039
    --------------------------------------------
      LOOP:  cpu time    104.4981: real time    104.9200

 eigenvalue-minimisations  : 37400
 total energy-change (2. order) :-0.1533799E+03  (-0.1516980E+03)
 number of electron     810.0000000 magnetization     108.0000000
 augmentation part      810.0000000 magnetization     108.0000000

 Free energy of the ion-electron system (eV)
  ---------------------------------------------------
  alpha Z        PSCENC =      2559.35136574
  Ewald energy   TEWEN  =    -43252.81545893
  -Hartree energ DENC   =    -27750.88681569
  -exchange      EXHF   =         0.00000000
  -V(xc)+E(xc)   XCENC  =      3762.35511309
  PAW double counting   =     55010.87535266   -55252.78449702
  entropy T*S    EENTRO =        -0.00000000
  eigenvalues    EBANDS =    -11269.95848441
  atomic energy  EATOM  =     75270.44210491
  Solvation  Ediel_sol  =         0.00000000
  ---------------------------------------------------
  free energy    TOTEN  =      -923.42131965 eV

  energy without entropy =     -923.42131965  energy(sigma->0) =     -923.42131965


--------------------------------------------------------------------------------------------------------




--------------------------------------- Iteration      1(   5)  ---------------------------------------


     EDDAV:  cpu time    107.0912: real time    107.4894
       DOS:  cpu time      0.0034: real time      0.0034
    CHARGE:  cpu time      3.9762: real time      3.9880
    MIXING:  cpu time      0.0045: real time      0.0050
    --------------------------------------------
      LOOP:  cpu time    111.0753: real time    111.4857

 eigenvalue-minimisations  : 38270
 total energy-change (2. order) :-0.4916828E+01  (-0.4896319E+01)
 number of electron     810.0000011 magnetization      68.8192269
 augmentation part      205.6148211 magnetization      70.5656714

 Broyden mixing:
  rms(total) = 0.10947E+02    rms(broyden)= 0.10947E+02
  rms(prec ) = 0.13038E+02
  weight for this iteration     100.00

 Free energy of the ion-electron system (eV)
  ---------------------------------------------------
  alpha Z        PSCENC =      2559.35136574
  Ewald energy   TEWEN  =    -43252.81545893
  -Hartree energ DENC   =    -27750.88681569
  -exchange      EXHF   =         0.00000000
  -V(xc)+E(xc)   XCENC  =      3762.35511309
  PAW double counting   =     55010.87535266   -55252.78449702
  entropy T*S    EENTRO =        -0.00000000
  eigenvalues    EBANDS =    -11274.87531253
  atomic energy  EATOM  =     75270.44210491
  Solvation  Ediel_sol  =         0.00000000
  ---------------------------------------------------
  free energy    TOTEN  =      -928.33814778 eV

  energy without entropy =     -928.33814778  energy(sigma->0) =     -928.33814778


--------------------------------------------------------------------------------------------------------




--------------------------------------- Iteration      1(   6)  ---------------------------------------


    POTLOK:  cpu time      0.1536: real time      0.1851
    SETDIJ:  cpu time      0.8955: real time      0.8978
     EDDAV:  cpu time    110.7684: real time    111.0486
       DOS:  cpu time      0.0055: real time      0.0055
    CHARGE:  cpu time      3.9647: real time      3.9747
    MIXING:  cpu time      0.0042: real time      0.0050
    --------------------------------------------
      LOOP:  cpu time    115.7920: real time    116.1166

 eigenvalue-minimisations  : 40280
 total energy-change (2. order) : 0.4225827E+03  (-0.1149270E+03)
 number of electron     810.0000011 magnetization      47.1280880
 augmentation part      211.7009632 magnetization      41.7142070

 Broyden mixing:
  rms(total) = 0.32798E+01    rms(broyden)= 0.32791E+01
  rms(prec ) = 0.35801E+01
  weight for this iteration     100.00

 eigenvalues of (default mixing * dielectric matrix)
  average eigenvalue GAMMA=   0.8698
  0.8698

 Free energy of the ion-electron system (eV)
  ---------------------------------------------------
  alpha Z        PSCENC =      2559.35136574
  Ewald energy   TEWEN  =    -43252.81545893
  -Hartree energ DENC   =    -28157.96793261
  -exchange      EXHF   =         0.00000000
  -V(xc)+E(xc)   XCENC  =      3909.47656239
  PAW double counting   =     57656.25952857   -58029.25031182
  entropy T*S    EENTRO =        -0.00000000
  eigenvalues    EBANDS =    -10461.25132041
  atomic energy  EATOM  =     75270.44210491
  Solvation  Ediel_sol  =         0.00000000
  ---------------------------------------------------
  free energy    TOTEN  =      -505.75546216 eV

  energy without entropy =     -505.75546216  energy(sigma->0) =     -505.75546216


--------------------------------------------------------------------------------------------------------




--------------------------------------- Iteration      1(   7)  ---------------------------------------


    POTLOK:  cpu time      0.1938: real time      0.2069
    SETDIJ:  cpu time      0.8981: real time      0.9004
     EDDAV:  cpu time    106.7613: real time    107.0307
       DOS:  cpu time      0.0049: real time      0.0049
    CHARGE:  cpu time      3.9812: real time      3.9912
    MIXING:  cpu time      0.0052: real time      0.0052
    --------------------------------------------
      LOOP:  cpu time    111.8445: real time    112.1393

 eigenvalue-minimisations  : 38470
 total energy-change (2. order) :-0.9513361E+02  (-0.1922889E+02)
 number of electron     810.0000011 magnetization      27.0168599
 augmentation part      207.5374064 magnetization      23.0926009

 Broyden mixing:
  rms(total) = 0.19153E+01    rms(broyden)= 0.19153E+01
  rms(prec ) = 0.21311E+01
  weight for this iteration     100.00

 eigenvalues of (default mixing * dielectric matrix)
  average eigenvalue GAMMA=   0.9706
  1.0853  0.8559

 Free energy of the ion-electron system (eV)
  ---------------------------------------------------
  alpha Z        PSCENC =      2559.35136574
  Ewald energy   TEWEN  =    -43252.81545893
  -Hartree energ DENC   =    -28182.93914152
  -exchange      EXHF   =         0.00000000
  -V(xc)+E(xc)   XCENC  =      3859.95874133
  PAW double counting   =     59240.22956052   -59625.52140963
  entropy T*S    EENTRO =        -0.00000000
  eigenvalues    EBANDS =    -10469.59483914
  atomic energy  EATOM  =     75270.44210491
  Solvation  Ediel_sol  =         0.00000000
  ---------------------------------------------------
  free energy    TOTEN  =      -600.88907672 eV

  energy without entropy =     -600.88907672  energy(sigma->0) =     -600.88907672


--------------------------------------------------------------------------------------------------------




--------------------------------------- Iteration      1(   8)  ---------------------------------------


    POTLOK:  cpu time      0.2026: real time      0.3520
    SETDIJ:  cpu time      0.9147: real time      0.9169
     EDDAV:  cpu time     99.3826: real time     99.6337
       DOS:  cpu time      0.0104: real time      0.0104
    CHARGE:  cpu time      3.9804: real time      3.9904
    MIXING:  cpu time      0.0047: real time      0.0047
    --------------------------------------------
      LOOP:  cpu time    104.4955: real time    104.9081

 eigenvalue-minimisations  : 35480
 total energy-change (2. order) :-0.5439151E+02  (-0.4159153E+01)
 number of electron     810.0000011 magnetization       9.8151248
 augmentation part      209.5537348 magnetization       7.0210548

 Broyden mixing:
  rms(total) = 0.12401E+01    rms(broyden)= 0.12400E+01
  rms(prec ) = 0.13304E+01
  weight for this iteration     100.00

 eigenvalues of (default mixing * dielectric matrix)
  average eigenvalue GAMMA=   1.1681
  1.4094  1.4094  0.6853

 Free energy of the ion-electron system (eV)
  ---------------------------------------------------
  alpha Z        PSCENC =      2559.35136574
  Ewald energy   TEWEN  =    -43252.81545893
  -Hartree energ DENC   =    -28030.51056186
  -exchange      EXHF   =         0.00000000
  -V(xc)+E(xc)   XCENC  =      3824.26597189
  PAW double counting   =     60242.74292689   -60646.03532148
  entropy T*S    EENTRO =        -0.00000000
  eigenvalues    EBANDS =    -10622.72161357
  atomic energy  EATOM  =     75270.44210491
  Solvation  Ediel_sol  =         0.00000000
  ---------------------------------------------------
  free energy    TOTEN  =      -655.28058641 eV

  energy without entropy =     -655.28058641  energy(sigma->0) =     -655.28058641


--------------------------------------------------------------------------------------------------------




--------------------------------------- Iteration      1(   9)  ---------------------------------------


    POTLOK:  cpu time      0.2082: real time      0.2982
    SETDIJ:  cpu time      0.9169: real time      0.9191
     EDDAV:  cpu time     99.7075: real time     99.9597
       DOS:  cpu time      0.0029: real time      0.0029
    CHARGE:  cpu time      3.9236: real time      3.9334
    MIXING:  cpu time      0.0044: real time      0.0044
    --------------------------------------------
      LOOP:  cpu time    104.7636: real time    105.1177

 eigenvalue-minimisations  : 34960
 total energy-change (2. order) :-0.5472020E+02  (-0.7935132E+01)
 number of electron     810.0000011 magnetization       4.5740962
 augmentation part      208.7167177 magnetization       3.6113414

 Broyden mixing:
  rms(total) = 0.47347E+00    rms(broyden)= 0.47335E+00
  rms(prec ) = 0.56885E+00
  weight for this iteration     100.00

 eigenvalues of (default mixing * dielectric matrix)
  average eigenvalue GAMMA=   1.1656
  1.8700  1.4337  0.7601  0.5988

 Free energy of the ion-electron system (eV)
  ---------------------------------------------------
  alpha Z        PSCENC =      2559.35136574
  Ewald energy   TEWEN  =    -43252.81545893
  -Hartree energ DENC   =    -27884.99334035
  -exchange      EXHF   =         0.00000000
  -V(xc)+E(xc)   XCENC  =      3788.48002295
  PAW double counting   =     60933.51217847   -61343.13748665
  entropy T*S    EENTRO =        -0.00000000
  eigenvalues    EBANDS =    -10780.84017712
  atomic energy  EATOM  =     75270.44210491
  Solvation  Ediel_sol  =         0.00000000
  ---------------------------------------------------
  free energy    TOTEN  =      -710.00079099 eV

  energy without entropy =     -710.00079099  energy(sigma->0) =     -710.00079099


--------------------------------------------------------------------------------------------------------




--------------------------------------- Iteration      1(  10)  ---------------------------------------


    POTLOK:  cpu time      0.1560: real time      0.2283
    SETDIJ:  cpu time      0.8962: real time      0.8984
     EDDAV:  cpu time    104.0468: real time    104.3116
       DOS:  cpu time      0.0129: real time      0.0129
    CHARGE:  cpu time      3.9543: real time      3.9643
    MIXING:  cpu time      0.0050: real time      0.0051
    --------------------------------------------
      LOOP:  cpu time    109.0713: real time    109.4204

 eigenvalue-minimisations  : 37420
 total energy-change (2. order) :-0.8736124E+01  (-0.1377622E+01)
 number of electron     810.0000011 magnetization       2.0747073
 augmentation part      209.1175129 magnetization       1.7471256

 Broyden mixing:
  rms(total) = 0.19684E+00    rms(broyden)= 0.19678E+00
  rms(prec ) = 0.22248E+00
  weight for this iteration     100.00

 eigenvalues of (default mixing * dielectric matrix)
  average eigenvalue GAMMA=   1.2181
  2.1696  1.6111  0.9509  0.7655  0.5932

 Free energy of the ion-electron system (eV)
  ---------------------------------------------------
  alpha Z        PSCENC =      2559.35136574
  Ewald energy   TEWEN  =    -43252.81545893
  -Hartree energ DENC   =    -27843.97739293
  -exchange      EXHF   =         0.00000000
  -V(xc)+E(xc)   XCENC  =      3783.53635654
  PAW double counting   =     61034.76493122   -61449.18428615
  entropy T*S    EENTRO =        -0.00000000
  eigenvalues    EBANDS =    -10820.85453568
  atomic energy  EATOM  =     75270.44210491
  Solvation  Ediel_sol  =         0.00000000
  ---------------------------------------------------
  free energy    TOTEN  =      -718.73691529 eV

  energy without entropy =     -718.73691529  energy(sigma->0) =     -718.73691529


--------------------------------------------------------------------------------------------------------




--------------------------------------- Iteration      1(  11)  ---------------------------------------


    POTLOK:  cpu time      0.1913: real time      0.2968
    SETDIJ:  cpu time      0.9146: real time      0.9168
     EDDAV:  cpu time     99.9546: real time    100.2092
       DOS:  cpu time      0.0056: real time      0.0056
    CHARGE:  cpu time      3.9138: real time      3.9237
    MIXING:  cpu time      0.0061: real time      0.0065
    --------------------------------------------
      LOOP:  cpu time    104.9861: real time    105.3585

 eigenvalue-minimisations  : 35730
 total energy-change (2. order) :-0.2111272E+01  (-0.3543406E+00)
 number of electron     810.0000011 magnetization       0.4910879
 augmentation part      209.0718938 magnetization       0.3702589

 Broyden mixing:
  rms(total) = 0.98755E-01    rms(broyden)= 0.98727E-01
  rms(prec ) = 0.12127E+00
  weight for this iteration     100.00

 eigenvalues of (default mixing * dielectric matrix)
  average eigenvalue GAMMA=   1.2491
  2.5640  1.4020  1.4020  0.8019  0.7248  0.5997

 Free energy of the ion-electron system (eV)
  ---------------------------------------------------
  alpha Z        PSCENC =      2559.35136574
  Ewald energy   TEWEN  =    -43252.81545893
  -Hartree energ DENC   =    -27808.19004877
  -exchange      EXHF   =         0.00000000
  -V(xc)+E(xc)   XCENC  =      3781.21987898
  PAW double counting   =     60972.14157439   -61387.89008602
  entropy T*S    EENTRO =        -0.00000000
  eigenvalues    EBANDS =    -10855.10751802
  atomic energy  EATOM  =     75270.44210491
  Solvation  Ediel_sol  =         0.00000000
  ---------------------------------------------------
  free energy    TOTEN  =      -720.84818772 eV

  energy without entropy =     -720.84818772  energy(sigma->0) =     -720.84818772


--------------------------------------------------------------------------------------------------------




--------------------------------------- Iteration      1(  12)  ---------------------------------------


    POTLOK:  cpu time      0.2056: real time      0.3707
    SETDIJ:  cpu time      0.9153: real time      0.9177
     EDDAV:  cpu time     96.7309: real time     96.9780
       DOS:  cpu time      0.0086: real time      0.0086
    CHARGE:  cpu time      3.8354: real time      3.8451
    MIXING:  cpu time      0.0045: real time      0.0045
    --------------------------------------------
      LOOP:  cpu time    101.7003: real time    102.1246

 eigenvalue-minimisations  : 33710
 total energy-change (2. order) :-0.2608444E-01  (-0.2526246E-01)
 number of electron     810.0000011 magnetization       0.2742482
 augmentation part      209.1521115 magnetization       0.2321945

 Broyden mixing:
  rms(total) = 0.46467E-01    rms(broyden)= 0.46459E-01
  rms(prec ) = 0.57174E-01
  weight for this iteration     100.00

 eigenvalues of (default mixing * dielectric matrix)
  average eigenvalue GAMMA=   1.2174
  2.5473  1.5253  1.5253  0.8100  0.8100  0.7352  0.5687

 Free energy of the ion-electron system (eV)
  ---------------------------------------------------
  alpha Z        PSCENC =      2559.35136574
  Ewald energy   TEWEN  =    -43252.81545893
  -Hartree energ DENC   =    -27777.40485363
  -exchange      EXHF   =         0.00000000
  -V(xc)+E(xc)   XCENC  =      3780.05006937
  PAW double counting   =     60895.80343624   -61312.11892917
  entropy T*S    EENTRO =        -0.00000000
  eigenvalues    EBANDS =    -10884.18200668
  atomic energy  EATOM  =     75270.44210491
  Solvation  Ediel_sol  =         0.00000000
  ---------------------------------------------------
  free energy    TOTEN  =      -720.87427216 eV

  energy without entropy =     -720.87427216  energy(sigma->0) =     -720.87427216


--------------------------------------------------------------------------------------------------------




--------------------------------------- Iteration      1(  13)  ---------------------------------------


    POTLOK:  cpu time      0.2062: real time      0.3122
    SETDIJ:  cpu time      0.8910: real time      0.8932
     EDDAV:  cpu time     95.7289: real time     95.9715
       DOS:  cpu time      0.0074: real time      0.0074
    CHARGE:  cpu time      3.9500: real time      3.9599
    MIXING:  cpu time      0.0064: real time      0.0064
    --------------------------------------------
      LOOP:  cpu time    100.7900: real time    101.1507

 eigenvalue-minimisations  : 33790
 total energy-change (2. order) : 0.1212692E-02  (-0.5820241E-02)
 number of electron     810.0000011 magnetization       0.0247318
 augmentation part      209.1292025 magnetization       0.0052971

 Broyden mixing:
  rms(total) = 0.24685E-01    rms(broyden)= 0.24683E-01
  rms(prec ) = 0.29835E-01
  weight for this iteration     100.00

 eigenvalues of (default mixing * dielectric matrix)
  average eigenvalue GAMMA=   1.2744
  2.6173  2.4382  1.1017  1.1017  0.8556  0.8556  0.5753  0.6496

 Free energy of the ion-electron system (eV)
  ---------------------------------------------------
  alpha Z        PSCENC =      2559.35136574
  Ewald energy   TEWEN  =    -43252.81545893
  -Hartree energ DENC   =    -27769.60105558
  -exchange      EXHF   =         0.00000000
  -V(xc)+E(xc)   XCENC  =      3779.78196595
  PAW double counting   =     60868.54336152   -61284.50631641
  entropy T*S    EENTRO =        -0.00000000
  eigenvalues    EBANDS =    -10892.06902666
  atomic energy  EATOM  =     75270.44210491
  Solvation  Ediel_sol  =         0.00000000
  ---------------------------------------------------
  free energy    TOTEN  =      -720.87305947 eV

  energy without entropy =     -720.87305947  energy(sigma->0) =     -720.87305947


--------------------------------------------------------------------------------------------------------




--------------------------------------- Iteration      1(  14)  ---------------------------------------


    POTLOK:  cpu time      0.1629: real time      0.1815
    SETDIJ:  cpu time      0.9178: real time      0.9199
     EDDAV:  cpu time     95.4433: real time     95.6864
       DOS:  cpu time      0.0037: real time      0.0037
    CHARGE:  cpu time      3.8259: real time      3.8354
    MIXING:  cpu time      0.0048: real time      0.0048
    --------------------------------------------
      LOOP:  cpu time    100.3583: real time    100.6317

 eigenvalue-minimisations  : 33250
 total energy-change (2. order) : 0.6353050E-02  (-0.1519712E-02)
 number of electron     810.0000011 magnetization       0.0011138
 augmentation part      209.1302052 magnetization      -0.0037291

 Broyden mixing:
  rms(total) = 0.78480E-02    rms(broyden)= 0.78460E-02
  rms(prec ) = 0.98077E-02
  weight for this iteration     100.00

[...]
      4.02398      3.86270      7.75025         0.002021      0.000191     -0.000007
      3.95418      7.59366      0.08482        -0.000524     -0.001100     -0.002102
      3.75964      7.72316      3.73627        -0.000632     -0.000498     -0.000746
      4.02331      7.83588      7.74246         0.001644      0.001055     -0.000685
      7.84480     11.48530     11.51713        -0.002566      0.001042     -0.000856
      7.57114     11.58663      3.87820        -0.002920     -0.000510     -0.000109
      7.82552      0.00532      7.89504        -0.000038      0.000600      0.001766
      7.58033      3.86709     11.59886        -0.001348      0.000164     -0.000041
      7.83661      3.97282      3.99189         0.000483      0.000467      0.000837
      7.66944      3.99006      7.62173         0.001217      0.001185     -0.000241
      7.60784      7.85459     11.60812        -0.000795      0.002068      0.000225
      7.73304      7.59849      4.00558         0.000407     -0.001272      0.000801
      7.63540      7.60757      7.64623         0.001742      0.000146      0.000278
      0.09799      1.91166      3.97051        -0.001210     -0.000173     -0.000219
      0.05056      1.93216      7.68176         0.000886      0.001645     -0.000021
      0.06079      5.79995     11.55109         0.000569     -0.000143      0.001321
      3.75749      1.92491      3.82783         0.000751      0.000727     -0.004391
      3.73128      5.79353     11.51957        -0.004271     -0.000049     -0.001588
      3.85724      9.66421      7.77098         0.004599     -0.000539     -0.000737
      7.68152      5.80881      3.84309         0.000044      0.000040     -0.002557
      7.84510      5.79785      7.80568         0.003970      0.000119      0.003226
      7.67769      9.67137      0.04652        -0.002761      0.000392      0.000988
      1.92761      7.72400      3.96359         0.001361     -0.000410      0.000637
      5.79929     11.58013      3.82644         0.000731      0.000133     -0.001144
      5.81072      3.91164     11.53777        -0.000073      0.001720      0.000492
      5.77215      3.87818      7.82790        -0.001337      0.002595      0.000543
      5.80742      7.65920     11.54448        -0.000967     -0.002236     -0.000069
      5.79163      7.67336      7.82819         0.001500     -0.003959      0.001735
      9.67672      0.02944     11.55800        -0.001170      0.000517     -0.001591
      9.69063     11.54008      7.76641        -0.000759     -0.000089      0.000498
      9.67069      3.83521      3.86542         0.000023      0.000559     -0.000492
      0.00735      0.00554      1.92269        -0.000907      0.000398     -0.000154
      0.07829      3.84520      1.92178        -0.000163      0.000132     -0.000140
      0.03767      7.75367      1.93211         0.002001      0.000389      0.000412
      3.82711      0.01100      5.81183        -0.000990      0.000699     -0.001024
      3.80243      3.90327      1.93074        -0.000489      0.001043     -0.001185
      3.82200      7.72610      1.93286         0.000216     -0.002508     -0.001378
      7.63766      0.03671      9.67521        -0.001140      0.001402     -0.000068
      7.70221      3.83955      5.82105        -0.000984      0.000396     -0.000422
      7.75430      7.77742      5.81596        -0.000457     -0.000568     -0.000247
      0.05526      1.92899     11.48395         0.000015     -0.000275     -0.000704
     11.55634      5.81231      3.93991        -0.000371      0.000527      0.002855
     11.52583      5.82155      7.79703        -0.000403     -0.000117      0.001143
      0.01639      9.65275     11.51520        -0.000556      0.000257      0.000916
     11.51911      9.66072      3.96059         0.000211     -0.000125      0.000339
      0.12716      9.62204      7.73208         0.004092     -0.000705      0.000012
      3.84774      1.89159      0.02869        -0.002910     -0.000112      0.000925
      3.79127      1.93368      7.76084        -0.000104      0.000895     -0.000243
      3.97017      5.79209      3.95134         0.000181      0.000049      0.000604
      3.77638      5.79114      7.77271        -0.001072     -0.000298      0.002134
      3.91155      9.70703     11.51981         0.000692      0.000726     -0.002968
      3.87507      9.66406      3.87013         0.000121     -0.001193     -0.000698
      7.67552      1.93202      0.06186        -0.000704      0.001237      0.001901
      7.72222      1.91287      3.85061         0.000237     -0.000590     -0.000511
      7.77660      1.93332      7.72685         0.000290      0.000293      0.000565
      7.85975      5.78531     11.58349        -0.000656     -0.000293      0.001783
      7.78834      9.67401      3.79730         0.000167     -0.000355     -0.000977
      7.69053      9.66967      7.76609        -0.002513      0.001342     -0.000234
      1.97660     11.57149     11.53022        -0.001288     -0.000430     -0.001585
      1.93233     11.42752      3.84057        -0.000878     -0.001845     -0.001430
      1.93091     11.58890      7.81802         0.000842     -0.001051      0.002360
      1.93503      3.72643     11.49412        -0.000638     -0.002430     -0.000107
      1.93180      4.01503      3.98622         0.000750      0.001481      0.001886
      1.92987      3.93714      7.73141         0.000951      0.000900      0.000354
      1.93643      7.87998     11.52949         0.000078      0.003231     -0.002654
      1.89913      7.64916      7.65757         0.000288     -0.000747     -0.002579
      5.74818      0.05693      0.11874        -0.002783      0.003162      0.003233
      5.80244      0.07808      7.69516         0.000876      0.002332     -0.000709
      5.78663      3.78714      3.84836        -0.000557      0.001347     -0.000953
      5.78973      7.82569      3.86336         0.000179     -0.000240     -0.000631
      9.63921      0.02349      3.93925        -0.001568     -0.002931      0.001851
      9.65210      3.79503      0.01900        -0.000169     -0.001741     -0.000668
      9.70229      3.82511      7.75753         0.001597     -0.001567      0.000912
      9.68459      7.74854     11.57819         0.000533      0.001322     -0.000546
      9.68614      7.73628      3.87870        -0.000075      0.001333     -0.001028
      9.72238      7.85497      7.79487         0.001362      0.003431      0.001175
      0.07749     11.47897      5.81778         0.001517     -0.001410      0.000521
      0.09521     11.54866      9.65810         0.000701     -0.001763      0.000568
      0.01773      3.98849      5.84564         0.001701     -0.000222      0.000442
     11.58265      3.86343      9.65189         0.002441      0.001057     -0.000303
     11.50618      7.70709      5.86205        -0.002314     -0.000328      0.001461
      0.04593      7.76486      9.62493         0.001980     -0.000506     -0.000042
      3.77247     11.51666      1.88645        -0.002658     -0.002717     -0.001259
      3.95298      0.07329      9.69959         0.000939      0.000723     -0.000365
      3.88002      3.86126      5.82620         0.000901     -0.002844      0.000265
      3.77290      3.76704      9.66504        -0.000334     -0.001444     -0.000051
      3.91337      7.71027      5.80961         0.002273     -0.001411     -0.000221
      3.72997      7.74989      9.66204        -0.001065      0.000482     -0.001410
      7.77277      0.05482      1.94927         0.000134      0.000488      0.001918
      7.70965     11.56787      5.81142        -0.002717      0.001229     -0.000692
      7.70099      3.84171      1.91728        -0.000694     -0.001434      0.000382
      7.83819      3.77050      9.68857         0.001006     -0.001754      0.000471
      7.76635      7.71822      1.93971         0.002285     -0.000281      0.000028
      7.85667      7.77771      9.67445         0.001398      0.001252      0.000980
 -----------------------------------------------------------------------------------
    total drift:                                0.003397     -0.002953      0.001521


--------------------------------------------------------------------------------------------------------



  FREE ENERGIE OF THE ION-ELECTRON SYSTEM (eV)
  ---------------------------------------------------
  free  energy   TOTEN  =      -720.86715674 eV

  energy  without entropy=     -720.86715674  energy(sigma->0) =     -720.86715674
 


--------------------------------------------------------------------------------------------------------


    POTLOK:  cpu time      1.0790: real time      1.0819


--------------------------------------------------------------------------------------------------------


 Quasi-Newton relaxation of ions (Broydens 2nd method)
  g(Force)  = 0.280E-04   g(Stress)= 0.912E-04

 Reset! Starting new Quasi-Newton update for ions 


--------------------------------------------------------------------------------------------------------


  
 reached required accuracy - stopping structural energy minimisation
 writing wavefunctions
     LOOP+:  cpu time   2145.9725: real time   2153.3313
    4ORBIT:  cpu time      0.0000: real time      0.0000



 total charge

# of ion       s       p       d       tot
------------------------------------------
    1        0.323   6.455   1.811   8.589
    2        0.318   6.450   1.783   8.551
    3        0.322   6.462   1.779   8.563
    4        0.320   6.452   1.790   8.563
    5        0.325   6.453   1.799   8.577
    6        0.321   6.468   1.773   8.562
    7        0.323   6.456   1.793   8.572
    8        0.323   6.459   1.791   8.572
    9        0.317   6.490   1.682   8.488
   10        0.316   6.488   1.678   8.483
   11        0.328   6.461   1.800   8.589
   12        0.324   6.458   1.816   8.598
   13        0.329   6.460   1.818   8.607
   14        0.320   6.453   1.776   8.550
   15        0.316   6.458   1.781   8.554
   16        0.329   6.457   1.813   8.598
   17        0.319   6.454   1.768   8.541
   18        0.324   6.456   1.815   8.596
   19        0.330   6.463   1.820   8.613
   20        0.315   6.460   1.752   8.526
   21        0.321   6.458   1.773   8.551
   22        0.314   6.457   1.752   8.523
   23        0.328   6.456   1.807   8.591
   24        0.328   6.458   1.817   8.603
   25        0.320   6.452   1.784   8.557
   26        0.320   6.452   1.797   8.569
   27        0.329   6.458   1.817   8.604
   28        1.569   3.468   0.000   5.037
   29        1.571   3.476   0.000   5.047
   30        1.568   3.471   0.000   5.039
   31        1.569   3.472   0.000   5.041
   32        1.571   3.480   0.000   5.051
   33        1.569   3.477   0.000   5.046
   34        1.570   3.476   0.000   5.046
   35        1.569   3.475   0.000   5.044
   36        1.569   3.477   0.000   5.046
   37        1.569   3.472   0.000   5.041
   38        1.570   3.468   0.000   5.038
   39        1.570   3.466   0.000   5.036
   40        1.571   3.468   0.000   5.039
   41        1.568   3.471   0.000   5.040
   42        1.570   3.479   0.000   5.049
   43        1.570   3.482   0.000   5.052
   44        1.569   3.470   0.000   5.039
   45        1.569   3.473   0.000   5.042
   46        1.568   3.472   0.000   5.040
   47        1.569   3.473   0.000   5.042
   48        1.570   3.480   0.000   5.049
   49        1.571   3.481   0.000   5.052
   50        1.569   3.475   0.000   5.044
   51        1.568   3.471   0.000   5.040
   52        1.570   3.474   0.000   5.044
   53        1.569   3.476   0.000   5.046
   54        1.568   3.474   0.000   5.042
   55        1.729   4.379   0.000   6.108
   56        1.729   4.379   0.000   6.109
   57        1.731   4.372   0.000   6.103
   58        1.729   4.379   0.000   6.109
   59        1.730   4.377   0.000   6.107
   60        1.731   4.378   0.000   6.109
   61        1.732   4.372   0.000   6.104
   62        1.729   4.379   0.000   6.108
   63        1.729   4.377   0.000   6.106
   64        1.729   4.379   0.000   6.108
   65        1.732   4.371   0.000   6.103
   66        1.730   4.381   0.000   6.110
   67        1.730   4.380   0.000   6.110
   68        1.730   4.379   0.000   6.109
   69        1.730   4.379   0.000   6.109
   70        1.729   4.374   0.000   6.104
   71        1.730   4.376   0.000   6.106
   72        1.730   4.378   0.000   6.108
   73        1.731   4.373   0.000   6.104
   74        1.730   4.382   0.000   6.112
   75        1.730   4.382   0.000   6.111
   76        1.730   4.383   0.000   6.113
   77        1.730   4.376   0.000   6.106
   78        1.730   4.378   0.000   6.108
   79        1.730   4.380   0.000   6.110
   80        1.732   4.370   0.000   6.102
   81        1.732   4.373   0.000   6.105
   82        1.729   4.381   0.000   6.110
   83        1.729   4.378   0.000   6.107
   84        1.729   4.379   0.000   6.108
   85        1.729   4.377   0.000   6.105
   86        1.729   4.376   0.000   6.105
   87        1.730   4.383   0.000   6.113
   88        1.729   4.377   0.000   6.106
   89        1.729   4.381   0.000   6.110
   90        1.732   4.373   0.000   6.105
   91        1.730   4.376   0.000   6.106
   92        1.730   4.379   0.000   6.109
   93        1.731   4.377   0.000   6.107
   94        1.731   4.376   0.000   6.106
   95        1.732   4.372   0.000   6.104
   96        1.732   4.373   0.000   6.105
   97        1.731   4.372   0.000   6.103
   98        1.731   4.372   0.000   6.104
   99        1.729   4.375   0.000   6.105
  100        1.730   4.380   0.000   6.110
  101        1.729   4.377   0.000   6.106
  102        1.730   4.381   0.000   6.111
  103        1.730   4.381   0.000   6.110
  104        1.729   4.375   0.000   6.104
  105        1.730   4.376   0.000   6.106
  106        1.730   4.376   0.000   6.106
  107        1.729   4.377   0.000   6.106
  108        1.729   4.380   0.000   6.109
--------------------------------------------------
tot        144.499 504.568  48.186 697.252



 magnetization (x)

# of ion       s       p       d       tot
------------------------------------------
    1       -0.000  -0.000  -0.000  -0.000
    2       -0.000  -0.000  -0.000  -0.000
    3       -0.000  -0.000  -0.000  -0.000
    4       -0.000  -0.000  -0.000  -0.000
    5       -0.000  -0.000  -0.000  -0.000
    6       -0.000  -0.000  -0.000  -0.000
    7       -0.000  -0.000  -0.000  -0.000
    8       -0.000  -0.000  -0.000  -0.000
    9       -0.000  -0.000   0.000   0.000
   10       -0.000  -0.000   0.000   0.000
   11       -0.000  -0.000  -0.000  -0.000
   12       -0.000  -0.000  -0.000  -0.000
   13       -0.000  -0.000  -0.000  -0.000
   14       -0.000  -0.000  -0.000  -0.000
   15       -0.000  -0.000  -0.000  -0.000
   16       -0.000  -0.000  -0.000  -0.000
   17       -0.000  -0.000  -0.000  -0.000
   18       -0.000  -0.000  -0.000  -0.000
   19       -0.000  -0.000  -0.000  -0.000
   20       -0.000  -0.000  -0.000  -0.000
   21       -0.000  -0.000  -0.000  -0.000
   22       -0.000  -0.000  -0.000  -0.000
   23       -0.000  -0.000  -0.000  -0.000
   24       -0.000  -0.000  -0.000  -0.000
   25       -0.000  -0.000  -0.000  -0.000
   26       -0.000  -0.000  -0.000  -0.000
   27       -0.000  -0.000  -0.000  -0.000
   28        0.000   0.000   0.000   0.000
   29        0.000   0.000   0.000   0.000
   30        0.000   0.000   0.000   0.000
   31        0.000   0.000   0.000   0.000
   32        0.000   0.000   0.000   0.000
   33        0.000   0.000   0.000   0.000
   34        0.000   0.000   0.000   0.000
   35        0.000   0.000   0.000   0.000
   36        0.000   0.000   0.000   0.000
   37        0.000   0.000   0.000   0.000
   38        0.000   0.000   0.000   0.000
   39        0.000   0.000   0.000   0.000
   40        0.000   0.000   0.000   0.000
   41        0.000   0.000   0.000   0.000
   42        0.000   0.000   0.000   0.000
   43        0.000   0.000   0.000   0.000
   44        0.000   0.000   0.000   0.000
   45        0.000   0.000   0.000   0.000
   46        0.000   0.000   0.000   0.000
   47        0.000   0.000   0.000   0.000
   48        0.000   0.000   0.000   0.000
   49        0.000   0.000   0.000   0.000
   50        0.000   0.000   0.000   0.000
   51        0.000   0.000   0.000   0.000
   52        0.000   0.000   0.000   0.000
   53        0.000   0.000   0.000   0.000
   54        0.000   0.000   0.000   0.000
   55        0.000   0.000   0.000   0.000
   56        0.000   0.000   0.000   0.000
   57        0.000   0.000   0.000   0.000
   58        0.000   0.000   0.000   0.000
   59        0.000   0.000   0.000   0.000
   60        0.000   0.000   0.000   0.000
   61        0.000   0.000   0.000   0.000
   62        0.000   0.000   0.000   0.000
   63        0.000   0.000   0.000   0.000
   64        0.000   0.000   0.000   0.000
   65        0.000   0.000   0.000   0.000
   66        0.000   0.000   0.000   0.000
   67        0.000   0.000   0.000   0.000
   68        0.000   0.000   0.000   0.000
   69        0.000   0.000   0.000   0.000
   70        0.000   0.000   0.000   0.000
   71        0.000   0.000   0.000   0.000
   72        0.000   0.000   0.000   0.000
   73        0.000   0.000   0.000   0.000
   74        0.000   0.000   0.000   0.000
   75        0.000   0.000   0.000   0.000
   76        0.000   0.000   0.000   0.000
   77        0.000   0.000   0.000   0.000
   78        0.000   0.000   0.000   0.000
   79        0.000   0.000   0.000   0.000
   80        0.000   0.000   0.000   0.000
   81        0.000   0.000   0.000   0.000
   82        0.000   0.000   0.000   0.000
   83        0.000   0.000   0.000   0.000
   84        0.000   0.000   0.000   0.000
   85        0.000   0.000   0.000   0.000
   86        0.000   0.000   0.000   0.000
   87        0.000   0.000   0.000   0.000
   88        0.000   0.000   0.000   0.000
   89        0.000   0.000   0.000   0.000
   90        0.000   0.000   0.000   0.000
   91        0.000   0.000   0.000   0.000
   92        0.000   0.000   0.000   0.000
   93        0.000   0.000   0.000   0.000
   94        0.000   0.000   0.000   0.000
   95        0.000   0.000   0.000   0.000
   96        0.000   0.000   0.000   0.000
   97        0.000   0.000   0.000   0.000
   98        0.000   0.000   0.000   0.000
   99        0.000   0.000   0.000   0.000
  100        0.000   0.000   0.000   0.000
  101        0.000   0.000   0.000   0.000
  102        0.000   0.000   0.000   0.000
  103        0.000   0.000   0.000   0.000
  104        0.000   0.000   0.000   0.000
  105        0.000   0.000   0.000   0.000
  106        0.000   0.000   0.000   0.000
  107        0.000   0.000   0.000   0.000
  108        0.000   0.000   0.000   0.000
--------------------------------------------------
tot          0.000   0.000  -0.000   0.000
 

 total amount of memory used by VASP MPI-rank0   299413. kBytes
=======================================================================

   base      :      30000. kBytes
   nonlr-proj:      25321. kBytes
   fftplans  :      18873. kBytes
   grid      :      21088. kBytes
   one-center:        435. kBytes
   wavefun   :     203696. kBytes
 
  
  
 General timing and accounting informations for this job:
 ========================================================
  
                  Total CPU time used (sec):     2246.522
                            User time (sec):     2218.544
                          System time (sec):       27.978
                         Elapsed time (sec):     2255.502
  
                   Maximum memory used (kb):      892300.
                   Average memory used (kb):          N/A
  
                          Minor page faults:       321380
                          Major page faults:           20
                 Voluntary context switches:        22659
