       N       E                     dE             d eps       ncg     rms          rms(c)
DAV:   1    -0.211524434082E+03   -0.21152E+03   -0.73655E-01  2560   0.555E+00    0.820E-02
DAV:   2    -0.211524553981E+03   -0.11990E-03   -0.37156E-05  2880   0.376E-02    0.456E-02
DAV:   3    -0.211524680404E+03   -0.12642E-03   -0.25425E-05  3328   0.414E-02    0.182E-02
DAV:   4    -0.211524690412E+03   -0.10008E-04   -0.74535E-06  3456   0.237E-02    0.242E-03
DAV:   5    -0.211524690833E+03   -0.42055E-06   -0.13612E-06  1728   0.531E-03
   1 F= -.21152469E+03 E0= -.21152469E+03  d E =-.211525E+03  mag=    -0.0000
