 vasp.5.4.4.18Apr17-6-g9f103f2a35 (build Apr 30 2017 20:10:35) complex          
  
 executed on             LinuxIFC date 2017.08.10  09:04:30
 running on   64 total cores
 distrk:  each k-point on   64 cores,    1 groups
 distr:  one band on NCORES_PER_BAND=   8 cores,    8 groups


--------------------------------------------------------------------------------------------------------


 INCAR:
 POTCAR:   PAW_PBE Ti_pv 07Sep2000                
 POTCAR:   PAW_PBE O 08Apr2002                    
 POTCAR:    PAW_PBE F 08Apr2002                   
 POTCAR:   PAW_PBE Ti_pv 07Sep2000                
   VRHFIN =Ti: d3 s1                                                            
   LEXCH  = PE                                                                  
   EATOM  =  1042.3781 eV,   76.6126 Ry                                         
                                                                                
   TITEL  = PAW_PBE Ti_pv 07Sep2000                                             
   LULTRA =        F    use ultrasoft PP ?                                      
   IUNSCR =        1    unscreen: 0-lin 1-nonlin 2-no                           
   RPACOR =    2.200    partial core radius                                     
   POMASS =   47.880; ZVAL   =   10.000    mass and valenz                      
   RCORE  =    2.500    outmost cutoff radius                                   
   RWIGS  =    2.500; RWIGS  =    1.323    wigner-seitz radius (au A)           
   ENMAX  =  222.338; ENMIN  =  166.753 eV                                      
   RCLOC  =    1.701    cutoff for local pot                                    
   LCOR   =        T    correct aug charges                                     
   LPAW   =        T    paw PP                                                  
   EAUG   =  482.848                                                            
   DEXC   =    -.008                                                            
   RMAX   =    3.092    core radius for proj-oper                               
   RAUG   =    1.300    factor for augmentation sphere                          
   RDEP   =    2.538    radius for radial grids                                 
   QCUT   =   -4.042; QGAM   =    8.085    optimization parameters              
                                                                                
   Description                                                                  
     l     E      TYP  RCUT    TYP  RCUT                                        
     1   .000     23  2.300                                                     
     1  -.100     23  2.300                                                     
     2   .000     23  2.500                                                     
     2   .000     23  2.500                                                     
     0   .000     23  2.500                                                     
     0  1.500     23  2.500                                                     
     3   .000      7   .000                                                     
  local pseudopotential read in
  partial core-charges read in
  atomic valenz-charges read in
  non local Contribution for L=           1  read in
    real space projection operators read in
  non local Contribution for L=           1  read in
    real space projection operators read in
  non local Contribution for L=           2  read in
    real space projection operators read in
  non local Contribution for L=           2  read in
    real space projection operators read in
  non local Contribution for L=           0  read in
    real space projection operators read in
  non local Contribution for L=           0  read in
    real space projection operators read in
    PAW grid and wavefunctions read in
 
   number of l-projection  operators is LMAX  =           6
   number of lm-projection operators is LMMAX =          18
 
 POTCAR:   PAW_PBE O 08Apr2002                    
   VRHFIN =O: s2p4                                                              
   LEXCH  = PE                                                                  
   EATOM  =   432.3788 eV,   31.7789 Ry                                         
                                                                                
   TITEL  = PAW_PBE O 08Apr2002                                                 
   LULTRA =        F    use ultrasoft PP ?                                      
   IUNSCR =        0    unscreen: 0-lin 1-nonlin 2-no                           
   RPACOR =     .000    partial core radius                                     
   POMASS =   16.000; ZVAL   =    6.000    mass and valenz                      
   RCORE  =    1.520    outmost cutoff radius                                   
   RWIGS  =    1.550; RWIGS  =     .820    wigner-seitz radius (au A)           
   ENMAX  =  400.000; ENMIN  =  300.000 eV                                      
   ICORE  =        2    local potential                                         
   LCOR   =        T    correct aug charges                                     
   LPAW   =        T    paw PP                                                  
   EAUG   =  605.392                                                            
   DEXC   =     .000                                                            
   RMAX   =    2.264    core radius for proj-oper                               
   RAUG   =    1.300    factor for augmentation sphere                          
   RDEP   =    1.550    radius for radial grids                                 
   QCUT   =   -5.520; QGAM   =   11.041    optimization parameters              
                                                                                
   Description                                                                  
     l     E      TYP  RCUT    TYP  RCUT                                        
     0   .000     23  1.200                                                     
     0  -.700     23  1.200                                                     
     1   .000     23  1.520                                                     
     1   .600     23  1.520                                                     
     2   .000      7  1.500                                                     
  local pseudopotential read in
  atomic valenz-charges read in
  non local Contribution for L=           0  read in
    real space projection operators read in
  non local Contribution for L=           0  read in
    real space projection operators read in
  non local Contribution for L=           1  read in
    real space projection operators read in
  non local Contribution for L=           1  read in
    real space projection operators read in
    PAW grid and wavefunctions read in
 
   number of l-projection  operators is LMAX  =           4
   number of lm-projection operators is LMMAX =           8
 
 POTCAR:    PAW_PBE F 08Apr2002                   
   VRHFIN =F: s2p5                                                              
   LEXCH  = PE                                                                  
   EATOM  =   659.6475 eV,   48.4827 Ry                                         
                                                                                
   TITEL  = PAW_PBE F 08Apr2002                                                 
   LULTRA =        F    use ultrasoft PP ?                                      
   IUNSCR =        1    unscreen: 0-lin 1-nonlin 2-no                           
   RPACOR =    1.200    partial core radius                                     
   POMASS =   18.998; ZVAL   =    7.000    mass and valenz                      
   RCORE  =    1.520    outmost cutoff radius                                   
   RWIGS  =    1.500; RWIGS  =    0.794    wigner-seitz radius (au A)           
   ENMAX  =  400.000; ENMIN  =  300.000 eV                                      
   ICORE  =        2    local potential                                         
   LCOR   =        T    correct aug charges                                     
   LPAW   =        T    paw PP                                                  
   EAUG   =  613.614                                                            
   RMAX   =    1.555    core radius for proj-oper                               
   RAUG   =    1.300    factor for augmentation sphere                          
   RDEP   =    1.539    radius for radial grids                                 
   RDEPT  =    1.299    core radius for aug-charge                              
                                                                                
   Atomic configuration                                                         
    4 entries                                                                   
     n  l   j            E        occ.                                          
     1  0  0.50      -663.3661   2.0000                                         
     2  0  0.50       -29.8995   2.0000                                         
     2  1  0.50       -11.1114   5.0000                                         
     3  2  1.50       -10.8847   0.0000                                         
   Description                                                                  
     l       E           TYP  RCUT    TYP  RCUT                                 
     0    -29.8995018     23  1.200                                             
     0     -9.5240782     23  1.200                                             
     1    -11.1113914     23  1.520                                             
     1      1.3605826     23  1.520                                             
     2    -10.8846608      7  1.500                                             
  local pseudopotential read in
  partial core-charges read in
  partial kinetic energy density read in
  atomic valenz-charges read in
  non local Contribution for L=           0  read in
    real space projection operators read in
  non local Contribution for L=           0  read in
    real space projection operators read in
  non local Contribution for L=           1  read in
    real space projection operators read in
  non local Contribution for L=           1  read in
    real space projection operators read in
    PAW grid and wavefunctions read in
 
   number of l-projection  operators is LMAX  =           4
   number of lm-projection operators is LMMAX =           8
 
 Optimization of the real space projectors (new method)

 maximal supplied QI-value         = 15.12
 optimisation between [QCUT,QGAM] = [ 13.45, 27.06] = [ 50.69,205.06] Ry 
 Optimized for a Real-space Cutoff    1.49 Angstroem

   l    n(q)    QCUT    max X(q) W(low)/X(q) W(high)/X(q)  e(spline) 
   1     12    13.455     4.841    0.13E-05    0.83E-06    0.56E-07
   1     12    13.455     5.701    0.32E-04    0.25E-04    0.17E-06
   2     11    13.455     4.569    0.64E-05    0.34E-05    0.50E-07
   2     11    13.455    32.276    0.49E-04    0.38E-04    0.46E-06
   0     12    13.455    30.046    0.17E-04    0.41E-05    0.51E-07
   0     12    13.455    45.433    0.12E-04    0.27E-04    0.38E-06
 Optimization of the real space projectors (new method)

 maximal supplied QI-value         = 24.76
 optimisation between [QCUT,QGAM] = [ 13.37, 26.98] = [ 50.04,203.89] Ry 
 Optimized for a Real-space Cutoff    1.17 Angstroem

   l    n(q)    QCUT    max X(q) W(low)/X(q) W(high)/X(q)  e(spline) 
   0      9    13.368     4.192    0.20E-04    0.58E-05    0.56E-07
   0      9    13.368     8.473    0.60E-04    0.52E-04    0.21E-06
   1      9    13.368     2.474    0.22E-04    0.17E-04    0.28E-07
   1      9    13.368     3.912    0.94E-04    0.97E-04    0.20E-06
 Optimization of the real space projectors (new method)

 maximal supplied QI-value         = 24.76
 optimisation between [QCUT,QGAM] = [ 13.37, 26.98] = [ 50.04,203.89] Ry 
 Optimized for a Real-space Cutoff    1.17 Angstroem

   l    n(q)    QCUT    max X(q) W(low)/X(q) W(high)/X(q)  e(spline) 
   0      9    13.368    14.049    0.39E-04    0.34E-04    0.16E-06
   0      9    13.368     8.945    0.54E-04    0.47E-04    0.20E-06
   1      9    13.368     7.086    0.99E-04    0.10E-03    0.23E-06
   1      9    13.368     6.747    0.86E-04    0.89E-04    0.21E-06

 ----------------------------------------------------------------------------- 
|                                                                             |
|  ADVICE TO THIS USER RUNNING 'VASP/VAMP'   (HEAR YOUR MASTER'S VOICE ...):  |
|                                                                             |
|      You enforced a specific xc-type in the INCAR file,                     |
|      a different type was found on the POTCAR file                          |
|          I HOPE YOU KNOW, WHAT YOU ARE  DOING                               |
|                                                                             |
 ----------------------------------------------------------------------------- 

 PAW_PBE Ti_pv 07Sep2000                :
 energy of atom  1       EATOM=-1042.3781
 kinetic energy error for atom=    0.0006 (will be added to EATOM!!)
 PAW_PBE O 08Apr2002                    :
 energy of atom  2       EATOM= -432.3788
 kinetic energy error for atom=    0.0091 (will be added to EATOM!!)
  PAW_PBE F 08Apr2002                   :
 energy of atom  3       EATOM= -659.6475
 kinetic energy error for atom=    0.0140 (will be added to EATOM!!)
 
 
 POSCAR: TiOF2 2x2x2 config 1618                 
  positions in direct lattice
  velocities in cartesian coordinates
 exchange correlation table for  LEXCH =       14
   RHO(1)=    0.500       N(1)  =     2000
   RHO(2)=  100.500       N(2)  =     4000

 VTST: version 3.1, (03/28/14)

 CHAIN: initializing optimizer
 
 OPT: Using VASP QUASI-newton optimizer
 CHAIN: Read ICHAIN            0
 
 POSCAR: TiOF2 2x2x2 config 1618                 
  positions in direct lattice
  velocities in cartesian coordinates
 


--------------------------------------------------------------------------------------------------------


 ion  position               nearest neighbor table
   1  0.000  0.987  0.987-  12 1.82  15 1.84  17 1.94  21 1.95  23 2.02  27 2.04
   2  0.000  0.013  0.513-  11 1.82  15 1.84  18 1.94  22 1.95  24 2.02  27 2.04
   3  0.987  0.513  0.000-  12 1.82   9 1.84  28 1.94  29 1.95  23 2.02  19 2.04
   4  0.987  0.487  0.500-  11 1.82  10 1.84  28 1.94  29 1.95  24 2.02  20 2.04
   5  0.500  0.013  0.987-  13 1.82  16 1.84  17 1.94  21 1.95  26 2.02  30 2.04
   6  0.500  0.987  0.513-  14 1.82  16 1.84  18 1.94  22 1.95  25 2.02  30 2.04
   7  0.513  0.487  0.000-  13 1.82   9 1.84  31 1.94  32 1.95  26 2.02  19 2.04
   8  0.513  0.513  0.500-  14 1.82  10 1.84  31 1.94  32 1.95  25 2.02  20 2.04
   9  0.750  0.500  0.999-   3 1.84   7 1.84
  10  0.750  0.500  0.501-   8 1.84   4 1.84
  11  0.002  0.250  0.498-   2 1.82   4 1.82
  12  0.002  0.750  0.002-   3 1.82   1 1.82
  13  0.498  0.250  0.002-   5 1.82   7 1.82
  14  0.498  0.750  0.498-   8 1.82   6 1.82
  15  0.999  0.000  0.750-   2 1.84   1 1.84
  16  0.501  0.000  0.750-   5 1.84   6 1.84
  17  0.250  1.000  0.008-   5 1.94   1 1.94
  18  0.250  0.000  0.492-   2 1.94   6 1.94
  19  0.250  0.500  0.999-   7 2.04   3 2.04
  20  0.250  0.500  0.501-   4 2.04   8 2.04
  21  0.750  1.000  0.008-   5 1.95   1 1.95
  22  0.750  0.000  0.492-   6 1.95   2 1.95
  23  0.004  0.250  0.004-   1 2.02   3 2.02
  24  0.004  0.750  0.496-   4 2.02   2 2.02
  25  0.496  0.250  0.496-   6 2.02   8 2.02
  26  0.496  0.750  0.004-   5 2.02   7 2.02
  27  0.999  1.000  0.250-   2 2.04   1 2.04
  28  0.008  0.500  0.250-   3 1.94   4 1.94
  29  0.008  0.500  0.750-   4 1.95   3 1.95
  30  0.501  0.000  0.250-   5 2.04   6 2.04
  31  0.492  0.500  0.250-   8 1.94   7 1.94
  32  0.492  0.500  0.750-   7 1.95   8 1.95
 

IMPORTANT INFORMATION: All symmetrisations will be switched off!
NOSYMM: (Re-)initialisation of all symmetry stuff for point group C_1.

 
 
 KPOINTS: Title                                   

Automatic generation of k-mesh.
Space group operators:
 irot       det(A)        alpha          n_x          n_y          n_z        tau_x        tau_y        tau_z
    1     1.000000     0.000001     1.000000     0.000000     0.000000     0.000000     0.000000     0.000000
 
 Subroutine IBZKPT returns following result:
 ===========================================
 
 Found     32 irreducible k-points:
 
 Following reciprocal coordinates:
            Coordinates               Weight
  0.125000  0.125000  0.125000      2.000000
  0.375000  0.125000  0.125000      2.000000
 -0.375000  0.125000  0.125000      2.000000
 -0.125000  0.125000  0.125000      2.000000
  0.125000  0.375000  0.125000      2.000000
  0.375000  0.375000  0.125000      2.000000
 -0.375000  0.375000  0.125000      2.000000
 -0.125000  0.375000  0.125000      2.000000
  0.125000 -0.375000  0.125000      2.000000
  0.375000 -0.375000  0.125000      2.000000
 -0.375000 -0.375000  0.125000      2.000000
 -0.125000 -0.375000  0.125000      2.000000
  0.125000 -0.125000  0.125000      2.000000
  0.375000 -0.125000  0.125000      2.000000
 -0.375000 -0.125000  0.125000      2.000000
 -0.125000 -0.125000  0.125000      2.000000
  0.125000  0.125000  0.375000      2.000000
  0.375000  0.125000  0.375000      2.000000
 -0.375000  0.125000  0.375000      2.000000
 -0.125000  0.125000  0.375000      2.000000
  0.125000  0.375000  0.375000      2.000000
  0.375000  0.375000  0.375000      2.000000
 -0.375000  0.375000  0.375000      2.000000
 -0.125000  0.375000  0.375000      2.000000
  0.125000 -0.375000  0.375000      2.000000
  0.375000 -0.375000  0.375000      2.000000
 -0.375000 -0.375000  0.375000      2.000000
 -0.125000 -0.375000  0.375000      2.000000
  0.125000 -0.125000  0.375000      2.000000
  0.375000 -0.125000  0.375000      2.000000
 -0.375000 -0.125000  0.375000      2.000000
 -0.125000 -0.125000  0.375000      2.000000
 
 Following cartesian coordinates:
            Coordinates               Weight
  0.016123  0.016317  0.016123      2.000000
  0.048370  0.016317  0.016123      2.000000
 -0.048370  0.016317  0.016123      2.000000
 -0.016123  0.016317  0.016123      2.000000
  0.016123  0.048951  0.016123      2.000000
  0.048370  0.048951  0.016123      2.000000
 -0.048370  0.048951  0.016123      2.000000
 -0.016123  0.048951  0.016123      2.000000
  0.016123 -0.048951  0.016123      2.000000
  0.048370 -0.048951  0.016123      2.000000
 -0.048370 -0.048951  0.016123      2.000000
 -0.016123 -0.048951  0.016123      2.000000
  0.016123 -0.016317  0.016123      2.000000
  0.048370 -0.016317  0.016123      2.000000
 -0.048370 -0.016317  0.016123      2.000000
 -0.016123 -0.016317  0.016123      2.000000
  0.016123  0.016317  0.048370      2.000000
  0.048370  0.016317  0.048370      2.000000
 -0.048370  0.016317  0.048370      2.000000
 -0.016123  0.016317  0.048370      2.000000
  0.016123  0.048951  0.048370      2.000000
  0.048370  0.048951  0.048370      2.000000
 -0.048370  0.048951  0.048370      2.000000
 -0.016123  0.048951  0.048370      2.000000
  0.016123 -0.048951  0.048370      2.000000
  0.048370 -0.048951  0.048370      2.000000
 -0.048370 -0.048951  0.048370      2.000000
 -0.016123 -0.048951  0.048370      2.000000
  0.016123 -0.016317  0.048370      2.000000
  0.048370 -0.016317  0.048370      2.000000
 -0.048370 -0.016317  0.048370      2.000000
 -0.016123 -0.016317  0.048370      2.000000
 


--------------------------------------------------------------------------------------------------------




 Dimension of arrays:
   k-points           NKPTS =     32   k-points in BZ     NKDIM =     32   number of bands    NBANDS=    160
   number of dos      NEDOS =   3001   number of ions     NIONS =     32
   non local maximal  LDIM  =      6   non local SUM 2l+1 LMDIM =     18
   total plane-waves  NPLWV = 343000
   max r-space proj   IRMAX =  10328   max aug-charges    IRDMAX= 231539
   dimension x,y,z NGX =    70 NGY =   70 NGZ =   70
   dimension x,y,z NGXF=   140 NGYF=  140 NGZF=  140
   support grid    NGXF=   280 NGYF=  280 NGZF=  280
   ions per type =               8   8  16
   NGX,Y,Z   is equivalent  to a cutoff of  15.01, 15.19, 15.01 a.u.
   NGXF,Y,Z  is equivalent  to a cutoff of  30.02, 30.38, 30.02 a.u.

 SYSTEM =  LTO                                     
 POSCAR =  TiOF2 2x2x2 config 1618                 

 Startparameter for this run:
   NWRITE =      2    write-flag & timer
   PREC   = accura    normal or accurate (medium, high low for compatibility)
   ISTART =      1    job   : 0-new  1-cont  2-samecut
   ICHARG =      0    charge: 1-file 2-atom 10-const
   ISPIN  =      2    spin polarized calculation?
   LNONCOLLINEAR =      F non collinear calculations
   LSORBIT =      F    spin-orbit coupling
   INIWAV =      1    electr: 0-lowe 1-rand  2-diag
   LASPH  =      T    aspherical Exc in radial PAW
   METAGGA=      F    non-selfconsistent MetaGGA calc.

 Electronic Relaxation 1
   ENCUT  =  700.0 eV  51.45 Ry    7.17 a.u.  16.72 16.53 16.72*2*pi/ulx,y,z
   ENINI  =  700.0     initial cutoff
   ENAUG  =  613.6 eV  augmentation charge cutoff
   NELM   =     60;   NELMIN=  2; NELMDL=  0     # of ELM steps 
   EDIFF  = 0.1E-05   stopping-criterion for ELM
   LREAL  =      T    real-space projection
   NLSPLINE    = F    spline interpolate recip. space projectors
   LCOMPAT=      F    compatible to vasp.4.4
   GGA_COMPAT  = T    GGA compatible to vasp.4.4-vasp.4.6
   LMAXPAW     = -100 max onsite density
   LMAXMIX     =    4 max onsite mixed and CHGCAR
   VOSKOWN=      0    Vosko Wilk Nusair interpolation
   ROPT   =   -0.00010  -0.00010  -0.00010
 Ionic relaxation
   EDIFFG = -.1E-01   stopping-criterion for IOM
   NSW    =    100    number of steps for IOM
   NBLOCK =      1;   KBLOCK =    100    inner block; outer block 
   IBRION =      1    ionic relax: 0-MD 1-quasi-New 2-CG
   NFREE  =      0    steps in history (QN), initial steepest desc. (CG)
   ISIF   =      3    stress and relaxation
   IWAVPR =     11    prediction:  0-non 1-charg 2-wave 3-comb
   ISYM   =      0    0-nonsym 1-usesym 2-fastsym
   LCORR  =      T    Harris-Foulkes like correction to forces

   POTIM  = 0.5000    time-step for ionic-motion
   TEIN   =    0.0    initial temperature
   TEBEG  =    0.0;   TEEND  =   0.0 temperature during run
   SMASS  =  -3.00    Nose mass-parameter (am)
   estimated Nose-frequenzy (Omega)   =  0.10E-29 period in steps =****** mass=  -0.137E-26a.u.
   SCALEE = 1.0000    scale energy and forces
   NPACO  =    256;   APACO  = 16.0  distance and # of slots for P.C.
   PSTRESS=    0.0 pullay stress

  Mass of Ions in am
   POMASS =  47.88 16.00 19.00
  Ionic Valenz
   ZVAL   =  10.00  6.00  7.00
  Atomic Wigner-Seitz radii
   RWIGS  =  -1.00 -1.00 -1.00
  virtual crystal weights 
   VCA    =   1.00  1.00  1.00
   NELECT =     240.0000    total number of electrons
   NUPDOWN=      -1.0000    fix difference up-down

 DOS related values:
   EMIN   =  10.00;   EMAX   =-10.00  energy-range for DOS
   EFERMI =   0.00
   ISMEAR =     0;   SIGMA  =   0.01  broadening in eV -4-tet -1-fermi 0-gaus

 Electronic relaxation 2 (details)
   IALGO  =     38    algorithm
   LDIAG  =      T    sub-space diagonalisation (order eigenvalues)
   LSUBROT=      F    optimize rotation matrix (better conditioning)
   TURBO    =      0    0=normal 1=particle mesh
   IRESTART =      0    0=no restart 2=restart with 2 vectors
   NREBOOT  =      0    no. of reboots
   NMIN     =      0    reboot dimension
   EREF     =   0.00    reference energy to select bands
   IMIX   =      4    mixing-type and parameters
     AMIX     =   0.40;   BMIX     =  1.00
     AMIX_MAG =   1.60;   BMIX_MAG =  1.00
     AMIN     =   0.10
     WC   =   100.;   INIMIX=   1;  MIXPRE=   1;  MAXMIX= -45

 Intra band minimization:
   WEIMIN = 0.0010     energy-eigenvalue tresh-hold
   EBREAK =  0.16E-08  absolut break condition
   DEPER  =   0.30     relativ break condition  

   TIME   =   0.40     timestep for ELM

  volume/ion in A,a.u.               =      14.39        97.10
  Fermi-wavevector in a.u.,A,eV,Ry     =   1.317498  2.489710 23.616995  1.735800
  Thomas-Fermi vector in A             =   2.447535
 
 Write flags
   LWAVE        =      T    write WAVECAR
   LDOWNSAMPLE  =      F    k-point downsampling of WAVECAR
   LCHARG       =      T    write CHGCAR
   LVTOT        =      F    write LOCPOT, total local potential
   LVHAR        =      F    write LOCPOT, Hartree potential only
   LELF         =      F    write electronic localiz. function (ELF)
   LORBIT       =     11    0 simple, 1 ext, 2 COOP (PROOUT), +10 PAW based schemes


 Dipole corrections
   LMONO  =      F    monopole corrections only (constant potential shift)
   LDIPOL =      F    correct potential (dipole corrections)
   IDIPOL =      0    1-x, 2-y, 3-z, 4-all directions 
   EPSILON=  1.0000000 bulk dielectric constant

 LDA+U is selected, type is set to LDAUTYPE =  2
   angular momentum for each species LDAUL =     2   -1   -1
   U (eV)           for each species LDAUU =   4.2  0.0  0.0
   J (eV)           for each species LDAUJ =   0.0  0.0  0.0
 Exchange correlation treatment:
   GGA     =    PS    GGA type
   LEXCH   =    14    internal setting for exchange type
   VOSKOWN=      0    Vosko Wilk Nusair interpolation
   LHFCALC =     F    Hartree Fock is set to
   LHFONE  =     F    Hartree Fock one center treatment
   AEXX    =    0.0000 exact exchange contribution

 Linear response parameters
   LEPSILON=     F    determine dielectric tensor
   LRPA    =     F    only Hartree local field effects (RPA)
   LNABLA  =     F    use nabla operator in PAW spheres
   LVEL    =     F    velocity operator in full k-point grid
   LINTERFAST=   F  fast interpolation
   KINTER  =     0    interpolate to denser k-point grid
   CSHIFT  =0.1000    complex shift for real part using Kramers Kronig
   OMEGAMAX=  -1.0    maximum frequency
   DEG_THRESHOLD= 0.2000000E-02 threshold for treating states as degnerate
   RTIME   =   -0.100 relaxation time in fs
  (WPLASMAI=    0.000 imaginary part of plasma frequency in eV, 0.658/RTIME)
   DFIELD  = 0.0000000 0.0000000 0.0000000 field for delta impulse in time
 
 Orbital magnetization related:
   ORBITALMAG=     F  switch on orbital magnetization
   LCHIMAG   =     F  perturbation theory with respect to B field
   DQ        =  0.001000  dq finite difference perturbation B field
   LLRAUG    =     F  two centre corrections for induced B field



--------------------------------------------------------------------------------------------------------


 quasi-Newton-method for relaxation of ions
 charge density and potential will be updated during run
 spin polarized calculation
 Variant of blocked Davidson
 Davidson routine will perform the subspace rotation
 perform sub-space diagonalisation
    after iterative eigenvector-optimisation
 modified Broyden-mixing scheme, WC =      100.0
 initial mixing is a Kerker type mixing with AMIX =  0.4000 and BMIX =      1.0000
 Hartree-type preconditioning will be used
 using additional bands           40
 real space projection scheme for non local part
 use partial core corrections
 calculate Harris-corrections to forces 
   (improved forces if not selfconsistent)
 use gradient corrections 
 use of overlap-Matrix (Vanderbilt PP)
 Gauss-broadening in eV      SIGMA  =   0.01


--------------------------------------------------------------------------------------------------------


  energy-cutoff  :      700.00
  volume of cell :      460.45
      direct lattice vectors                 reciprocal lattice vectors
     7.752803993  0.000000007  0.000000024     0.128985590 -0.000000000 -0.000000000
     0.000000007  7.660701304  0.000000012    -0.000000000  0.130536352 -0.000000000
     0.000000017  0.000000012  7.752804136    -0.000000000 -0.000000000  0.128985588

  length of vectors
     7.752803993  7.660701304  7.752804136     0.128985590  0.130536352  0.128985588


 
 old parameters found on file WAVECAR:
  energy-cutoff  :      700.00
  volume of cell :      438.28
      direct lattice vectors                 reciprocal lattice vectors
     7.596000000  0.000000000  0.000000000     0.131648236  0.000000000  0.000000000
     0.000000000  7.596000000  0.000000000     0.000000000  0.131648236  0.000000000
     0.000000000  0.000000000  7.596000000     0.000000000  0.000000000  0.131648236

  length of vectors

 
 k-points in units of 2pi/SCALE and weight: Title                                   
   0.01612320  0.01631704  0.01612320       0.031
   0.04836960  0.01631704  0.01612320       0.031
  -0.04836960  0.01631704  0.01612320       0.031
  -0.01612320  0.01631704  0.01612320       0.031
   0.01612320  0.04895113  0.01612320       0.031
   0.04836960  0.04895113  0.01612320       0.031
  -0.04836960  0.04895113  0.01612320       0.031
  -0.01612320  0.04895113  0.01612320       0.031
   0.01612320 -0.04895113  0.01612320       0.031
   0.04836960 -0.04895113  0.01612320       0.031
  -0.04836960 -0.04895113  0.01612320       0.031
  -0.01612320 -0.04895113  0.01612320       0.031
   0.01612320 -0.01631704  0.01612320       0.031
   0.04836960 -0.01631704  0.01612320       0.031
  -0.04836960 -0.01631704  0.01612320       0.031
  -0.01612320 -0.01631704  0.01612320       0.031
   0.01612320  0.01631704  0.04836960       0.031
   0.04836960  0.01631704  0.04836960       0.031
  -0.04836960  0.01631704  0.04836960       0.031
  -0.01612320  0.01631704  0.04836960       0.031
   0.01612320  0.04895113  0.04836960       0.031
   0.04836960  0.04895113  0.04836960       0.031
  -0.04836960  0.04895113  0.04836960       0.031
  -0.01612320  0.04895113  0.04836960       0.031
   0.01612320 -0.04895113  0.04836960       0.031
   0.04836960 -0.04895113  0.04836960       0.031
  -0.04836960 -0.04895113  0.04836960       0.031
  -0.01612320 -0.04895113  0.04836960       0.031
   0.01612320 -0.01631704  0.04836960       0.031
   0.04836960 -0.01631704  0.04836960       0.031
  -0.04836960 -0.01631704  0.04836960       0.031
  -0.01612320 -0.01631704  0.04836960       0.031
 
 k-points in reciprocal lattice and weights: Title                                   
   0.12500000  0.12500000  0.12500000       0.031
   0.37500000  0.12500000  0.12500000       0.031
  -0.37500000  0.12500000  0.12500000       0.031
  -0.12500000  0.12500000  0.12500000       0.031
   0.12500000  0.37500000  0.12500000       0.031
   0.37500000  0.37500000  0.12500000       0.031
  -0.37500000  0.37500000  0.12500000       0.031
  -0.12500000  0.37500000  0.12500000       0.031
   0.12500000 -0.37500000  0.12500000       0.031
   0.37500000 -0.37500000  0.12500000       0.031
  -0.37500000 -0.37500000  0.12500000       0.031
  -0.12500000 -0.37500000  0.12500000       0.031
   0.12500000 -0.12500000  0.12500000       0.031
   0.37500000 -0.12500000  0.12500000       0.031
  -0.37500000 -0.12500000  0.12500000       0.031
  -0.12500000 -0.12500000  0.12500000       0.031
   0.12500000  0.12500000  0.37500000       0.031
   0.37500000  0.12500000  0.37500000       0.031
  -0.37500000  0.12500000  0.37500000       0.031
  -0.12500000  0.12500000  0.37500000       0.031
   0.12500000  0.37500000  0.37500000       0.031
   0.37500000  0.37500000  0.37500000       0.031
  -0.37500000  0.37500000  0.37500000       0.031
  -0.12500000  0.37500000  0.37500000       0.031
   0.12500000 -0.37500000  0.37500000       0.031
   0.37500000 -0.37500000  0.37500000       0.031
  -0.37500000 -0.37500000  0.37500000       0.031
  -0.12500000 -0.37500000  0.37500000       0.031
   0.12500000 -0.12500000  0.37500000       0.031
   0.37500000 -0.12500000  0.37500000       0.031
  -0.37500000 -0.12500000  0.37500000       0.031
  -0.12500000 -0.12500000  0.37500000       0.031
 
 position of ions in fractional coordinates (direct lattice) 
   0.00036545  0.98729677  0.98729841
   0.00036545  0.01270324  0.51270160
   0.98729839  0.51270324  0.00036543
   0.98729840  0.48729676  0.49963454
   0.49963456  0.01270324  0.98729841
   0.49963456  0.98729678  0.51270160
   0.51270160  0.48729678  0.00036545
   0.51270160  0.51270324  0.49963456
   0.75000001  0.50000001  0.99930388
   0.74999998  0.49999999  0.50069610
   0.00154836  0.24999998  0.49845162
   0.00154836  0.74999999  0.00154833
   0.49845166  0.24999997  0.00154839
   0.49845165  0.75000000  0.49845165
   0.99930389  0.00000001  0.74999999
   0.50069612  0.00000001  0.75000003
   0.25000001  1.00000000  0.00836007
   0.25000000  0.00000001  0.49163995
   0.25000000  0.50000000  0.99926689
   0.25000000  0.49999999  0.50073309
   0.75000000  0.99999998  0.00828956
   0.75000000  0.00000001  0.49171046
   0.00424780  0.24999999  0.00424779
   0.00424780  0.75000000  0.49575220
   0.49575218  0.25000000  0.49575221
   0.49575218  0.75000001  0.00424782
   0.99926689  0.99999998  0.25000000
   0.00836006  0.50000000  0.24999998
   0.00828956  0.49999998  0.74999998
   0.50073312  0.00000001  0.25000000
   0.49163992  0.50000001  0.25000001
   0.49171042  0.50000000  0.75000000
 
 position of ions in cartesian coordinates  (Angst):
   0.00283330  7.56338566  7.65433119
   0.00283326  0.09731571  3.97487507
   7.65433087  3.92766636  0.00283311
   7.65433096  3.73303497  3.87356875
   3.87356885  0.09731577  7.65433124
   3.87356884  7.56338574  3.97487507
   3.97487498  3.73303507  0.00283327
   3.97487504  3.92766640  3.87356890
   5.81460310  3.83035078  7.74740729
   5.81460286  3.83035059  3.88179881
   0.01200412  1.91517515  3.86439779
   0.01200415  5.74552594  0.01200391
   3.86439799  1.91517511  0.01200436
   3.86439799  5.74552597  3.86439807
   7.74740724  0.00000006  5.81460305
   3.88179888  0.00000011  5.81460332
   1.93820110  7.66070129  0.06481397
   1.93820102  0.00000008  3.81158824
   1.93820099  3.83035069  7.74712048
   1.93820101  3.83035060  3.88208559
   5.81460302  7.66070115  0.06426737
   5.81460303  0.00000012  3.81213487
   0.03293239  1.91517526  0.03293228
   0.03293241  5.74552597  3.84346974
   3.84346951  1.91517533  3.84346981
   3.84346948  5.74552607  0.03293251
   7.74712036  7.66070119  1.93820110
   0.06481393  3.83035068  1.93820087
   0.06426735  3.83035053  5.81460298
   3.88208572  0.00000005  1.93820108
   3.81158794  3.83035076  1.93820115
   3.81213454  3.83035070  5.81460315
 


--------------------------------------------------------------------------------------------------------


 k-point  1 :   0.1250 0.1250 0.1250  plane waves:   19398
 k-point  2 :   0.3750 0.1250 0.1250  plane waves:   19370
 k-point  3 :  -0.3750 0.1250 0.1250  plane waves:   19370
 k-point  4 :  -0.1250 0.1250 0.1250  plane waves:   19398
 k-point  5 :   0.1250 0.3750 0.1250  plane waves:   19354
 k-point  6 :   0.3750 0.3750 0.1250  plane waves:   19354
 k-point  7 :  -0.3750 0.3750 0.1250  plane waves:   19354
 k-point  8 :  -0.1250 0.3750 0.1250  plane waves:   19354
 k-point  9 :   0.1250-0.3750 0.1250  plane waves:   19354
 k-point 10 :   0.3750-0.3750 0.1250  plane waves:   19354
 k-point 11 :  -0.3750-0.3750 0.1250  plane waves:   19354
 k-point 12 :  -0.1250-0.3750 0.1250  plane waves:   19354
 k-point 13 :   0.1250-0.1250 0.1250  plane waves:   19398
 k-point 14 :   0.3750-0.1250 0.1250  plane waves:   19370
 k-point 15 :  -0.3750-0.1250 0.1250  plane waves:   19370
 k-point 16 :  -0.1250-0.1250 0.1250  plane waves:   19398
 k-point 17 :   0.1250 0.1250 0.3750  plane waves:   19370
 k-point 18 :   0.3750 0.1250 0.3750  plane waves:   19350
 k-point 19 :  -0.3750 0.1250 0.3750  plane waves:   19350
 k-point 20 :  -0.1250 0.1250 0.3750  plane waves:   19370
 k-point 21 :   0.1250 0.3750 0.3750  plane waves:   19354
 k-point 22 :   0.3750 0.3750 0.3750  plane waves:   19384
 k-point 23 :  -0.3750 0.3750 0.3750  plane waves:   19384
 k-point 24 :  -0.1250 0.3750 0.3750  plane waves:   19354
 k-point 25 :   0.1250-0.3750 0.3750  plane waves:   19354
 k-point 26 :   0.3750-0.3750 0.3750  plane waves:   19384
 k-point 27 :  -0.3750-0.3750 0.3750  plane waves:   19384
 k-point 28 :  -0.1250-0.3750 0.3750  plane waves:   19354
 k-point 29 :   0.1250-0.1250 0.3750  plane waves:   19370
 k-point 30 :   0.3750-0.1250 0.3750  plane waves:   19350
 k-point 31 :  -0.3750-0.1250 0.3750  plane waves:   19350
 k-point 32 :  -0.1250-0.1250 0.3750  plane waves:   19370

 maximum and minimum number of plane-waves per node :      2457     2392

 maximum number of plane-waves:     19398
 maximum index in each direction: 
   IXMAX=   17   IYMAX=   16   IZMAX=   16
   IXMIN=  -17   IYMIN=  -16   IZMIN=  -17


 real space projection operators:
  total allocation   :      18582.69 KBytes
  max/ min on nodes  :       2474.31       1933.81


 parallel 3D FFT for wavefunctions:
    minimum data exchange during FFTs selected (reduces bandwidth)
 parallel 3D FFT for charge:
    minimum data exchange during FFTs selected (reduces bandwidth)


 total amount of memory used by VASP MPI-rank0   106718. kBytes
=======================================================================

   base      :      30000. kBytes
   nonlr-proj:       8597. kBytes
   fftplans  :       8424. kBytes
   grid      :       8783. kBytes
   one-center:        124. kBytes
   wavefun   :      50790. kBytes
 
     INWAV:  cpu time   29.3165: real time   39.6411
 Broyden mixing: mesh for mixing (old mesh)
   NGX = 33   NGY = 33   NGZ = 33
  (NGX  =140   NGY  =140   NGZ  =140)
  gives a total of  35937 points

 charge density for first step will be calculated from the start-wavefunctions


--------------------------------------------------------------------------------------------------------


 Maximum index for non-local projection operator         1366
 Maximum index for augmentation-charges         7610 (set IRDMAX)


--------------------------------------------------------------------------------------------------------


 initial charge from wavefunction
 First call to EWALD:  gamma=   0.230
 Maximum number of real-space cells 3x 3x 3
 Maximum number of reciprocal cells 3x 3x 3

    FEWALD:  cpu time    0.0040: real time    0.0035


--------------------------------------- Iteration      1(   1)  ---------------------------------------


    POTLOK:  cpu time    0.1410: real time    0.2059
    SETDIJ:  cpu time    0.8399: real time    0.8396
     EDDAV:  cpu time   28.5437: real time   28.6213
       DOS:  cpu time    0.0030: real time    0.0032
    CHARGE:  cpu time    1.1718: real time    1.1698
    MIXING:  cpu time    0.0020: real time    0.0021
    --------------------------------------------
      LOOP:  cpu time   30.7013: real time   30.8420

 eigenvalue-minimisations  : 20480
 total energy-change (2. order) :-0.2134958E+03  (-0.6400375E-01)
 number of electron     240.0000004 magnetization       0.0000000
 augmentation part       61.9539632 magnetization       0.0000000

 Broyden mixing:
  rms(total) = 0.63753E-02    rms(broyden)= 0.60003E-02
  rms(prec ) = 0.63367E-02
  weight for this iteration     100.00

 Free energy of the ion-electron system (eV)
  ---------------------------------------------------
  alpha Z        PSCENC =       760.48028215
  Ewald energy   TEWEN  =    -12819.88968350
  -Hartree energ DENC   =     -8222.68136105
  -exchange      EXHF   =         0.00000000
  -V(xc)+E(xc)   XCENC  =      1119.88042623
  PAW double counting   =     18024.59795304   -18148.36959720
  entropy T*S    EENTRO =        -0.00000000
  eigenvalues    EBANDS =     -3229.86704587
  atomic energy  EATOM  =     22302.35321627
  Solvation  Ediel_sol  =         0.00000000
  ---------------------------------------------------
  free energy    TOTEN  =      -213.49580994 eV

  energy without entropy =     -213.49580994  energy(sigma->0) =     -213.49580994


--------------------------------------------------------------------------------------------------------




--------------------------------------- Iteration      1(   2)  ---------------------------------------


    POTLOK:  cpu time    0.3629: real time    0.3758
    SETDIJ:  cpu time    0.8399: real time    0.8383
     EDDAV:  cpu time   28.3757: real time   28.4282
       DOS:  cpu time    0.0040: real time    0.0036
    CHARGE:  cpu time    1.1528: real time    1.1673
    MIXING:  cpu time    0.0020: real time    0.0020
    --------------------------------------------
      LOOP:  cpu time   30.7373: real time   30.8151

 eigenvalue-minimisations  : 20096
 total energy-change (2. order) :-0.6941682E-04  (-0.2368143E-05)
 number of electron     240.0000004 magnetization       0.0000000
 augmentation part       61.9548001 magnetization       0.0000000

 Broyden mixing:
  rms(total) = 0.35847E-02    rms(broyden)= 0.35590E-02
  rms(prec ) = 0.37449E-02
  weight for this iteration     100.00

 eigenvalues of (default mixing * dielectric matrix)
  average eigenvalue GAMMA=   2.3036
  2.3036

 Free energy of the ion-electron system (eV)
  ---------------------------------------------------
  alpha Z        PSCENC =       760.48028215
  Ewald energy   TEWEN  =    -12819.88968350
  -Hartree energ DENC   =     -8222.62214811
  -exchange      EXHF   =         0.00000000
  -V(xc)+E(xc)   XCENC  =      1119.87707847
  PAW double counting   =     18025.22028317   -18148.97897916
  entropy T*S    EENTRO =        -0.00000000
  eigenvalues    EBANDS =     -3229.93592864
  atomic energy  EATOM  =     22302.35321627
  Solvation  Ediel_sol  =         0.00000000
  ---------------------------------------------------
  free energy    TOTEN  =      -213.49587935 eV

  energy without entropy =     -213.49587935  energy(sigma->0) =     -213.49587935


--------------------------------------------------------------------------------------------------------




--------------------------------------- Iteration      1(   3)  ---------------------------------------


    POTLOK:  cpu time    0.1530: real time    0.1657
    SETDIJ:  cpu time    0.8279: real time    0.8366
     EDDAV:  cpu time   27.3988: real time   27.4802
       DOS:  cpu time    0.0030: real time    0.0035
    CHARGE:  cpu time    1.2348: real time    1.2408
    MIXING:  cpu time    0.0010: real time    0.0021
    --------------------------------------------
      LOOP:  cpu time   29.6185: real time   29.7290

 eigenvalue-minimisations  : 19072
 total energy-change (2. order) :-0.7474735E-04  (-0.1365670E-05)
 number of electron     240.0000004 magnetization       0.0000000
 augmentation part       61.9550798 magnetization      -0.0000000

 Broyden mixing:
  rms(total) = 0.49864E-03    rms(broyden)= 0.49048E-03
  rms(prec ) = 0.53428E-03
  weight for this iteration     100.00

 eigenvalues of (default mixing * dielectric matrix)
  average eigenvalue GAMMA=   1.7594
  1.0252  2.4936

 Free energy of the ion-electron system (eV)
  ---------------------------------------------------
  alpha Z        PSCENC =       760.48028215
  Ewald energy   TEWEN  =    -12819.88968350
  -Hartree energ DENC   =     -8222.66008456
  -exchange      EXHF   =         0.00000000
  -V(xc)+E(xc)   XCENC  =      1119.87983378
  PAW double counting   =     18026.10265634   -18149.84902462
  entropy T*S    EENTRO =        -0.00000000
  eigenvalues    EBANDS =     -3229.91314997
  atomic energy  EATOM  =     22302.35321627
  Solvation  Ediel_sol  =         0.00000000
  ---------------------------------------------------
  free energy    TOTEN  =      -213.49595410 eV

  energy without entropy =     -213.49595410  energy(sigma->0) =     -213.49595410


--------------------------------------------------------------------------------------------------------




--------------------------------------- Iteration      1(   4)  ---------------------------------------


    POTLOK:  cpu time    0.1540: real time    0.1648
    SETDIJ:  cpu time    0.8389: real time    0.8370
     EDDAV:  cpu time   19.6050: real time   19.5981
       DOS:  cpu time    0.0040: real time    0.0037
    CHARGE:  cpu time    1.1748: real time    1.1726
    MIXING:  cpu time    0.0030: real time    0.0026
    --------------------------------------------
      LOOP:  cpu time   21.7797: real time   21.7788

 eigenvalue-minimisations  : 10752
 total energy-change (2. order) :-0.1700831E-05  (-0.6380979E-07)
 number of electron     240.0000004 magnetization      -0.0000000
 augmentation part       61.9549502 magnetization       0.0000000

 Broyden mixing:
  rms(total) = 0.10873E-03    rms(broyden)= 0.10519E-03
  rms(prec ) = 0.12817E-03
  weight for this iteration     100.00

 eigenvalues of (default mixing * dielectric matrix)
  average eigenvalue GAMMA=   1.6538
  2.5076  0.9677  1.4862

 Free energy of the ion-electron system (eV)
  ---------------------------------------------------
  alpha Z        PSCENC =       760.48028215
  Ewald energy   TEWEN  =    -12819.88968350
  -Hartree energ DENC   =     -8222.67885638
  -exchange      EXHF   =         0.00000000
  -V(xc)+E(xc)   XCENC  =      1119.88088823
  PAW double counting   =     18026.15848561   -18149.90344867
  entropy T*S    EENTRO =        -0.00000000
  eigenvalues    EBANDS =     -3229.89683950
  atomic energy  EATOM  =     22302.35321627
  Solvation  Ediel_sol  =         0.00000000
  ---------------------------------------------------
  free energy    TOTEN  =      -213.49595580 eV

  energy without entropy =     -213.49595580  energy(sigma->0) =     -213.49595580


--------------------------------------------------------------------------------------------------------




--------------------------------------- Iteration      1(   5)  ---------------------------------------


    POTLOK:  cpu time    0.2650: real time    0.2775
    SETDIJ:  cpu time    0.8409: real time    0.8385
     EDDAV:  cpu time   19.1411: real time   19.1323
       DOS:  cpu time    0.0040: real time    0.0035
    --------------------------------------------
      LOOP:  cpu time   20.2509: real time   20.2518

 eigenvalue-minimisations  : 10624
 total energy-change (2. order) :-0.2808520E-07  (-0.1525884E-07)
 number of electron     240.0000004 magnetization      -0.0000000
 augmentation part       61.9549502 magnetization       0.0000000

 Free energy of the ion-electron system (eV)
  ---------------------------------------------------
  alpha Z        PSCENC =       760.48028215
  Ewald energy   TEWEN  =    -12819.88968350
  -Hartree energ DENC   =     -8222.68526288
  -exchange      EXHF   =         0.00000000
  -V(xc)+E(xc)   XCENC  =      1119.88124134
  PAW double counting   =     18026.10231797   -18149.84720144
  entropy T*S    EENTRO =        -0.00000000
  eigenvalues    EBANDS =     -3229.89086574
  atomic energy  EATOM  =     22302.35321627
  Solvation  Ediel_sol  =         0.00000000
  ---------------------------------------------------
  free energy    TOTEN  =      -213.49595583 eV

  energy without entropy =     -213.49595583  energy(sigma->0) =     -213.49595583


--------------------------------------------------------------------------------------------------------




 average (electrostatic) potential at core
  the test charge radii are     1.0397  0.7215  0.7167
  (the norm of the test charge is              1.0000)
       1 -58.9019       2 -58.9019       3 -58.9019       4 -58.9019       5 -58.9019
       6 -58.9019       7 -58.9019       8 -58.9019       9 -74.0807      10 -74.0807
      11 -74.1420      12 -74.1420      13 -74.1420      14 -74.1420      15 -74.0807
      16 -74.0807      17 -79.4488      18 -79.4488      19 -78.4433      20 -78.4433
      21 -79.4441      22 -79.4441      23 -78.6746      24 -78.6746      25 -78.6746
      26 -78.6746      27 -78.4433      28 -79.4488      29 -79.4441      30 -78.4433
      31 -79.4488      32 -79.4441
 
 
 
 E-fermi :  -0.9713     XC(G=0):  -8.9948     alpha+bet : -7.6741


 spin component 1

 k-point     1 :       0.1250    0.1250    0.1250
  band No.  band energies     occupation 
      1     -34.9824      1.00000
      2     -34.9824      1.00000
      3     -34.9795      1.00000
      4     -34.9795      1.00000
      5     -34.8754      1.00000
      6     -34.8754      1.00000
      7     -34.8728      1.00000
      8     -34.8727      1.00000
      9     -34.7937      1.00000
     10     -34.7928      1.00000
     11     -34.7926      1.00000
     12     -34.7921      1.00000
     13     -34.7744      1.00000
     14     -34.7675      1.00000
     15     -34.7670      1.00000
     16     -34.7643      1.00000
     17     -34.7138      1.00000
     18     -34.7092      1.00000
     19     -34.7063      1.00000
     20     -34.6960      1.00000
     21     -34.6913      1.00000
     22     -34.6871      1.00000
     23     -34.6848      1.00000
     24     -34.6820      1.00000
     25     -23.3552      1.00000
     26     -23.3288      1.00000
     27     -23.3160      1.00000
     28     -23.3107      1.00000
     29     -22.8607      1.00000
     30     -22.8600      1.00000
     31     -22.8505      1.00000
     32     -22.8489      1.00000
     33     -22.3770      1.00000
     34     -22.3625      1.00000
     35     -22.3536      1.00000
     36     -22.3485      1.00000
     37     -22.0967      1.00000
     38     -22.0901      1.00000
     39     -22.0723      1.00000
     40     -22.0614      1.00000
     41     -16.7326      1.00000
     42     -16.7142      1.00000
     43     -16.6704      1.00000
     44     -16.6426      1.00000
     45     -16.5576      1.00000
     46     -16.5009      1.00000
     47     -16.4588      1.00000
     48     -16.4504      1.00000
     49      -6.9579      1.00000
     50      -6.9367      1.00000
     51      -6.9239      1.00000
     52      -6.9187      1.00000
     53      -5.9699      1.00000
     54      -5.9641      1.00000
     55      -5.9517      1.00000
     56      -5.9128      1.00000
     57      -5.7469      1.00000
     58      -5.7258      1.00000
     59      -5.6491      1.00000
     60      -5.6348      1.00000
     61      -5.5883      1.00000
     62      -5.5815      1.00000
     63      -5.4747      1.00000
     64      -5.4646      1.00000
     65      -5.3870      1.00000
     66      -5.3258      1.00000
     67      -5.2250      1.00000
     68      -5.2166      1.00000
     69      -5.1858      1.00000
     70      -5.1765      1.00000
     71      -4.5908      1.00000
     72      -4.5848      1.00000
     73      -4.5597      1.00000
     74      -4.4848      1.00000
     75      -4.4800      1.00000
     76      -4.4691      1.00000
     77      -4.4234      1.00000
     78      -4.4173      1.00000
     79      -4.3886      1.00000
     80      -4.3728      1.00000
     81      -4.0790      1.00000
     82      -4.0305      1.00000
     83      -3.9850      1.00000
     84      -3.9678      1.00000
     85      -3.7564      1.00000
     86      -3.6695      1.00000
     87      -3.6178      1.00000
     88      -3.6074      1.00000
     89      -3.4341      1.00000
     90      -3.3896      1.00000
     91      -3.3844      1.00000
     92      -3.3460      1.00000
     93      -3.2947      1.00000
     94      -3.2765      1.00000
     95      -3.2734      1.00000
     96      -3.1310      1.00000
     97      -3.1072      1.00000
     98      -3.0691      1.00000
     99      -3.0536      1.00000
    100      -3.0357      1.00000
    101      -2.8772      1.00000
    102      -2.8193      1.00000
    103      -2.7512      1.00000
    104      -2.7377      1.00000
    105      -2.4848      1.00000
    106      -2.4563      1.00000
    107      -2.3634      1.00000
    108      -2.3391      1.00000
    109      -2.2614      1.00000
    110      -2.2368      1.00000
    111      -2.1314      1.00000
    112      -2.0842      1.00000
    113      -2.0037      1.00000
    114      -1.9988      1.00000
    115      -1.7724      1.00000
    116      -1.7556      1.00000
    117      -1.0888      1.00000
    118      -1.0711      1.00000
    119      -1.0453      1.00000
    120      -1.0236      1.00000
    121       1.9540      0.00000
    122       1.9636      0.00000
    123       1.9809      0.00000
    124       1.9988      0.00000
    125       2.0176      0.00000
    126       2.0350      0.00000
    127       2.7131      0.00000
    128       2.7192      0.00000
    129       2.9644      0.00000
    130       2.9806      0.00000
    131       3.0093      0.00000
    132       3.0248      0.00000
    133       3.1105      0.00000
    134       3.1484      0.00000
    135       3.2400      0.00000
    136       3.2519      0.00000
    137       3.2720      0.00000
    138       3.4530      0.00000
    139       3.4606      0.00000
    140       3.5044      0.00000
    141       3.5232      0.00000
    142       3.5335      0.00000
    143       3.5663      0.00000
    144       3.7613      0.00000
    145       3.7669      0.00000
    146       3.9723      0.00000
    147       4.0314      0.00000
    148       4.0586      0.00000
    149       4.0941      0.00000
    150       4.1129      0.00000
    151       4.1524      0.00000
    152       4.2531      0.00000
    153       4.9114      0.00000
    154       4.9925      0.00000
    155       5.2295      0.00000
    156       6.0074      0.00000
    157       6.0171      0.00000
    158       6.1895      0.00000
    159       6.6644      0.00000
    160       6.7042      0.00000

 k-point     2 :       0.3750    0.1250    0.1250
  band No.  band energies     occupation 
      1     -34.9819      1.00000
      2     -34.9799      1.00000
      3     -34.9516      1.00000
      4     -34.9488      1.00000
      5     -34.9073      1.00000
      6     -34.9045      1.00000
      7     -34.8750      1.00000
      8     -34.8731      1.00000
      9     -34.7930      1.00000
     10     -34.7923      1.00000
     11     -34.7920      1.00000
     12     -34.7912      1.00000
     13     -34.7695      1.00000
     14     -34.7679      1.00000
     15     -34.7523      1.00000
     16     -34.7511      1.00000
     17     -34.7206      1.00000
     18     -34.7193      1.00000
     19     -34.7071      1.00000
     20     -34.7015      1.00000
     21     -34.6952      1.00000
     22     -34.6922      1.00000
     23     -34.6855      1.00000
     24     -34.6845      1.00000
     25     -23.3382      1.00000
     26     -23.3179      1.00000
     27     -23.2060      1.00000
     28     -23.1816      1.00000
     29     -23.0085      1.00000
     30     -22.9900      1.00000
     31     -22.8581      1.00000
     32     -22.8518      1.00000
     33     -22.3715      1.00000
     34     -22.3637      1.00000
     35     -22.3504      1.00000
     36     -22.3447      1.00000
     37     -22.0952      1.00000
     38     -22.0859      1.00000
     39     -22.0694      1.00000
     40     -22.0592      1.00000
     41     -16.7422      1.00000
     42     -16.7240      1.00000
     43     -16.6751      1.00000
     44     -16.6404      1.00000
     45     -16.5604      1.00000
     46     -16.5086      1.00000
     47     -16.4644      1.00000
     48     -16.4505      1.00000
     49      -6.9426      1.00000
     50      -6.9184      1.00000
     51      -6.5585      1.00000
     52      -6.5514      1.00000
     53      -6.0304      1.00000
     54      -6.0227      1.00000
     55      -5.9511      1.00000
     56      -5.9263      1.00000
     57      -5.9043      1.00000
     58      -5.8696      1.00000
     59      -5.7074      1.00000
     60      -5.6743      1.00000
     61      -5.5782      1.00000
     62      -5.4990      1.00000
     63      -5.4759      1.00000
     64      -5.3063      1.00000
     65      -5.2140      1.00000
     66      -5.1979      1.00000
     67      -5.1871      1.00000
     68      -5.1137      1.00000
     69      -5.0667      1.00000
     70      -5.0057      1.00000
     71      -4.8464      1.00000
     72      -4.7622      1.00000
     73      -4.7503      1.00000
     74      -4.6868      1.00000
     75      -4.5346      1.00000
     76      -4.5112      1.00000
     77      -4.4883      1.00000
     78      -4.4462      1.00000
     79      -4.4134      1.00000
     80      -4.2091      1.00000
     81      -4.1251      1.00000
     82      -4.0671      1.00000
     83      -3.9882      1.00000
     84      -3.9405      1.00000
     85      -3.8464      1.00000
     86      -3.7400      1.00000
     87      -3.6695      1.00000
     88      -3.6211      1.00000
     89      -3.6100      1.00000
     90      -3.5390      1.00000
     91      -3.3890      1.00000
     92      -3.3470      1.00000
     93      -3.3149      1.00000
     94      -3.2375      1.00000
     95      -3.2192      1.00000
     96      -3.1584      1.00000
     97      -3.1411      1.00000
     98      -3.0736      1.00000
     99      -3.0529      1.00000
    100      -2.9740      1.00000
    101      -2.9423      1.00000
    102      -2.8955      1.00000
    103      -2.7852      1.00000
    104      -2.7544      1.00000
    105      -2.5903      1.00000
    106      -2.5598      1.00000
    107      -2.4685      1.00000
    108      -2.3512      1.00000
    109      -2.2592      1.00000
    110      -2.1549      1.00000
    111      -2.0526      1.00000
    112      -2.0170      1.00000
    113      -1.9620      1.00000
    114      -1.8509      1.00000
    115      -1.7836      1.00000
    116      -1.7549      1.00000
    117      -1.2206      1.00000
    118      -1.1604      1.00000
    119      -1.0759      1.00000
    120      -1.0335      1.00000
    121       1.9632      0.00000
    122       1.9906      0.00000
    123       2.1837      0.00000
    124       2.2005      0.00000
    125       2.2410      0.00000
    126       2.2540      0.00000
    127       2.4866      0.00000
    128       2.7454      0.00000
    129       2.8060      0.00000
    130       2.8452      0.00000
    131       2.9782      0.00000
    132       3.0178      0.00000
    133       3.1411      0.00000
    134       3.2406      0.00000
    135       3.2590      0.00000
    136       3.3413      0.00000
    137       3.4413      0.00000
    138       3.4704      0.00000
    139       3.4877      0.00000
    140       3.5380      0.00000
    141       3.6063      0.00000
    142       3.6255      0.00000
    143       3.7388      0.00000
    144       3.7576      0.00000
    145       3.8762      0.00000
    146       3.9142      0.00000
    147       3.9208      0.00000
    148       4.0491      0.00000
    149       4.0862      0.00000
    150       4.1063      0.00000
    151       4.1456      0.00000
    152       4.6304      0.00000
    153       4.7575      0.00000
    154       5.1870      0.00000
    155       5.5812      0.00000
    156       5.6541      0.00000
    157       5.7597      0.00000
    158       6.2396      0.00000
    159       6.4865      0.00000
    160       6.7121      0.00000

 k-point     3 :      -0.3750    0.1250    0.1250
  band No.  band energies     occupation 
      1     -34.9819      1.00000
      2     -34.9799      1.00000
      3     -34.9516      1.00000
      4     -34.9488      1.00000
      5     -34.9073      1.00000
      6     -34.9045      1.00000
      7     -34.8750      1.00000
      8     -34.8731      1.00000
      9     -34.7930      1.00000
     10     -34.7923      1.00000
     11     -34.7920      1.00000
     12     -34.7912      1.00000
     13     -34.7695      1.00000
     14     -34.7679      1.00000
     15     -34.7523      1.00000
     16     -34.7511      1.00000
     17     -34.7206      1.00000
     18     -34.7193      1.00000
     19     -34.7071      1.00000
     20     -34.7015      1.00000
     21     -34.6952      1.00000
     22     -34.6922      1.00000
     23     -34.6855      1.00000
     24     -34.6845      1.00000
     25     -23.3382      1.00000
     26     -23.3179      1.00000
     27     -23.2060      1.00000
     28     -23.1816      1.00000
     29     -23.0085      1.00000
     30     -22.9900      1.00000
     31     -22.8581      1.00000
     32     -22.8518      1.00000
     33     -22.3715      1.00000
     34     -22.3637      1.00000
     35     -22.3504      1.00000
     36     -22.3447      1.00000
     37     -22.0952      1.00000
     38     -22.0859      1.00000
     39     -22.0694      1.00000
     40     -22.0592      1.00000
     41     -16.7422      1.00000
     42     -16.7240      1.00000
     43     -16.6751      1.00000
     44     -16.6404      1.00000
     45     -16.5604      1.00000
     46     -16.5086      1.00000
     47     -16.4644      1.00000
     48     -16.4505      1.00000
     49      -6.9426      1.00000
     50      -6.9184      1.00000
     51      -6.5585      1.00000
     52      -6.5514      1.00000
     53      -6.0304      1.00000
     54      -6.0227      1.00000
     55      -5.9511      1.00000
     56      -5.9263      1.00000
     57      -5.9043      1.00000
     58      -5.8696      1.00000
     59      -5.7074      1.00000
     60      -5.6743      1.00000
     61      -5.5782      1.00000
     62      -5.4990      1.00000
     63      -5.4759      1.00000
     64      -5.3063      1.00000
     65      -5.2140      1.00000
     66      -5.1979      1.00000
     67      -5.1871      1.00000
     68      -5.1137      1.00000
     69      -5.0667      1.00000
     70      -5.0057      1.00000
     71      -4.8464      1.00000
     72      -4.7622      1.00000
     73      -4.7503      1.00000
     74      -4.6868      1.00000
     75      -4.5346      1.00000
     76      -4.5112      1.00000
     77      -4.4883      1.00000
     78      -4.4462      1.00000
     79      -4.4134      1.00000
     80      -4.2091      1.00000
     81      -4.1251      1.00000
     82      -4.0671      1.00000
     83      -3.9882      1.00000
     84      -3.9405      1.00000
     85      -3.8464      1.00000
     86      -3.7400      1.00000
     87      -3.6695      1.00000
     88      -3.6211      1.00000
     89      -3.6100      1.00000
     90      -3.5390      1.00000
     91      -3.3890      1.00000
     92      -3.3470      1.00000
     93      -3.3149      1.00000
     94      -3.2375      1.00000
     95      -3.2192      1.00000
     96      -3.1584      1.00000
     97      -3.1411      1.00000
     98      -3.0736      1.00000
     99      -3.0529      1.00000
    100      -2.9740      1.00000
    101      -2.9423      1.00000
    102      -2.8955      1.00000
    103      -2.7852      1.00000
    104      -2.7544      1.00000
    105      -2.5903      1.00000
    106      -2.5598      1.00000
    107      -2.4685      1.00000
    108      -2.3512      1.00000
    109      -2.2592      1.00000
    110      -2.1549      1.00000
    111      -2.0526      1.00000
    112      -2.0170      1.00000
    113      -1.9620      1.00000
    114      -1.8509      1.00000
    115      -1.7836      1.00000
    116      -1.7549      1.00000
    117      -1.2206      1.00000
    118      -1.1604      1.00000
    119      -1.0759      1.00000
    120      -1.0335      1.00000
    121       1.9632      0.00000
    122       1.9906      0.00000
    123       2.1837      0.00000
    124       2.2005      0.00000
    125       2.2410      0.00000
    126       2.2540      0.00000
    127       2.4866      0.00000
    128       2.7454      0.00000
    129       2.8060      0.00000
    130       2.8452      0.00000
    131       2.9782      0.00000
    132       3.0178      0.00000
    133       3.1411      0.00000
    134       3.2406      0.00000
    135       3.2590      0.00000
    136       3.3413      0.00000
    137       3.4413      0.00000
    138       3.4704      0.00000
    139       3.4877      0.00000
    140       3.5380      0.00000
    141       3.6063      0.00000
    142       3.6255      0.00000
    143       3.7388      0.00000
    144       3.7576      0.00000
    145       3.8762      0.00000
    146       3.9142      0.00000
    147       3.9208      0.00000
    148       4.0491      0.00000
    149       4.0862      0.00000
    150       4.1063      0.00000
    151       4.1456      0.00000
    152       4.6304      0.00000
    153       4.7575      0.00000
    154       5.1870      0.00000
    155       5.5812      0.00000
    156       5.6541      0.00000
    157       5.7597      0.00000
    158       6.2396      0.00000
    159       6.4865      0.00000
    160       6.7121      0.00000

 k-point     4 :      -0.1250    0.1250    0.1250
  band No.  band energies     occupation 
      1     -34.9824      1.00000
      2     -34.9824      1.00000
      3     -34.9795      1.00000
      4     -34.9795      1.00000
      5     -34.8754      1.00000
      6     -34.8754      1.00000
      7     -34.8728      1.00000
      8     -34.8727      1.00000
      9     -34.7937      1.00000
     10     -34.7928      1.00000
     11     -34.7926      1.00000
     12     -34.7921      1.00000
     13     -34.7744      1.00000
     14     -34.7675      1.00000
     15     -34.7670      1.00000
     16     -34.7643      1.00000
     17     -34.7138      1.00000
     18     -34.7092      1.00000
     19     -34.7063      1.00000
     20     -34.6960      1.00000
     21     -34.6913      1.00000
     22     -34.6871      1.00000
     23     -34.6848      1.00000
     24     -34.6820      1.00000
     25     -23.3552      1.00000
     26     -23.3288      1.00000
     27     -23.3160      1.00000
     28     -23.3107      1.00000
     29     -22.8607      1.00000
     30     -22.8600      1.00000
     31     -22.8505      1.00000
     32     -22.8489      1.00000
     33     -22.3770      1.00000
     34     -22.3625      1.00000
     35     -22.3536      1.00000
     36     -22.3485      1.00000
     37     -22.0967      1.00000
     38     -22.0901      1.00000
     39     -22.0723      1.00000
     40     -22.0614      1.00000
     41     -16.7326      1.00000
     42     -16.7142      1.00000
     43     -16.6704      1.00000
     44     -16.6426      1.00000
     45     -16.5576      1.00000
     46     -16.5009      1.00000
     47     -16.4588      1.00000
     48     -16.4504      1.00000
     49      -6.9579      1.00000
     50      -6.9367      1.00000
     51      -6.9239      1.00000
     52      -6.9187      1.00000
     53      -5.9699      1.00000
     54      -5.9641      1.00000
     55      -5.9517      1.00000
     56      -5.9128      1.00000
     57      -5.7469      1.00000
     58      -5.7258      1.00000
     59      -5.6491      1.00000
     60      -5.6348      1.00000
     61      -5.5883      1.00000
     62      -5.5815      1.00000
     63      -5.4747      1.00000
     64      -5.4646      1.00000
     65      -5.3870      1.00000
     66      -5.3258      1.00000
     67      -5.2250      1.00000
     68      -5.2166      1.00000
     69      -5.1858      1.00000
     70      -5.1765      1.00000
     71      -4.5908      1.00000
     72      -4.5848      1.00000
     73      -4.5597      1.00000
     74      -4.4848      1.00000
     75      -4.4800      1.00000
     76      -4.4691      1.00000
     77      -4.4234      1.00000
     78      -4.4173      1.00000
     79      -4.3886      1.00000
     80      -4.3728      1.00000
     81      -4.0790      1.00000
     82      -4.0305      1.00000
     83      -3.9850      1.00000
     84      -3.9678      1.00000
     85      -3.7564      1.00000
     86      -3.6695      1.00000
     87      -3.6178      1.00000
     88      -3.6074      1.00000
     89      -3.4341      1.00000
     90      -3.3896      1.00000
     91      -3.3844      1.00000
     92      -3.3460      1.00000
     93      -3.2947      1.00000
     94      -3.2765      1.00000
     95      -3.2734      1.00000
     96      -3.1310      1.00000
     97      -3.1072      1.00000
     98      -3.0691      1.00000
     99      -3.0536      1.00000
    100      -3.0357      1.00000
    101      -2.8772      1.00000
    102      -2.8193      1.00000
    103      -2.7512      1.00000
    104      -2.7377      1.00000
    105      -2.4848      1.00000
    106      -2.4563      1.00000
    107      -2.3634      1.00000
    108      -2.3391      1.00000
    109      -2.2614      1.00000
    110      -2.2368      1.00000
    111      -2.1314      1.00000
    112      -2.0842      1.00000
    113      -2.0037      1.00000
    114      -1.9988      1.00000
    115      -1.7724      1.00000
    116      -1.7556      1.00000
    117      -1.0888      1.00000
    118      -1.0711      1.00000
    119      -1.0453      1.00000
    120      -1.0236      1.00000
    121       1.9540      0.00000
    122       1.9636      0.00000
    123       1.9809      0.00000
    124       1.9988      0.00000
    125       2.0176      0.00000
    126       2.0350      0.00000
    127       2.7131      0.00000
    128       2.7192      0.00000
    129       2.9644      0.00000
    130       2.9806      0.00000
    131       3.0093      0.00000
    132       3.0248      0.00000
    133       3.1105      0.00000
    134       3.1484      0.00000
    135       3.2400      0.00000
    136       3.2519      0.00000
    137       3.2720      0.00000
    138       3.4530      0.00000
    139       3.4606      0.00000
    140       3.5044      0.00000
    141       3.5232      0.00000
    142       3.5335      0.00000
    143       3.5663      0.00000
    144       3.7613      0.00000
    145       3.7669      0.00000
    146       3.9723      0.00000
    147       4.0314      0.00000
    148       4.0586      0.00000
    149       4.0941      0.00000
    150       4.1129      0.00000
    151       4.1524      0.00000
    152       4.2531      0.00000
    153       4.9114      0.00000
    154       4.9925      0.00000
    155       5.2295      0.00000
    156       6.0074      0.00000
    157       6.0171      0.00000
    158       6.1895      0.00000
    159       6.6644      0.00000
    160       6.7042      0.00000

 k-point     5 :       0.1250    0.3750    0.1250
  band No.  band energies     occupation 
      1     -34.9824      1.00000
      2     -34.9824      1.00000
      3     -34.9795      1.00000
      4     -34.9795      1.00000
      5     -34.8754      1.00000
      6     -34.8754      1.00000
      7     -34.8728      1.00000
      8     -34.8727      1.00000
      9     -34.7812      1.00000
     10     -34.7780      1.00000
     11     -34.7773      1.00000
     12     -34.7758      1.00000
     13     -34.7703      1.00000
     14     -34.7641      1.00000
     15     -34.7592      1.00000
     16     -34.7566      1.00000
     17     -34.7289      1.00000
     18     -34.7284      1.00000
     19     -34.7193      1.00000
     20     -34.7181      1.00000
     21     -34.6934      1.00000
     22     -34.6904      1.00000
     23     -34.6885      1.00000
     24     -34.6876      1.00000
     25     -23.3469      1.00000
     26     -23.3360      1.00000
     27     -23.3191      1.00000
     28     -23.3063      1.00000
     29     -22.8611      1.00000
     30     -22.8595      1.00000
     31     -22.8500      1.00000
     32     -22.8493      1.00000
     33     -22.3852      1.00000
     34     -22.3523      1.00000
     35     -22.3466      1.00000
     36     -22.3265      1.00000
     37     -22.1066      1.00000
     38     -22.0863      1.00000
     39     -22.0714      1.00000
     40     -22.0611      1.00000
     41     -16.7564      1.00000
     42     -16.7335      1.00000
     43     -16.7040      1.00000
     44     -16.6496      1.00000
     45     -16.5442      1.00000
     46     -16.5144      1.00000
     47     -16.4780      1.00000
     48     -16.4406      1.00000
     49      -6.9456      1.00000
     50      -6.9388      1.00000
     51      -6.9233      1.00000
     52      -6.9123      1.00000
     53      -5.8255      1.00000
     54      -5.7698      1.00000
     55      -5.7232      1.00000
     56      -5.7009      1.00000
     57      -5.6478      1.00000
     58      -5.6004      1.00000
     59      -5.5880      1.00000
     60      -5.5678      1.00000
     61      -5.5556      1.00000
     62      -5.5251      1.00000
     63      -5.4580      1.00000
     64      -5.4452      1.00000
     65      -5.3697      1.00000
     66      -5.3446      1.00000
     67      -5.1221      1.00000
     68      -5.1083      1.00000
     69      -5.0670      1.00000
     70      -5.0596      1.00000
     71      -4.6161      1.00000
     72      -4.5845      1.00000
     73      -4.5749      1.00000
     74      -4.5116      1.00000
     75      -4.4928      1.00000
     76      -4.4620      1.00000
     77      -4.4499      1.00000
     78      -4.4359      1.00000
     79      -4.4020      1.00000
     80      -4.3411      1.00000
     81      -4.2612      1.00000
     82      -4.2319      1.00000
     83      -4.1940      1.00000
     84      -4.1261      1.00000
     85      -3.9316      1.00000
     86      -3.7981      1.00000
     87      -3.7824      1.00000
     88      -3.7154      1.00000
     89      -3.4396      1.00000
     90      -3.4353      1.00000
     91      -3.4110      1.00000
     92      -3.3935      1.00000
     93      -3.3776      1.00000
     94      -3.3619      1.00000
     95      -3.2778      1.00000
     96      -3.2700      1.00000
     97      -3.2400      1.00000
     98      -3.2129      1.00000
     99      -3.0776      1.00000
    100      -3.0599      1.00000
    101      -2.9286      1.00000
    102      -2.8999      1.00000
    103      -2.8721      1.00000
    104      -2.8461      1.00000
    105      -2.5222      1.00000
    106      -2.5031      1.00000
    107      -2.4817      1.00000
    108      -2.4459      1.00000
    109      -2.1125      1.00000
    110      -2.1037      1.00000
    111      -2.0042      1.00000
    112      -1.9861      1.00000
    113      -1.8798      1.00000
    114      -1.8717      1.00000
    115      -1.7916      1.00000
    116      -1.7818      1.00000
    117      -1.1815      1.00000
    118      -1.1651      1.00000
    119      -1.1279      1.00000
    120      -1.1075      1.00000
    121       2.0112      0.00000
    122       2.0251      0.00000
    123       2.2900      0.00000
    124       2.2974      0.00000
    125       2.3599      0.00000
    126       2.3639      0.00000
    127       2.7056      0.00000
    128       2.7215      0.00000
    129       2.7383      0.00000
    130       2.7560      0.00000
    131       2.8364      0.00000
    132       2.8433      0.00000
    133       3.1261      0.00000
    134       3.1338      0.00000
    135       3.3035      0.00000
    136       3.3380      0.00000
    137       3.4179      0.00000
    138       3.4354      0.00000
    139       3.5227      0.00000
    140       3.5278      0.00000
    141       3.5658      0.00000
    142       3.7045      0.00000
    143       3.7301      0.00000
    144       3.7505      0.00000
    145       3.8545      0.00000
    146       3.8763      0.00000
    147       3.9019      0.00000
    148       3.9145      0.00000
    149       4.0396      0.00000
    150       4.0802      0.00000
    151       4.1344      0.00000
    152       4.5588      0.00000
    153       5.1406      0.00000
    154       5.2976      0.00000
    155       5.4917      0.00000
    156       5.8635      0.00000
    157       6.1949      0.00000
    158       6.2424      0.00000
    159       6.4260      0.00000
    160       6.4850      0.00000

 k-point     6 :       0.3750    0.3750    0.1250
  band No.  band energies     occupation 
      1     -34.9819      1.00000
      2     -34.9799      1.00000
      3     -34.9516      1.00000
      4     -34.9487      1.00000
      5     -34.9073      1.00000
      6     -34.9045      1.00000
      7     -34.8750      1.00000
      8     -34.8731      1.00000
      9     -34.7789      1.00000
     10     -34.7781      1.00000
     11     -34.7717      1.00000
     12     -34.7707      1.00000
     13     -34.7657      1.00000
     14     -34.7628      1.00000
     15     -34.7509      1.00000
     16     -34.7506      1.00000
     17     -34.7311      1.00000
     18     -34.7310      1.00000
     19     -34.7191      1.00000
     20     -34.7185      1.00000
     21     -34.7054      1.00000
     22     -34.7037      1.00000
     23     -34.6899      1.00000
     24     -34.6892      1.00000
     25     -23.3369      1.00000
     26     -23.3172      1.00000
     27     -23.2064      1.00000
     28     -23.1808      1.00000
     29     -23.0084      1.00000
     30     -22.9895      1.00000
     31     -22.8581      1.00000
     32     -22.8518      1.00000
     33     -22.3758      1.00000
     34     -22.3545      1.00000
     35     -22.3428      1.00000
     36     -22.3281      1.00000
     37     -22.1005      1.00000
     38     -22.0849      1.00000
     39     -22.0691      1.00000
     40     -22.0589      1.00000
     41     -16.7658      1.00000
     42     -16.7419      1.00000
     43     -16.7053      1.00000
     44     -16.6504      1.00000
     45     -16.5562      1.00000
     46     -16.5159      1.00000
     47     -16.4770      1.00000
     48     -16.4461      1.00000
     49      -6.9379      1.00000
     50      -6.9146      1.00000
     51      -6.5551      1.00000
     52      -6.5456      1.00000
     53      -6.0156      1.00000
     54      -5.9627      1.00000
     55      -5.7442      1.00000
     56      -5.7359      1.00000
     57      -5.6613      1.00000
     58      -5.6457      1.00000
     59      -5.6232      1.00000
     60      -5.5843      1.00000
     61      -5.5607      1.00000
     62      -5.4711      1.00000
     63      -5.4464      1.00000
     64      -5.3002      1.00000
     65      -5.1787      1.00000
     66      -5.1546      1.00000
     67      -5.1085      1.00000
     68      -5.0492      1.00000
     69      -4.9410      1.00000
     70      -4.8803      1.00000
     71      -4.8413      1.00000
     72      -4.7404      1.00000
     73      -4.6852      1.00000
     74      -4.6181      1.00000
     75      -4.5419      1.00000
     76      -4.5193      1.00000
     77      -4.4845      1.00000
     78      -4.4512      1.00000
     79      -4.3886      1.00000
     80      -4.2958      1.00000
     81      -4.2682      1.00000
     82      -4.2109      1.00000
     83      -4.1705      1.00000
     84      -4.0586      1.00000
     85      -3.9342      1.00000
     86      -3.8996      1.00000
     87      -3.8035      1.00000
     88      -3.7718      1.00000
     89      -3.7027      1.00000
     90      -3.6446      1.00000
     91      -3.5918      1.00000
     92      -3.5644      1.00000
     93      -3.4265      1.00000
     94      -3.3838      1.00000
     95      -3.3534      1.00000
     96      -3.2710      1.00000
     97      -3.2283      1.00000
     98      -3.1346      1.00000
     99      -3.0732      1.00000
    100      -2.9837      1.00000
    101      -2.9505      1.00000
    102      -2.9141      1.00000
    103      -2.8929      1.00000
    104      -2.8608      1.00000
    105      -2.5857      1.00000
    106      -2.5691      1.00000
    107      -2.5028      1.00000
    108      -2.4626      1.00000
    109      -2.1653      1.00000
    110      -2.0466      1.00000
    111      -2.0036      1.00000
    112      -1.9333      1.00000
    113      -1.8836      1.00000
    114      -1.8217      1.00000
    115      -1.7881      1.00000
    116      -1.7571      1.00000
    117      -1.1884      1.00000
    118      -1.1625      1.00000
    119      -1.1271      1.00000
    120      -1.0989      1.00000
    121       2.1861      0.00000
    122       2.2378      0.00000
    123       2.2952      0.00000
    124       2.3588      0.00000
[...]
 -0.000   0.000  -0.000  -0.000  -0.000  -0.000   0.000  -0.000   0.000   0.000  -0.000  -0.000   0.000   0.000   0.000  -0.000
  0.000  -0.000   0.000   0.000  -0.000  -0.000  -0.000   0.000  -0.000  -0.000   0.000   0.000   0.000   0.000  -0.000   0.000
 -0.000   0.000   0.000  -0.000  -0.000  -0.000  -0.000   0.000  -0.000  -0.000   0.000   0.000   0.000   0.000   0.000  -0.000
  0.000  -0.000  -0.000  -0.000   0.000   0.000   0.000  -0.000  -0.000   0.000   0.000   0.000   0.000   0.000  -0.000  -0.000
 -0.000   0.000   0.000   0.000  -0.000  -0.000  -0.000   0.000   0.000   0.000   0.000   0.000   0.000   0.000  -0.000  -0.000
  0.000  -0.000   0.000  -0.000  -0.000  -0.000   0.000   0.000   0.000   0.000  -0.000   0.000  -0.000  -0.000  -0.000  -0.000
 -0.000  -0.000  -0.000   0.000  -0.000   0.000   0.000   0.000   0.000  -0.000   0.000  -0.000  -0.000  -0.000  -0.000  -0.000
 -0.000  -0.000   0.000   0.000   0.000   0.000  -0.000  -0.000  -0.000   0.000   0.000  -0.000   0.000   0.000   0.000  -0.000
 -0.000  -0.000   0.000   0.000  -0.000  -0.000  -0.000  -0.000  -0.000   0.000  -0.000   0.000  -0.000   0.000  -0.000  -0.000


------------------------ aborting loop because EDIFF is reached ----------------------------------------


 


 total charge     
 
# of ion       s       p       d       tot
------------------------------------------
    1        0.319   6.463   1.761   8.543
    2        0.319   6.463   1.761   8.543
    3        0.319   6.463   1.761   8.543
    4        0.319   6.463   1.761   8.543
    5        0.319   6.463   1.761   8.543
    6        0.319   6.463   1.761   8.543
    7        0.319   6.463   1.761   8.543
    8        0.319   6.463   1.761   8.543
    9        1.568   3.464   0.000   5.032
   10        1.568   3.464   0.000   5.032
   11        1.571   3.475   0.000   5.045
   12        1.571   3.475   0.000   5.045
   13        1.571   3.475   0.000   5.045
   14        1.571   3.475   0.000   5.045
   15        1.568   3.464   0.000   5.032
   16        1.568   3.464   0.000   5.032
   17        1.730   4.391   0.000   6.122
   18        1.730   4.391   0.000   6.122
   19        1.728   4.371   0.000   6.099
   20        1.728   4.371   0.000   6.099
   21        1.730   4.390   0.000   6.120
   22        1.730   4.390   0.000   6.120
   23        1.729   4.376   0.000   6.105
   24        1.729   4.376   0.000   6.105
   25        1.729   4.376   0.000   6.105
   26        1.729   4.376   0.000   6.105
   27        1.728   4.371   0.000   6.099
   28        1.730   4.391   0.000   6.122
   29        1.730   4.390   0.000   6.120
   30        1.728   4.371   0.000   6.099
   31        1.730   4.391   0.000   6.122
   32        1.730   4.390   0.000   6.120
--------------------------------------------------
tot         42.774 149.574  14.086 206.434
 


 magnetization (x)
 
# of ion       s       p       d       tot
------------------------------------------
    1        0.000   0.000  -0.000  -0.000
    2        0.000   0.000  -0.000  -0.000
    3        0.000   0.000  -0.000  -0.000
    4       -0.000  -0.000  -0.000  -0.000
    5        0.000  -0.000   0.000   0.000
    6        0.000   0.000  -0.000  -0.000
    7       -0.000  -0.000  -0.000  -0.000
    8       -0.000  -0.000   0.000  -0.000
    9       -0.000   0.000   0.000   0.000
   10        0.000   0.000   0.000   0.000
   11       -0.000   0.000   0.000   0.000
   12       -0.000  -0.000   0.000  -0.000
   13       -0.000  -0.000   0.000  -0.000
   14       -0.000  -0.000   0.000  -0.000
   15        0.000  -0.000   0.000  -0.000
   16        0.000  -0.000   0.000  -0.000
   17        0.000   0.000   0.000   0.000
   18       -0.000   0.000   0.000  -0.000
   19        0.000  -0.000   0.000   0.000
   20        0.000  -0.000   0.000   0.000
   21        0.000   0.000   0.000   0.000
   22       -0.000  -0.000   0.000  -0.000
   23        0.000  -0.000   0.000   0.000
   24        0.000   0.000   0.000   0.000
   25        0.000  -0.000   0.000  -0.000
   26        0.000   0.000   0.000   0.000
   27        0.000   0.000   0.000   0.000
   28        0.000   0.000   0.000   0.000
   29        0.000  -0.000   0.000   0.000
   30        0.000  -0.000   0.000  -0.000
   31       -0.000   0.000   0.000  -0.000
   32        0.000   0.000   0.000   0.000
--------------------------------------------------
tot          0.000   0.000  -0.000   0.000
 
    CHARGE:  cpu time    1.1708: real time    1.2035
    FORLOC:  cpu time    0.0090: real time    0.0102
    FORNL :  cpu time    6.9269: real time    6.9696
    STRESS:  cpu time   20.7528: real time   20.9353
    FORCOR:  cpu time    0.1300: real time    0.1297
    FORHAR:  cpu time    0.0210: real time    0.0214
    MIXING:  cpu time    0.0010: real time    0.0016
    OFIELD:  cpu time    0.0010: real time    0.0000

  FORCE on cell =-STRESS in cart. coord.  units (eV):
  Direction    XX          YY          ZZ          XY          YZ          ZX
  --------------------------------------------------------------------------------------
  Alpha Z   760.48028   760.48028   760.48028
  Ewald   -4272.67928 -4274.58618 -4272.67990     0.00000     0.00001     0.00001
  Hartree  2743.75797  2735.17839  2743.75763     0.00000     0.00001     0.00001
  E(xc)   -1232.31112 -1232.61994 -1232.31112     0.00000     0.00000     0.00000
  Local   -2143.04139 -2161.95899 -2143.04045    -0.00000    -0.00001    -0.00002
  n-local  -968.69803  -963.55264  -968.69802    -0.00000     0.00002    -0.00000
  augment   753.81236   763.84010   753.81236    -0.00000     0.00000     0.00000
  Kinetic  4358.81308  4373.25953  4358.81308    -0.00000    -0.00000    -0.00000
  Fock        0.00000     0.00000     0.00000     0.00000     0.00000     0.00000
  -------------------------------------------------------------------------------------
  Total       0.13387     0.04055     0.13386    -0.00000     0.00002    -0.00000
  in kB       0.46581     0.14111     0.46578    -0.00001     0.00007    -0.00000
  external pressure =        0.36 kB  Pullay stress =        0.00 kB


 VOLUME and BASIS-vectors are now :
 -----------------------------------------------------------------------------
  energy-cutoff  :      700.00
  volume of cell :      460.45
      direct lattice vectors                 reciprocal lattice vectors
     7.752803993  0.000000007  0.000000024     0.128985590 -0.000000000 -0.000000000
     0.000000007  7.660701304  0.000000012    -0.000000000  0.130536352 -0.000000000
     0.000000017  0.000000012  7.752804136    -0.000000000 -0.000000000  0.128985588

  length of vectors
     7.752803993  7.660701304  7.752804136     0.128985590  0.130536352  0.128985588


 FORCES acting on ions
    electron-ion (+dipol)            ewald-force                    non-local-force                 convergence-correction
 -----------------------------------------------------------------------------------------------
   0.871E+01 -.246E+01 0.255E+02   -.865E+01 0.144E+01 -.265E+02   -.581E-01 0.102E+01 0.917E+00   0.860E-04 -.409E-03 -.279E-03
   0.871E+01 0.246E+01 -.255E+02   -.865E+01 -.144E+01 0.265E+02   -.581E-01 -.102E+01 -.917E+00   0.860E-04 0.410E-03 0.280E-03
   0.255E+02 0.246E+01 0.871E+01   -.265E+02 -.144E+01 -.865E+01   0.917E+00 -.102E+01 -.581E-01   -.283E-03 0.410E-03 0.863E-04
   0.255E+02 -.246E+01 -.871E+01   -.265E+02 0.144E+01 0.865E+01   0.917E+00 0.102E+01 0.581E-01   -.282E-03 -.409E-03 -.863E-04
   -.871E+01 0.246E+01 0.255E+02   0.865E+01 -.144E+01 -.265E+02   0.581E-01 -.102E+01 0.917E+00   -.860E-04 0.410E-03 -.280E-03
   -.871E+01 -.246E+01 -.255E+02   0.865E+01 0.144E+01 0.265E+02   0.581E-01 0.102E+01 -.917E+00   -.860E-04 -.409E-03 0.279E-03
   -.255E+02 -.246E+01 0.871E+01   0.265E+02 0.144E+01 -.865E+01   -.917E+00 0.102E+01 -.581E-01   0.282E-03 -.409E-03 0.863E-04
   -.255E+02 0.246E+01 -.871E+01   0.265E+02 -.144E+01 0.865E+01   -.917E+00 -.102E+01 0.581E-01   0.283E-03 0.410E-03 -.863E-04
   0.120E-03 0.345E-05 0.523E+01   -.125E-03 -.271E-05 -.536E+01   0.481E-05 -.918E-06 0.131E+00   -.629E-05 -.290E-06 0.207E-04
   -.111E-03 0.206E-04 -.523E+01   0.115E-03 -.229E-04 0.536E+01   -.408E-05 0.220E-05 -.131E+00   0.620E-05 -.280E-06 -.207E-04
   -.261E+01 -.152E-03 0.261E+01   0.392E+01 0.158E-03 -.392E+01   -.131E+01 -.107E-05 0.131E+01   -.240E-05 0.462E-05 0.166E-05
   -.261E+01 -.352E-04 -.261E+01   0.392E+01 0.349E-04 0.392E+01   -.131E+01 -.753E-05 -.131E+01   -.210E-05 0.786E-05 -.192E-05
   0.261E+01 -.239E-03 -.261E+01   -.392E+01 0.252E-03 0.392E+01   0.131E+01 -.391E-05 -.131E+01   0.237E-05 0.514E-05 -.167E-05
   0.261E+01 -.722E-04 0.261E+01   -.392E+01 0.750E-04 -.392E+01   0.131E+01 -.898E-05 0.131E+01   0.214E-05 0.817E-05 0.193E-05
   0.523E+01 0.294E-05 -.718E-04   -.536E+01 -.273E-05 0.728E-04   0.131E+00 -.440E-07 -.336E-05   0.206E-04 -.289E-06 0.596E-05
   -.523E+01 0.121E-04 0.132E-03   0.536E+01 -.125E-04 -.137E-03   -.131E+00 0.213E-06 0.443E-05   -.206E-04 -.319E-06 -.635E-05
   0.650E-04 0.258E-05 -.105E+02   -.603E-04 -.447E-05 0.148E+02   -.927E-06 0.177E-05 -.428E+01   -.636E-05 -.302E-06 0.315E-05
   -.321E-04 0.283E-04 0.105E+02   0.275E-04 -.268E-04 -.148E+02   -.110E-06 -.144E-05 0.428E+01   0.624E-05 -.298E-06 -.312E-05
   -.530E-05 0.239E-04 0.558E+01   -.508E-05 -.226E-04 -.568E+01   0.616E-05 -.115E-05 0.100E+00   0.579E-05 -.319E-06 0.486E-04
   0.314E-04 -.487E-05 -.558E+01   -.242E-04 0.338E-05 0.568E+01   -.315E-05 0.152E-05 -.100E+00   -.571E-05 -.314E-06 -.486E-04
   -.427E-04 0.342E-04 -.986E+01   0.373E-04 -.396E-04 0.141E+02   0.134E-05 0.556E-05 -.420E+01   0.625E-05 -.327E-06 -.118E-04
   0.155E-04 0.532E-05 0.986E+01   -.781E-05 -.319E-05 -.141E+02   -.290E-05 -.199E-05 0.420E+01   -.614E-05 -.323E-06 0.119E-04
   -.858E+00 -.357E-04 -.858E+00   0.244E+01 0.483E-04 0.244E+01   -.158E+01 -.552E-05 -.158E+01   0.169E-04 -.710E-05 0.171E-04
   -.858E+00 0.262E-04 0.858E+00   0.244E+01 -.190E-04 -.244E+01   -.158E+01 -.475E-05 0.158E+01   0.165E-04 -.421E-05 -.174E-04
   0.858E+00 -.369E-04 0.858E+00   -.244E+01 0.513E-04 -.244E+01   0.158E+01 -.734E-05 0.158E+01   -.168E-04 -.739E-05 -.171E-04
   0.858E+00 0.574E-04 -.858E+00   -.244E+01 -.485E-04 0.244E+01   0.158E+01 -.745E-05 -.158E+01   -.166E-04 -.468E-05 0.174E-04
   0.558E+01 0.331E-04 0.271E-04   -.568E+01 -.352E-04 -.205E-04   0.100E+00 0.236E-05 -.214E-05   0.484E-04 -.324E-06 -.551E-05
   -.105E+02 -.585E-05 -.554E-04   0.148E+02 0.675E-05 0.509E-04   -.428E+01 -.793E-06 -.267E-07   0.243E-05 -.272E-06 0.615E-05
   -.986E+01 0.273E-04 0.859E-05   0.141E+02 -.299E-04 -.205E-05   -.420E+01 0.283E-05 -.203E-05   -.126E-04 -.298E-06 -.607E-05
   -.558E+01 0.147E-04 -.427E-04   0.568E+01 -.142E-04 0.343E-04   -.100E+00 -.548E-06 0.449E-05   -.484E-04 -.355E-06 0.585E-05
   0.105E+02 0.280E-05 0.789E-04   -.148E+02 -.168E-05 -.762E-04   0.428E+01 0.516E-04 0.200E-04   -.243E-05 -.279E-06 -.659E-05
   0.986E+01 0.109E-04 -.297E-04   -.141E+02 -.109E-04 0.223E-04   0.420E+01 -.884E-07 0.348E-05   0.126E-04 -.309E-06 0.650E-05
 -----------------------------------------------------------------------------------------------
   -.718E-05 0.386E-04 -.167E-05   0.309E-12 -.650E-13 -.117E-12   0.384E-05 0.135E-04 0.204E-04   -.162E-07 0.199E-05 0.134E-07
 
 
 POSITION                                       TOTAL-FORCE (eV/Angst)
 -----------------------------------------------------------------------------------
      0.00283      7.56339      7.65433        -0.000486      0.001190      0.000645
      0.00283      0.09732      3.97488        -0.000486     -0.001196     -0.000648
      7.65433      3.92767      0.00283         0.000650     -0.001192     -0.000486
      7.65433      3.73303      3.87357         0.000647      0.001187      0.000484
      3.87357      0.09732      7.65433         0.000486     -0.001197      0.000646
      3.87357      7.56339      3.97488         0.000486      0.001189     -0.000644
      3.97487      3.73304      0.00283        -0.000647      0.001185     -0.000486
      3.97488      3.92767      3.87357        -0.000649     -0.001193      0.000485
      5.81460      3.83035      7.74741        -0.000006     -0.000002     -0.000312
      5.81460      3.83035      3.88180         0.000006     -0.000002      0.000311
      0.01200      1.91518      3.86440        -0.000388      0.000007      0.000386
      0.01200      5.74553      0.01200        -0.000388     -0.000002     -0.000388
      3.86440      1.91518      0.01200         0.000388      0.000012     -0.000388
      3.86440      5.74553      3.86440         0.000388      0.000000      0.000387
      7.74741      0.00000      5.81460        -0.000312     -0.000002      0.000003
      3.88180      0.00000      5.81460         0.000312     -0.000002     -0.000008
      1.93820      7.66070      0.06481        -0.000002     -0.000002      0.006233
      1.93820      0.00000      3.81159         0.000002     -0.000002     -0.006235
      1.93820      3.83035      7.74712         0.000002     -0.000002     -0.001432
      1.93820      3.83035      3.88209        -0.000002     -0.000002      0.001431
      5.81460      7.66070      0.06427         0.000002     -0.000002      0.005446
      5.81460      0.00000      3.81213        -0.000001     -0.000002     -0.005448
      0.03293      1.91518      0.03293        -0.000477     -0.000002     -0.000478
      0.03293      5.74553      3.84347        -0.000478     -0.000003      0.000477
      3.84347      1.91518      3.84347         0.000478     -0.000002      0.000477
      3.84347      5.74553      0.03293         0.000478     -0.000005     -0.000478
      7.74712      7.66070      1.93820        -0.001432     -0.000002     -0.000002
      0.06481      3.83035      1.93820         0.006234     -0.000002      0.000001
      0.06427      3.83035      5.81460         0.005447     -0.000002     -0.000002
      3.88209      0.00000      1.93820         0.001432     -0.000002      0.000001
      3.81159      3.83035      1.93820        -0.006237      0.000051      0.000016
      3.81213      3.83035      5.81460        -0.005447     -0.000002      0.000002
 -----------------------------------------------------------------------------------
    total drift:                               -0.000003      0.000054      0.000019


--------------------------------------------------------------------------------------------------------



  FREE ENERGIE OF THE ION-ELECTRON SYSTEM (eV)
  ---------------------------------------------------
  free  energy   TOTEN  =      -213.49595583 eV

  energy  without entropy=     -213.49595583  energy(sigma->0) =     -213.49595583
 


--------------------------------------------------------------------------------------------------------


    POTLOK:  cpu time    0.9699: real time    0.9751


--------------------------------------------------------------------------------------------------------


 stress matrix after NEB project (eV)
      0.13387     -0.00000     -0.00000
     -0.00000      0.04055      0.00002
     -0.00000      0.00002      0.13386
  FORCES: max atom, RMS     0.006237    0.003074
  FORCE total and by dimension    0.017389    0.006237
  Stress total and by dimension    0.193610    0.133870
 Quasi-Newton relaxation of ions (Broydens 2nd method)
  g(Force)  = 0.146E-04   g(Stress)= 0.565E-04

 Reset! Starting new Quasi-Newton update for ions 


--------------------------------------------------------------------------------------------------------


  
 reached required accuracy - stopping structural energy minimisation
 writing wavefunctions
     LOOP+:  cpu time  194.7894: real time  196.8088
    4ORBIT:  cpu time    0.0000: real time    0.0000
 


 total charge     
 
# of ion       s       p       d       tot
------------------------------------------
    1        0.319   6.463   1.761   8.543
    2        0.319   6.463   1.761   8.543
    3        0.319   6.463   1.761   8.543
    4        0.319   6.463   1.761   8.543
    5        0.319   6.463   1.761   8.543
    6        0.319   6.463   1.761   8.543
    7        0.319   6.463   1.761   8.543
    8        0.319   6.463   1.761   8.543
    9        1.568   3.464   0.000   5.032
   10        1.568   3.464   0.000   5.032
   11        1.571   3.475   0.000   5.045
   12        1.571   3.475   0.000   5.045
   13        1.571   3.475   0.000   5.045
   14        1.571   3.475   0.000   5.045
   15        1.568   3.464   0.000   5.032
   16        1.568   3.464   0.000   5.032
   17        1.730   4.391   0.000   6.122
   18        1.730   4.391   0.000   6.122
   19        1.728   4.371   0.000   6.099
   20        1.728   4.371   0.000   6.099
   21        1.730   4.390   0.000   6.120
   22        1.730   4.390   0.000   6.120
   23        1.729   4.376   0.000   6.105
   24        1.729   4.376   0.000   6.105
   25        1.729   4.376   0.000   6.105
   26        1.729   4.376   0.000   6.105
   27        1.728   4.371   0.000   6.099
   28        1.730   4.391   0.000   6.122
   29        1.730   4.390   0.000   6.120
   30        1.728   4.371   0.000   6.099
   31        1.730   4.391   0.000   6.122
   32        1.730   4.390   0.000   6.120
--------------------------------------------------
tot         42.774 149.574  14.086 206.434
 


 magnetization (x)
 
# of ion       s       p       d       tot
------------------------------------------
    1        0.000   0.000  -0.000  -0.000
    2        0.000   0.000  -0.000  -0.000
    3        0.000   0.000  -0.000  -0.000
    4       -0.000  -0.000  -0.000  -0.000
    5        0.000  -0.000   0.000   0.000
    6        0.000   0.000  -0.000  -0.000
    7       -0.000  -0.000  -0.000  -0.000
    8       -0.000  -0.000   0.000  -0.000
    9       -0.000   0.000   0.000   0.000
   10        0.000   0.000   0.000   0.000
   11       -0.000   0.000   0.000   0.000
   12       -0.000  -0.000   0.000  -0.000
   13       -0.000  -0.000   0.000  -0.000
   14       -0.000  -0.000   0.000  -0.000
   15        0.000  -0.000   0.000  -0.000
   16        0.000  -0.000   0.000  -0.000
   17        0.000   0.000   0.000   0.000
   18       -0.000   0.000   0.000  -0.000
   19        0.000  -0.000   0.000   0.000
   20        0.000  -0.000   0.000   0.000
   21        0.000   0.000   0.000   0.000
   22       -0.000  -0.000   0.000  -0.000
   23        0.000  -0.000   0.000   0.000
   24        0.000   0.000   0.000   0.000
   25        0.000  -0.000   0.000  -0.000
   26        0.000   0.000   0.000   0.000
   27        0.000   0.000   0.000   0.000
   28        0.000   0.000   0.000   0.000
   29        0.000  -0.000   0.000   0.000
   30        0.000  -0.000   0.000  -0.000
   31       -0.000   0.000   0.000  -0.000
   32        0.000   0.000   0.000   0.000
--------------------------------------------------
tot          0.000   0.000  -0.000   0.000
 

 total amount of memory used by VASP MPI-rank0   106718. kBytes
=======================================================================

   base      :      30000. kBytes
   nonlr-proj:       8597. kBytes
   fftplans  :       8424. kBytes
   grid      :       8783. kBytes
   one-center:        124. kBytes
   wavefun   :      50790. kBytes
 
  
  
 General timing and accounting informations for this job:
 ========================================================
  
                  Total CPU time used (sec):      243.983
                            User time (sec):      222.319
                          System time (sec):       21.664
                         Elapsed time (sec):      259.297
  
                   Maximum memory used (kb):      222348.
                   Average memory used (kb):           0.
  
                          Minor page faults:       103631
                          Major page faults:            2
                 Voluntary context switches:        67053
