 vasp.5.4.4.18Apr17-6-g9f103f2a35 (build Apr 30 2017 20:10:35) complex          
  
 executed on             LinuxIFC date 2017.08.07  10:00:39
 running on   64 total cores
 distrk:  each k-point on   64 cores,    1 groups
 distr:  one band on NCORES_PER_BAND=   8 cores,    8 groups


--------------------------------------------------------------------------------------------------------


 INCAR:
 POTCAR:   PAW_PBE Ti_pv 07Sep2000                
 POTCAR:   PAW_PBE O 08Apr2002                    
 POTCAR:    PAW_PBE F 08Apr2002                   
 POTCAR:   PAW_PBE Ti_pv 07Sep2000                
   VRHFIN =Ti: d3 s1                                                            
   LEXCH  = PE                                                                  
   EATOM  =  1042.3781 eV,   76.6126 Ry                                         
                                                                                
   TITEL  = PAW_PBE Ti_pv 07Sep2000                                             
   LULTRA =        F    use ultrasoft PP ?                                      
   IUNSCR =        1    unscreen: 0-lin 1-nonlin 2-no                           
   RPACOR =    2.200    partial core radius                                     
   POMASS =   47.880; ZVAL   =   10.000    mass and valenz                      
   RCORE  =    2.500    outmost cutoff radius                                   
   RWIGS  =    2.500; RWIGS  =    1.323    wigner-seitz radius (au A)           
   ENMAX  =  222.338; ENMIN  =  166.753 eV                                      
   RCLOC  =    1.701    cutoff for local pot                                    
   LCOR   =        T    correct aug charges                                     
   LPAW   =        T    paw PP                                                  
   EAUG   =  482.848                                                            
   DEXC   =    -.008                                                            
   RMAX   =    3.092    core radius for proj-oper                               
   RAUG   =    1.300    factor for augmentation sphere                          
   RDEP   =    2.538    radius for radial grids                                 
   QCUT   =   -4.042; QGAM   =    8.085    optimization parameters              
                                                                                
   Description                                                                  
     l     E      TYP  RCUT    TYP  RCUT                                        
     1   .000     23  2.300                                                     
     1  -.100     23  2.300                                                     
     2   .000     23  2.500                                                     
     2   .000     23  2.500                                                     
     0   .000     23  2.500                                                     
     0  1.500     23  2.500                                                     
     3   .000      7   .000                                                     
  local pseudopotential read in
  partial core-charges read in
  atomic valenz-charges read in
  non local Contribution for L=           1  read in
    real space projection operators read in
  non local Contribution for L=           1  read in
    real space projection operators read in
  non local Contribution for L=           2  read in
    real space projection operators read in
  non local Contribution for L=           2  read in
    real space projection operators read in
  non local Contribution for L=           0  read in
    real space projection operators read in
  non local Contribution for L=           0  read in
    real space projection operators read in
    PAW grid and wavefunctions read in
 
   number of l-projection  operators is LMAX  =           6
   number of lm-projection operators is LMMAX =          18
 
 POTCAR:   PAW_PBE O 08Apr2002                    
   VRHFIN =O: s2p4                                                              
   LEXCH  = PE                                                                  
   EATOM  =   432.3788 eV,   31.7789 Ry                                         
                                                                                
   TITEL  = PAW_PBE O 08Apr2002                                                 
   LULTRA =        F    use ultrasoft PP ?                                      
   IUNSCR =        0    unscreen: 0-lin 1-nonlin 2-no                           
   RPACOR =     .000    partial core radius                                     
   POMASS =   16.000; ZVAL   =    6.000    mass and valenz                      
   RCORE  =    1.520    outmost cutoff radius                                   
   RWIGS  =    1.550; RWIGS  =     .820    wigner-seitz radius (au A)           
   ENMAX  =  400.000; ENMIN  =  300.000 eV                                      
   ICORE  =        2    local potential                                         
   LCOR   =        T    correct aug charges                                     
   LPAW   =        T    paw PP                                                  
   EAUG   =  605.392                                                            
   DEXC   =     .000                                                            
   RMAX   =    2.264    core radius for proj-oper                               
   RAUG   =    1.300    factor for augmentation sphere                          
   RDEP   =    1.550    radius for radial grids                                 
   QCUT   =   -5.520; QGAM   =   11.041    optimization parameters              
                                                                                
   Description                                                                  
     l     E      TYP  RCUT    TYP  RCUT                                        
     0   .000     23  1.200                                                     
     0  -.700     23  1.200                                                     
     1   .000     23  1.520                                                     
     1   .600     23  1.520                                                     
     2   .000      7  1.500                                                     
  local pseudopotential read in
  atomic valenz-charges read in
  non local Contribution for L=           0  read in
    real space projection operators read in
  non local Contribution for L=           0  read in
    real space projection operators read in
  non local Contribution for L=           1  read in
    real space projection operators read in
  non local Contribution for L=           1  read in
    real space projection operators read in
    PAW grid and wavefunctions read in
 
   number of l-projection  operators is LMAX  =           4
   number of lm-projection operators is LMMAX =           8
 
 POTCAR:    PAW_PBE F 08Apr2002                   
   VRHFIN =F: s2p5                                                              
   LEXCH  = PE                                                                  
   EATOM  =   659.6475 eV,   48.4827 Ry                                         
                                                                                
   TITEL  = PAW_PBE F 08Apr2002                                                 
   LULTRA =        F    use ultrasoft PP ?                                      
   IUNSCR =        1    unscreen: 0-lin 1-nonlin 2-no                           
   RPACOR =    1.200    partial core radius                                     
   POMASS =   18.998; ZVAL   =    7.000    mass and valenz                      
   RCORE  =    1.520    outmost cutoff radius                                   
   RWIGS  =    1.500; RWIGS  =    0.794    wigner-seitz radius (au A)           
   ENMAX  =  400.000; ENMIN  =  300.000 eV                                      
   ICORE  =        2    local potential                                         
   LCOR   =        T    correct aug charges                                     
   LPAW   =        T    paw PP                                                  
   EAUG   =  613.614                                                            
   RMAX   =    1.555    core radius for proj-oper                               
   RAUG   =    1.300    factor for augmentation sphere                          
   RDEP   =    1.539    radius for radial grids                                 
   RDEPT  =    1.299    core radius for aug-charge                              
                                                                                
   Atomic configuration                                                         
    4 entries                                                                   
     n  l   j            E        occ.                                          
     1  0  0.50      -663.3661   2.0000                                         
     2  0  0.50       -29.8995   2.0000                                         
     2  1  0.50       -11.1114   5.0000                                         
     3  2  1.50       -10.8847   0.0000                                         
   Description                                                                  
     l       E           TYP  RCUT    TYP  RCUT                                 
     0    -29.8995018     23  1.200                                             
     0     -9.5240782     23  1.200                                             
     1    -11.1113914     23  1.520                                             
     1      1.3605826     23  1.520                                             
     2    -10.8846608      7  1.500                                             
  local pseudopotential read in
  partial core-charges read in
  partial kinetic energy density read in
  atomic valenz-charges read in
  non local Contribution for L=           0  read in
    real space projection operators read in
  non local Contribution for L=           0  read in
    real space projection operators read in
  non local Contribution for L=           1  read in
    real space projection operators read in
  non local Contribution for L=           1  read in
    real space projection operators read in
    PAW grid and wavefunctions read in
 
   number of l-projection  operators is LMAX  =           4
   number of lm-projection operators is LMMAX =           8
 
 Optimization of the real space projectors (new method)

 maximal supplied QI-value         = 15.12
 optimisation between [QCUT,QGAM] = [ 13.45, 27.06] = [ 50.69,205.06] Ry 
 Optimized for a Real-space Cutoff    1.49 Angstroem

   l    n(q)    QCUT    max X(q) W(low)/X(q) W(high)/X(q)  e(spline) 
   1     12    13.455     4.841    0.13E-05    0.83E-06    0.56E-07
   1     12    13.455     5.701    0.32E-04    0.25E-04    0.17E-06
   2     11    13.455     4.569    0.64E-05    0.34E-05    0.50E-07
   2     11    13.455    32.276    0.49E-04    0.38E-04    0.46E-06
   0     12    13.455    30.046    0.17E-04    0.41E-05    0.51E-07
   0     12    13.455    45.433    0.12E-04    0.27E-04    0.38E-06
 Optimization of the real space projectors (new method)

 maximal supplied QI-value         = 24.76
 optimisation between [QCUT,QGAM] = [ 13.37, 26.98] = [ 50.04,203.89] Ry 
 Optimized for a Real-space Cutoff    1.17 Angstroem

   l    n(q)    QCUT    max X(q) W(low)/X(q) W(high)/X(q)  e(spline) 
   0      9    13.368     4.192    0.20E-04    0.58E-05    0.56E-07
   0      9    13.368     8.473    0.60E-04    0.52E-04    0.21E-06
   1      9    13.368     2.474    0.22E-04    0.17E-04    0.28E-07
   1      9    13.368     3.912    0.94E-04    0.97E-04    0.20E-06
 Optimization of the real space projectors (new method)

 maximal supplied QI-value         = 24.76
 optimisation between [QCUT,QGAM] = [ 13.37, 26.98] = [ 50.04,203.89] Ry 
 Optimized for a Real-space Cutoff    1.17 Angstroem

   l    n(q)    QCUT    max X(q) W(low)/X(q) W(high)/X(q)  e(spline) 
   0      9    13.368    14.049    0.39E-04    0.34E-04    0.16E-06
   0      9    13.368     8.945    0.54E-04    0.47E-04    0.20E-06
   1      9    13.368     7.086    0.99E-04    0.10E-03    0.23E-06
   1      9    13.368     6.747    0.86E-04    0.89E-04    0.21E-06

 ----------------------------------------------------------------------------- 
|                                                                             |
|  ADVICE TO THIS USER RUNNING 'VASP/VAMP'   (HEAR YOUR MASTER'S VOICE ...):  |
|                                                                             |
|      You enforced a specific xc-type in the INCAR file,                     |
|      a different type was found on the POTCAR file                          |
|          I HOPE YOU KNOW, WHAT YOU ARE  DOING                               |
|                                                                             |
 ----------------------------------------------------------------------------- 

 PAW_PBE Ti_pv 07Sep2000                :
 energy of atom  1       EATOM=-1042.3781
 kinetic energy error for atom=    0.0006 (will be added to EATOM!!)
 PAW_PBE O 08Apr2002                    :
 energy of atom  2       EATOM= -432.3788
 kinetic energy error for atom=    0.0091 (will be added to EATOM!!)
  PAW_PBE F 08Apr2002                   :
 energy of atom  3       EATOM= -659.6475
 kinetic energy error for atom=    0.0140 (will be added to EATOM!!)
 
 
 POSCAR: TiOF2 2x2x2 config 1102                 
  positions in direct lattice
  velocities in cartesian coordinates
 exchange correlation table for  LEXCH =       14
   RHO(1)=    0.500       N(1)  =     2000
   RHO(2)=  100.500       N(2)  =     4000

 VTST: version 3.1, (03/28/14)

 CHAIN: initializing optimizer
 
 OPT: Using VASP QUASI-newton optimizer
 CHAIN: Read ICHAIN            0
 
 POSCAR: TiOF2 2x2x2 config 1102                 
  positions in direct lattice
  velocities in cartesian coordinates
 


--------------------------------------------------------------------------------------------------------


 ion  position               nearest neighbor table
   1  0.001  1.000  0.000-  17 1.91  21 1.92  30 1.97  29 1.97  23 1.98  25 1.98
   2  0.001  1.000  0.500-  18 1.85  22 1.86  29 1.86  30 1.86  26 1.91  24 1.91
   3  0.979  0.500  1.000-   9 1.73  31 1.94  32 1.94  23 1.94  25 1.94  19 2.05
   4  0.981  0.500  0.500-  10 1.71  32 1.93  31 1.93  20 2.01  24 2.01  26 2.01
   5  0.500  0.000  1.000-  14 1.87  13 1.88  27 1.94  28 1.94  17 2.00  21 2.01
   6  0.501  1.000  0.500-  12 1.93  11 1.93  13 1.95  14 1.95  18 2.06  22 2.07
   7  0.501  0.500  0.000-  15 1.89  16 1.89  27 1.97  28 1.97   9 2.02  19 2.03
   8  0.500  0.500  0.500-  16 1.94  15 1.94  12 1.98  11 1.98  20 2.06  10 2.06
   9  0.758  0.500  1.000-   3 1.73   7 2.02
  10  0.763  0.500  0.500-   4 1.71   8 2.06
  11  0.500  0.247  0.500-   6 1.93   8 1.98
  12  0.500  0.753  0.500-   6 1.93   8 1.98
  13  0.501  0.000  0.245-   5 1.88   6 1.95
  14  0.501  0.000  0.755-   5 1.87   6 1.95
  15  0.498  0.500  0.246-   7 1.89   8 1.94
  16  0.499  0.500  0.754-   7 1.89   8 1.94
  17  0.245  0.000  0.000-   1 1.91   5 2.00
  18  0.238  0.000  0.500-   2 1.85   6 2.06
  19  0.241  0.500  1.000-   7 2.03   3 2.05
  20  0.237  0.500  0.500-   4 2.01   8 2.06
  21  0.757  1.000  0.000-   1 1.92   5 2.01
  22  0.764  1.000  0.500-   2 1.86   6 2.07
  23  0.004  0.253  0.000-   3 1.94   1 1.98
  24  0.003  0.244  0.500-   2 1.91   4 2.01
  25  0.004  0.747  1.000-   3 1.94   1 1.98
  26  0.003  0.756  0.500-   2 1.91   4 2.01
  27  0.498  0.248  1.000-   5 1.94   7 1.97
  28  0.498  0.752  1.000-   5 1.94   7 1.97
  29  1.000  1.000  0.257-   2 1.86   1 1.97
  30  1.000  1.000  0.743-   2 1.86   1 1.97
  31  0.012  0.500  0.250-   4 1.93   3 1.94
  32  0.012  0.500  0.750-   4 1.93   3 1.94
 

IMPORTANT INFORMATION: All symmetrisations will be switched off!
NOSYMM: (Re-)initialisation of all symmetry stuff for point group C_1.

 
 
 KPOINTS: Title                                   

Automatic generation of k-mesh.
Space group operators:
 irot       det(A)        alpha          n_x          n_y          n_z        tau_x        tau_y        tau_z
    1     1.000000     0.000000     1.000000     0.000000     0.000000     0.000000     0.000000     0.000000
 
 Subroutine IBZKPT returns following result:
 ===========================================
 
 Found     32 irreducible k-points:
 
 Following reciprocal coordinates:
            Coordinates               Weight
  0.125000  0.125000  0.125000      2.000000
  0.375000  0.125000  0.125000      2.000000
 -0.375000  0.125000  0.125000      2.000000
 -0.125000  0.125000  0.125000      2.000000
  0.125000  0.375000  0.125000      2.000000
  0.375000  0.375000  0.125000      2.000000
 -0.375000  0.375000  0.125000      2.000000
 -0.125000  0.375000  0.125000      2.000000
  0.125000 -0.375000  0.125000      2.000000
  0.375000 -0.375000  0.125000      2.000000
 -0.375000 -0.375000  0.125000      2.000000
 -0.125000 -0.375000  0.125000      2.000000
  0.125000 -0.125000  0.125000      2.000000
  0.375000 -0.125000  0.125000      2.000000
 -0.375000 -0.125000  0.125000      2.000000
 -0.125000 -0.125000  0.125000      2.000000
  0.125000  0.125000  0.375000      2.000000
  0.375000  0.125000  0.375000      2.000000
 -0.375000  0.125000  0.375000      2.000000
 -0.125000  0.125000  0.375000      2.000000
  0.125000  0.375000  0.375000      2.000000
  0.375000  0.375000  0.375000      2.000000
 -0.375000  0.375000  0.375000      2.000000
 -0.125000  0.375000  0.375000      2.000000
  0.125000 -0.375000  0.375000      2.000000
  0.375000 -0.375000  0.375000      2.000000
 -0.375000 -0.375000  0.375000      2.000000
 -0.125000 -0.375000  0.375000      2.000000
  0.125000 -0.125000  0.375000      2.000000
  0.375000 -0.125000  0.375000      2.000000
 -0.375000 -0.125000  0.375000      2.000000
 -0.125000 -0.125000  0.375000      2.000000
 
 Following cartesian coordinates:
            Coordinates               Weight
  0.015943  0.015994  0.016320      2.000000
  0.047830  0.015994  0.016320      2.000000
 -0.047830  0.015994  0.016320      2.000000
 -0.015944  0.015994  0.016320      2.000000
  0.015943  0.047982  0.016320      2.000000
  0.047830  0.047981  0.016320      2.000000
 -0.047830  0.047982  0.016320      2.000000
 -0.015944  0.047982  0.016320      2.000000
  0.015943 -0.047982  0.016320      2.000000
  0.047830 -0.047982  0.016320      2.000000
 -0.047830 -0.047981  0.016320      2.000000
 -0.015944 -0.047981  0.016320      2.000000
  0.015943 -0.015994  0.016320      2.000000
  0.047830 -0.015994  0.016320      2.000000
 -0.047830 -0.015994  0.016320      2.000000
 -0.015944 -0.015994  0.016320      2.000000
  0.015943  0.015994  0.048960      2.000000
  0.047830  0.015994  0.048960      2.000000
 -0.047831  0.015994  0.048960      2.000000
 -0.015944  0.015994  0.048960      2.000000
  0.015943  0.047982  0.048960      2.000000
  0.047830  0.047981  0.048960      2.000000
 -0.047831  0.047982  0.048961      2.000000
 -0.015944  0.047982  0.048960      2.000000
  0.015943 -0.047982  0.048960      2.000000
  0.047830 -0.047982  0.048960      2.000000
 -0.047831 -0.047981  0.048960      2.000000
 -0.015944 -0.047981  0.048960      2.000000
  0.015943 -0.015994  0.048960      2.000000
  0.047830 -0.015994  0.048960      2.000000
 -0.047831 -0.015994  0.048960      2.000000
 -0.015944 -0.015994  0.048960      2.000000
 


--------------------------------------------------------------------------------------------------------




 Dimension of arrays:
   k-points           NKPTS =     32   k-points in BZ     NKDIM =     32   number of bands    NBANDS=    160
   number of dos      NEDOS =   3001   number of ions     NIONS =     32
   non local maximal  LDIM  =      6   non local SUM 2l+1 LMDIM =     18
   total plane-waves  NPLWV = 343000
   max r-space proj   IRMAX =  10134   max aug-charges    IRDMAX= 227168
   dimension x,y,z NGX =    70 NGY =   70 NGZ =   70
   dimension x,y,z NGXF=   140 NGYF=  140 NGZF=  140
   support grid    NGXF=   280 NGYF=  280 NGZF=  280
   ions per type =               8   8  16
   NGX,Y,Z   is equivalent  to a cutoff of  14.84, 14.89, 15.19 a.u.
   NGXF,Y,Z  is equivalent  to a cutoff of  29.69, 29.78, 30.39 a.u.

 SYSTEM =  LTO                                     
 POSCAR =  TiOF2 2x2x2 config 1102                 

 Startparameter for this run:
   NWRITE =      2    write-flag & timer
   PREC   = accura    normal or accurate (medium, high low for compatibility)
   ISTART =      1    job   : 0-new  1-cont  2-samecut
   ICHARG =      0    charge: 1-file 2-atom 10-const
   ISPIN  =      2    spin polarized calculation?
   LNONCOLLINEAR =      F non collinear calculations
   LSORBIT =      F    spin-orbit coupling
   INIWAV =      1    electr: 0-lowe 1-rand  2-diag
   LASPH  =      T    aspherical Exc in radial PAW
   METAGGA=      F    non-selfconsistent MetaGGA calc.

 Electronic Relaxation 1
   ENCUT  =  700.0 eV  51.45 Ry    7.17 a.u.  16.91 16.86 16.52*2*pi/ulx,y,z
   ENINI  =  700.0     initial cutoff
   ENAUG  =  613.6 eV  augmentation charge cutoff
   NELM   =     60;   NELMIN=  2; NELMDL=  0     # of ELM steps 
   EDIFF  = 0.1E-05   stopping-criterion for ELM
   LREAL  =      T    real-space projection
   NLSPLINE    = F    spline interpolate recip. space projectors
   LCOMPAT=      F    compatible to vasp.4.4
   GGA_COMPAT  = T    GGA compatible to vasp.4.4-vasp.4.6
   LMAXPAW     = -100 max onsite density
   LMAXMIX     =    4 max onsite mixed and CHGCAR
   VOSKOWN=      0    Vosko Wilk Nusair interpolation
   ROPT   =   -0.00010  -0.00010  -0.00010
 Ionic relaxation
   EDIFFG = -.1E-01   stopping-criterion for IOM
   NSW    =    100    number of steps for IOM
   NBLOCK =      1;   KBLOCK =    100    inner block; outer block 
   IBRION =      1    ionic relax: 0-MD 1-quasi-New 2-CG
   NFREE  =      0    steps in history (QN), initial steepest desc. (CG)
   ISIF   =      3    stress and relaxation
   IWAVPR =     11    prediction:  0-non 1-charg 2-wave 3-comb
   ISYM   =      0    0-nonsym 1-usesym 2-fastsym
   LCORR  =      T    Harris-Foulkes like correction to forces

   POTIM  = 0.5000    time-step for ionic-motion
   TEIN   =    0.0    initial temperature
   TEBEG  =    0.0;   TEEND  =   0.0 temperature during run
   SMASS  =  -3.00    Nose mass-parameter (am)
   estimated Nose-frequenzy (Omega)   =  0.10E-29 period in steps =****** mass=  -0.140E-26a.u.
   SCALEE = 1.0000    scale energy and forces
   NPACO  =    256;   APACO  = 16.0  distance and # of slots for P.C.
   PSTRESS=    0.0 pullay stress

  Mass of Ions in am
   POMASS =  47.88 16.00 19.00
  Ionic Valenz
   ZVAL   =  10.00  6.00  7.00
  Atomic Wigner-Seitz radii
   RWIGS  =  -1.00 -1.00 -1.00
  virtual crystal weights 
   VCA    =   1.00  1.00  1.00
   NELECT =     240.0000    total number of electrons
   NUPDOWN=      -1.0000    fix difference up-down

 DOS related values:
   EMIN   =  10.00;   EMAX   =-10.00  energy-range for DOS
   EFERMI =   0.00
   ISMEAR =     0;   SIGMA  =   0.01  broadening in eV -4-tet -1-fermi 0-gaus

 Electronic relaxation 2 (details)
   IALGO  =     38    algorithm
   LDIAG  =      T    sub-space diagonalisation (order eigenvalues)
   LSUBROT=      F    optimize rotation matrix (better conditioning)
   TURBO    =      0    0=normal 1=particle mesh
   IRESTART =      0    0=no restart 2=restart with 2 vectors
   NREBOOT  =      0    no. of reboots
   NMIN     =      0    reboot dimension
   EREF     =   0.00    reference energy to select bands
   IMIX   =      4    mixing-type and parameters
     AMIX     =   0.40;   BMIX     =  1.00
     AMIX_MAG =   1.60;   BMIX_MAG =  1.00
     AMIN     =   0.10
     WC   =   100.;   INIMIX=   1;  MIXPRE=   1;  MAXMIX= -45

 Intra band minimization:
   WEIMIN = 0.0010     energy-eigenvalue tresh-hold
   EBREAK =  0.16E-08  absolut break condition
   DEPER  =   0.30     relativ break condition  

   TIME   =   0.40     timestep for ELM

  volume/ion in A,a.u.               =      14.67        98.97
  Fermi-wavevector in a.u.,A,eV,Ry     =   1.309147  2.473929 23.318558  1.713866
  Thomas-Fermi vector in A             =   2.439766
 
 Write flags
   LWAVE        =      T    write WAVECAR
   LDOWNSAMPLE  =      F    k-point downsampling of WAVECAR
   LCHARG       =      T    write CHGCAR
   LVTOT        =      F    write LOCPOT, total local potential
   LVHAR        =      F    write LOCPOT, Hartree potential only
   LELF         =      F    write electronic localiz. function (ELF)
   LORBIT       =     11    0 simple, 1 ext, 2 COOP (PROOUT), +10 PAW based schemes


 Dipole corrections
   LMONO  =      F    monopole corrections only (constant potential shift)
   LDIPOL =      F    correct potential (dipole corrections)
   IDIPOL =      0    1-x, 2-y, 3-z, 4-all directions 
   EPSILON=  1.0000000 bulk dielectric constant

 LDA+U is selected, type is set to LDAUTYPE =  2
   angular momentum for each species LDAUL =     2   -1   -1
   U (eV)           for each species LDAUU =   4.2  0.0  0.0
   J (eV)           for each species LDAUJ =   0.0  0.0  0.0
 Exchange correlation treatment:
   GGA     =    PS    GGA type
   LEXCH   =    14    internal setting for exchange type
   VOSKOWN=      0    Vosko Wilk Nusair interpolation
   LHFCALC =     F    Hartree Fock is set to
   LHFONE  =     F    Hartree Fock one center treatment
   AEXX    =    0.0000 exact exchange contribution

 Linear response parameters
   LEPSILON=     F    determine dielectric tensor
   LRPA    =     F    only Hartree local field effects (RPA)
   LNABLA  =     F    use nabla operator in PAW spheres
   LVEL    =     F    velocity operator in full k-point grid
   LINTERFAST=   F  fast interpolation
   KINTER  =     0    interpolate to denser k-point grid
   CSHIFT  =0.1000    complex shift for real part using Kramers Kronig
   OMEGAMAX=  -1.0    maximum frequency
   DEG_THRESHOLD= 0.2000000E-02 threshold for treating states as degnerate
   RTIME   =   -0.100 relaxation time in fs
  (WPLASMAI=    0.000 imaginary part of plasma frequency in eV, 0.658/RTIME)
   DFIELD  = 0.0000000 0.0000000 0.0000000 field for delta impulse in time
 
 Orbital magnetization related:
   ORBITALMAG=     F  switch on orbital magnetization
   LCHIMAG   =     F  perturbation theory with respect to B field
   DQ        =  0.001000  dq finite difference perturbation B field
   LLRAUG    =     F  two centre corrections for induced B field



--------------------------------------------------------------------------------------------------------


 quasi-Newton-method for relaxation of ions
 charge density and potential will be updated during run
 spin polarized calculation
 Variant of blocked Davidson
 Davidson routine will perform the subspace rotation
 perform sub-space diagonalisation
    after iterative eigenvector-optimisation
 modified Broyden-mixing scheme, WC =      100.0
 initial mixing is a Kerker type mixing with AMIX =  0.4000 and BMIX =      1.0000
 Hartree-type preconditioning will be used
 using additional bands           40
 real space projection scheme for non local part
 use partial core corrections
 calculate Harris-corrections to forces 
   (improved forces if not selfconsistent)
 use gradient corrections 
 use of overlap-Matrix (Vanderbilt PP)
 Gauss-broadening in eV      SIGMA  =   0.01


--------------------------------------------------------------------------------------------------------


  energy-cutoff  :      700.00
  volume of cell :      469.32
      direct lattice vectors                 reciprocal lattice vectors
     7.840197385 -0.000000354  0.000024768     0.127547809 -0.000000285 -0.000000228
     0.000017462  7.815505902 -0.000005666     0.000000006  0.127950770  0.000000094
     0.000013718 -0.000005651  7.659254238    -0.000000412  0.000000095  0.130561014

  length of vectors
     7.840197385  7.815505902  7.659254238     0.127547809  0.127950770  0.130561014


 
 old parameters found on file WAVECAR:
  energy-cutoff  :      700.00
  volume of cell :      469.00
      direct lattice vectors                 reciprocal lattice vectors
     7.838950874  0.000007424  0.000017319     0.127568091 -0.000000412 -0.000000108
     0.000025209  7.813550962  0.000004946    -0.000000121  0.127982783 -0.000000079
     0.000006453  0.000004748  7.657182727    -0.000000289 -0.000000083  0.130596335

  length of vectors

 
 k-points in units of 2pi/SCALE and weight: Title                                   
   0.01594343  0.01599382  0.01632011       0.031
   0.04783038  0.01599375  0.01632005       0.031
  -0.04783048  0.01599396  0.01632022       0.031
  -0.01594353  0.01599389  0.01632017       0.031
   0.01594343  0.04798152  0.01632013       0.031
   0.04783038  0.04798144  0.01632008       0.031
  -0.04783048  0.04798166  0.01632025       0.031
  -0.01594353  0.04798159  0.01632019       0.031
   0.01594342 -0.04798156  0.01632006       0.031
   0.04783037 -0.04798163  0.01632001       0.031
  -0.04783048 -0.04798142  0.01632018       0.031
  -0.01594353 -0.04798149  0.01632012       0.031
   0.01594342 -0.01599387  0.01632009       0.031
   0.04783038 -0.01599394  0.01632003       0.031
  -0.04783048 -0.01599373  0.01632020       0.031
  -0.01594353 -0.01599380  0.01632014       0.031
   0.01594332  0.01599385  0.04896036       0.031
   0.04783027  0.01599377  0.04896031       0.031
  -0.04783058  0.01599399  0.04896048       0.031
  -0.01594363  0.01599392  0.04896042       0.031
   0.01594332  0.04798154  0.04896039       0.031
   0.04783028  0.04798147  0.04896033       0.031
  -0.04783058  0.04798168  0.04896050       0.031
  -0.01594363  0.04798161  0.04896044       0.031
   0.01594332 -0.04798154  0.04896032       0.031
   0.04783027 -0.04798161  0.04896026       0.031
  -0.04783059 -0.04798140  0.04896043       0.031
  -0.01594363 -0.04798147  0.04896037       0.031
   0.01594332 -0.01599385  0.04896034       0.031
   0.04783027 -0.01599392  0.04896028       0.031
  -0.04783058 -0.01599370  0.04896045       0.031
  -0.01594363 -0.01599378  0.04896040       0.031
 
 k-points in reciprocal lattice and weights: Title                                   
   0.12500000  0.12500000  0.12500000       0.031
   0.37500000  0.12500000  0.12500000       0.031
  -0.37500000  0.12500000  0.12500000       0.031
  -0.12500000  0.12500000  0.12500000       0.031
   0.12500000  0.37500000  0.12500000       0.031
   0.37500000  0.37500000  0.12500000       0.031
  -0.37500000  0.37500000  0.12500000       0.031
  -0.12500000  0.37500000  0.12500000       0.031
   0.12500000 -0.37500000  0.12500000       0.031
   0.37500000 -0.37500000  0.12500000       0.031
  -0.37500000 -0.37500000  0.12500000       0.031
  -0.12500000 -0.37500000  0.12500000       0.031
   0.12500000 -0.12500000  0.12500000       0.031
   0.37500000 -0.12500000  0.12500000       0.031
  -0.37500000 -0.12500000  0.12500000       0.031
  -0.12500000 -0.12500000  0.12500000       0.031
   0.12500000  0.12500000  0.37500000       0.031
   0.37500000  0.12500000  0.37500000       0.031
  -0.37500000  0.12500000  0.37500000       0.031
  -0.12500000  0.12500000  0.37500000       0.031
   0.12500000  0.37500000  0.37500000       0.031
   0.37500000  0.37500000  0.37500000       0.031
  -0.37500000  0.37500000  0.37500000       0.031
  -0.12500000  0.37500000  0.37500000       0.031
   0.12500000 -0.37500000  0.37500000       0.031
   0.37500000 -0.37500000  0.37500000       0.031
  -0.37500000 -0.37500000  0.37500000       0.031
  -0.12500000 -0.37500000  0.37500000       0.031
   0.12500000 -0.12500000  0.37500000       0.031
   0.37500000 -0.12500000  0.37500000       0.031
  -0.37500000 -0.12500000  0.37500000       0.031
  -0.12500000 -0.12500000  0.37500000       0.031
 
 position of ions in fractional coordinates (direct lattice) 
   0.00108864  0.99999920  0.00000248
   0.00122119  0.99999687  0.50000237
   0.97919997  0.49999875  0.99999586
   0.98095038  0.49999596  0.49999573
   0.50044694  0.00000153  0.99987960
   0.50078006  0.99996934  0.49989781
   0.50080875  0.49999292  0.00013888
   0.49965374  0.50004053  0.50007714
   0.75828497  0.49999687  0.99999845
   0.76271999  0.50000555  0.49998862
   0.49984648  0.24687057  0.50001588
   0.49983886  0.75314540  0.50001750
   0.50131307  0.00002065  0.24497978
   0.50131453  0.00002394  0.75511854
   0.49849648  0.49998741  0.24634844
   0.49850091  0.49998188  0.75353902
   0.24523759  0.00000788  0.00000790
   0.23769024  0.00000309  0.50001334
   0.24127778  0.49999903  0.99998631
   0.23688152  0.49999373  0.49998457
   0.75651685  0.99999282  0.00001199
   0.76438881  0.99999178  0.50000701
   0.00422650  0.25349685  0.00000056
   0.00271839  0.24408057  0.49999941
   0.00422344  0.74650108  0.99999832
   0.00272938  0.75591421  0.50000107
   0.49770644  0.24842500  0.99999964
   0.49769999  0.75157237  0.99999687
   0.99987599  0.99999750  0.25715052
   0.99986850  0.99999972  0.74285542
   0.01224784  0.49999930  0.25039034
   0.01224576  0.49999771  0.74960063
 
 position of ions in cartesian coordinates  (Angst):
   0.00855261  7.81549962  0.00001332
   0.00959866  7.81547858  3.82963964
   7.67714353  3.90773717  7.65924396
   7.69086017  3.90771822  3.82961588
   3.92361653  0.00000615  7.65834444
   3.92623887  7.81526324  3.82885118
   3.92644820  3.90769742  0.00107330
   3.91739956  3.90806672  3.83022746
   5.94512631  3.90772258  7.65925833
   5.97989084  3.90779324  3.82955598
   3.91890624  1.92941540  3.82975971
   3.91885530  5.88620932  3.82976929
   3.93039678  0.00015981  1.87637483
   3.93041526  0.00018267  5.78365732
   3.90832294  3.90765299  1.88685484
   3.90836459  3.90760689  5.77155642
   1.92271115  0.00006152  0.00006655
   1.86354527  0.00002124  3.82973519
   1.89168787  3.90773965  7.65915250
   1.85721350  3.90770100  3.82951198
   5.93125891  7.81544949  0.00010490
   5.99298347  7.81543859  3.82969409
   0.03314104  1.98120610  0.00000295
   0.02132386  1.90761028  3.82962131
   0.03313932  5.83427797  7.65923728
   0.02141890  5.90784918  3.82963110
   3.90213480  1.94156125  7.65926238
   3.90209296  5.87391246  7.65923833
   7.83924615  7.81548454  1.96960032
   7.83919408  7.81549914  5.68973764
   0.09603762  3.90774608  1.91780074
   0.09602818  3.90773083  5.74137931
 


--------------------------------------------------------------------------------------------------------


 k-point  1 :   0.1250 0.1250 0.1250  plane waves:   19723
 k-point  2 :   0.3750 0.1250 0.1250  plane waves:   19754
 k-point  3 :  -0.3750 0.1250 0.1250  plane waves:   19753
 k-point  4 :  -0.1250 0.1250 0.1250  plane waves:   19723
 k-point  5 :   0.1250 0.3750 0.1250  plane waves:   19748
 k-point  6 :   0.3750 0.3750 0.1250  plane waves:   19740
 k-point  7 :  -0.3750 0.3750 0.1250  plane waves:   19740
 k-point  8 :  -0.1250 0.3750 0.1250  plane waves:   19748
 k-point  9 :   0.1250-0.3750 0.1250  plane waves:   19748
 k-point 10 :   0.3750-0.3750 0.1250  plane waves:   19740
 k-point 11 :  -0.3750-0.3750 0.1250  plane waves:   19740
 k-point 12 :  -0.1250-0.3750 0.1250  plane waves:   19748
 k-point 13 :   0.1250-0.1250 0.1250  plane waves:   19723
 k-point 14 :   0.3750-0.1250 0.1250  plane waves:   19754
 k-point 15 :  -0.3750-0.1250 0.1250  plane waves:   19754
 k-point 16 :  -0.1250-0.1250 0.1250  plane waves:   19723
 k-point 17 :   0.1250 0.1250 0.3750  plane waves:   19712
 k-point 18 :   0.3750 0.1250 0.3750  plane waves:   19737
 k-point 19 :  -0.3750 0.1250 0.3750  plane waves:   19737
 k-point 20 :  -0.1250 0.1250 0.3750  plane waves:   19712
 k-point 21 :   0.1250 0.3750 0.3750  plane waves:   19747
 k-point 22 :   0.3750 0.3750 0.3750  plane waves:   19743
 k-point 23 :  -0.3750 0.3750 0.3750  plane waves:   19743
 k-point 24 :  -0.1250 0.3750 0.3750  plane waves:   19748
 k-point 25 :   0.1250-0.3750 0.3750  plane waves:   19748
 k-point 26 :   0.3750-0.3750 0.3750  plane waves:   19743
 k-point 27 :  -0.3750-0.3750 0.3750  plane waves:   19743
 k-point 28 :  -0.1250-0.3750 0.3750  plane waves:   19747
 k-point 29 :   0.1250-0.1250 0.3750  plane waves:   19712
 k-point 30 :   0.3750-0.1250 0.3750  plane waves:   19737
 k-point 31 :  -0.3750-0.1250 0.3750  plane waves:   19737
 k-point 32 :  -0.1250-0.1250 0.3750  plane waves:   19712

 maximum and minimum number of plane-waves per node :      2492     2436

 maximum number of plane-waves:     19754
 maximum index in each direction: 
   IXMAX=   17   IYMAX=   17   IZMAX=   16
   IXMIN=  -17   IYMIN=  -17   IZMIN=  -16


 real space projection operators:
  total allocation   :      18241.70 KBytes
  max/ min on nodes  :       2430.91       1901.28


 parallel 3D FFT for wavefunctions:
    minimum data exchange during FFTs selected (reduces bandwidth)
 parallel 3D FFT for charge:
    minimum data exchange during FFTs selected (reduces bandwidth)


 total amount of memory used by VASP MPI-rank0   107720. kBytes
=======================================================================

   base      :      30000. kBytes
   nonlr-proj:       8451. kBytes
   fftplans  :       8425. kBytes
   grid      :       8783. kBytes
   one-center:        124. kBytes
   wavefun   :      51937. kBytes
 
     INWAV:  cpu time   30.2494: real time   32.4974
 Broyden mixing: mesh for mixing (old mesh)
   NGX = 33   NGY = 33   NGZ = 33
  (NGX  =140   NGY  =140   NGZ  =140)
  gives a total of  35937 points

 charge density for first step will be calculated from the start-wavefunctions


--------------------------------------------------------------------------------------------------------


 Maximum index for non-local projection operator         1366
 Maximum index for augmentation-charges         7726 (set IRDMAX)


--------------------------------------------------------------------------------------------------------


 initial charge from wavefunction
 First call to EWALD:  gamma=   0.228
 Maximum number of real-space cells 3x 3x 3
 Maximum number of reciprocal cells 3x 3x 3

    FEWALD:  cpu time    0.0050: real time    0.0034


--------------------------------------- Iteration      1(   1)  ---------------------------------------


    POTLOK:  cpu time    0.1500: real time    0.1730
    SETDIJ:  cpu time    0.8189: real time    0.8497
     EDDAV:  cpu time   28.9376: real time   29.1122
       DOS:  cpu time    0.0040: real time    0.0055
    CHARGE:  cpu time    1.1638: real time    1.1951
    MIXING:  cpu time    0.0070: real time    0.0078
    --------------------------------------------
      LOOP:  cpu time   31.0813: real time   31.3432

 eigenvalue-minimisations  : 21560
 total energy-change (2. order) :-0.2082787E+03  (-0.7531319E-03)
 number of electron     240.0000004 magnetization      -0.0000000
 augmentation part       62.0376294 magnetization      -0.3924660

 Broyden mixing:
  rms(total) = 0.15307E-01    rms(broyden)= 0.15304E-01
  rms(prec ) = 0.22965E-01
  weight for this iteration     100.00

 Free energy of the ion-electron system (eV)
  ---------------------------------------------------
  alpha Z        PSCENC =       746.11114318
  Ewald energy   TEWEN  =    -12646.26288279
  -Hartree energ DENC   =     -8357.24473348
  -exchange      EXHF   =         0.00000000
  -V(xc)+E(xc)   XCENC  =      1119.11939644
  PAW double counting   =     17985.72113027   -18106.09114531
  entropy T*S    EENTRO =        -0.00137943
  eigenvalues    EBANDS =     -3251.98345362
  atomic energy  EATOM  =     22302.35321627
  Solvation  Ediel_sol  =         0.00000000
  ---------------------------------------------------
  free energy    TOTEN  =      -208.27870847 eV

  energy without entropy =     -208.27732904  energy(sigma->0) =     -208.27801875


--------------------------------------------------------------------------------------------------------




--------------------------------------- Iteration      1(   2)  ---------------------------------------


    POTLOK:  cpu time    0.1530: real time    0.1640
    SETDIJ:  cpu time    0.8479: real time    0.8453
     EDDAV:  cpu time   36.1565: real time   36.1766
       DOS:  cpu time    0.0050: real time    0.0054
    CHARGE:  cpu time    1.1838: real time    1.1809
    MIXING:  cpu time    0.0020: real time    0.0020
    --------------------------------------------
      LOOP:  cpu time   38.3482: real time   38.3742

 eigenvalue-minimisations  : 28432
 total energy-change (2. order) :-0.5178289E-03  (-0.1955986E-03)
 number of electron     240.0000004 magnetization      -0.0000000
 augmentation part       62.0382744 magnetization      -0.3922901

 Broyden mixing:
  rms(total) = 0.42527E-01    rms(broyden)= 0.42518E-01
  rms(prec ) = 0.60474E-01
  weight for this iteration     100.00

 eigenvalues of (default mixing * dielectric matrix)
  average eigenvalue GAMMA=   0.2529
  0.2529

 Free energy of the ion-electron system (eV)
  ---------------------------------------------------
  alpha Z        PSCENC =       746.11114318
  Ewald energy   TEWEN  =    -12646.26288279
  -Hartree energ DENC   =     -8357.23461509
  -exchange      EXHF   =         0.00000000
  -V(xc)+E(xc)   XCENC  =      1119.11985586
  PAW double counting   =     17985.69589912   -18106.06737373
  entropy T*S    EENTRO =        -0.00136815
  eigenvalues    EBANDS =     -3251.99310097
  atomic energy  EATOM  =     22302.35321627
  Solvation  Ediel_sol  =         0.00000000
  ---------------------------------------------------
  free energy    TOTEN  =      -208.27922630 eV

  energy without entropy =     -208.27785815  energy(sigma->0) =     -208.27854222


--------------------------------------------------------------------------------------------------------




--------------------------------------- Iteration      1(   3)  ---------------------------------------


    POTLOK:  cpu time    0.1430: real time    0.1556
    SETDIJ:  cpu time    0.8419: real time    0.8425
     EDDAV:  cpu time   34.7597: real time   34.7667
       DOS:  cpu time    0.0060: real time    0.0054
    CHARGE:  cpu time    1.1558: real time    1.1561
    MIXING:  cpu time    0.0030: real time    0.0022
    --------------------------------------------
      LOOP:  cpu time   36.9094: real time   36.9285

 eigenvalue-minimisations  : 26880
 total energy-change (2. order) : 0.6689422E-03  (-0.1014230E-03)
 number of electron     240.0000004 magnetization      -0.0000000
 augmentation part       62.0383343 magnetization      -0.3925481

 Broyden mixing:
  rms(total) = 0.47694E-02    rms(broyden)= 0.47526E-02
  rms(prec ) = 0.68426E-02
  weight for this iteration     100.00

 eigenvalues of (default mixing * dielectric matrix)
  average eigenvalue GAMMA=   0.3306
  0.3306  0.3306

 Free energy of the ion-electron system (eV)
  ---------------------------------------------------
  alpha Z        PSCENC =       746.11114318
  Ewald energy   TEWEN  =    -12646.26288279
  -Hartree energ DENC   =     -8357.23543159
  -exchange      EXHF   =         0.00000000
  -V(xc)+E(xc)   XCENC  =      1119.11965364
  PAW double counting   =     17985.69906071   -18106.07001343
  entropy T*S    EENTRO =        -0.00138916
  eigenvalues    EBANDS =     -3251.99191419
  atomic energy  EATOM  =     22302.35321627
  Solvation  Ediel_sol  =         0.00000000
  ---------------------------------------------------
  free energy    TOTEN  =      -208.27855736 eV

  energy without entropy =     -208.27716820  energy(sigma->0) =     -208.27786278


--------------------------------------------------------------------------------------------------------




--------------------------------------- Iteration      1(   4)  ---------------------------------------


    POTLOK:  cpu time    0.2100: real time    0.5278
    SETDIJ:  cpu time    0.8439: real time    0.8429
     EDDAV:  cpu time   28.0167: real time   28.0062
       DOS:  cpu time    0.0050: real time    0.0055
    CHARGE:  cpu time    1.2168: real time    1.2140
    MIXING:  cpu time    0.0030: real time    0.0024
    --------------------------------------------
      LOOP:  cpu time   30.2954: real time   30.5988

 eigenvalue-minimisations  : 20352
 total energy-change (2. order) :-0.2652905E-04  (-0.2213283E-04)
 number of electron     240.0000004 magnetization      -0.0000000
 augmentation part       62.0380369 magnetization      -0.3925466

 Broyden mixing:
  rms(total) = 0.11820E-02    rms(broyden)= 0.11738E-02
  rms(prec ) = 0.13240E-02
  weight for this iteration     100.00

 eigenvalues of (default mixing * dielectric matrix)
  average eigenvalue GAMMA=   0.4316
  0.4942  0.4942  0.3066

 Free energy of the ion-electron system (eV)
  ---------------------------------------------------
  alpha Z        PSCENC =       746.11114318
  Ewald energy   TEWEN  =    -12646.26288279
  -Hartree energ DENC   =     -8357.23819920
  -exchange      EXHF   =         0.00000000
  -V(xc)+E(xc)   XCENC  =      1119.11952318
  PAW double counting   =     17985.71039514   -18106.08061258
  entropy T*S    EENTRO =        -0.00138610
  eigenvalues    EBANDS =     -3251.98978098
  atomic energy  EATOM  =     22302.35321627
  Solvation  Ediel_sol  =         0.00000000
  ---------------------------------------------------
  free energy    TOTEN  =      -208.27858389 eV

  energy without entropy =     -208.27719778  energy(sigma->0) =     -208.27789084


--------------------------------------------------------------------------------------------------------




--------------------------------------- Iteration      1(   5)  ---------------------------------------


    POTLOK:  cpu time    0.3030: real time    0.3324
    SETDIJ:  cpu time    0.8239: real time    0.8362
     EDDAV:  cpu time   26.2240: real time   26.3740
       DOS:  cpu time    0.0050: real time    0.0053
    CHARGE:  cpu time    1.1358: real time    1.1528
    MIXING:  cpu time    0.0020: real time    0.0024
    --------------------------------------------
      LOOP:  cpu time   28.4937: real time   28.7031

 eigenvalue-minimisations  : 18608
 total energy-change (2. order) :-0.3928479E-05  (-0.5709124E-06)
 number of electron     240.0000004 magnetization      -0.0000000
 augmentation part       62.0380077 magnetization      -0.3925535

 Broyden mixing:
  rms(total) = 0.17058E-02    rms(broyden)= 0.17057E-02
  rms(prec ) = 0.22805E-02
  weight for this iteration     100.00

 eigenvalues of (default mixing * dielectric matrix)
  average eigenvalue GAMMA=   0.5917
  0.8347  0.8347  0.3486  0.3486

 Free energy of the ion-electron system (eV)
  ---------------------------------------------------
  alpha Z        PSCENC =       746.11114318
  Ewald energy   TEWEN  =    -12646.26288279
  -Hartree energ DENC   =     -8357.23777319
  -exchange      EXHF   =         0.00000000
  -V(xc)+E(xc)   XCENC  =      1119.11946793
  PAW double counting   =     17985.71282315   -18106.08269412
  entropy T*S    EENTRO =        -0.00138524
  eigenvalues    EBANDS =     -3251.99050301
  atomic energy  EATOM  =     22302.35321627
  Solvation  Ediel_sol  =         0.00000000
  ---------------------------------------------------
  free energy    TOTEN  =      -208.27858782 eV

  energy without entropy =     -208.27720257  energy(sigma->0) =     -208.27789519


--------------------------------------------------------------------------------------------------------




--------------------------------------- Iteration      1(   6)  ---------------------------------------


    POTLOK:  cpu time    0.1450: real time    0.3732
    SETDIJ:  cpu time    0.8379: real time    0.8365
     EDDAV:  cpu time   21.9957: real time   21.9849
       DOS:  cpu time    0.0060: real time    0.0054
    --------------------------------------------
      LOOP:  cpu time   22.9845: real time   23.2000

 eigenvalue-minimisations  : 14168
 total energy-change (2. order) : 0.5194706E-06  (-0.1226489E-06)
 number of electron     240.0000004 magnetization      -0.0000000
 augmentation part       62.0380077 magnetization      -0.3925535

 Free energy of the ion-electron system (eV)
  ---------------------------------------------------
  alpha Z        PSCENC =       746.11114318
  Ewald energy   TEWEN  =    -12646.26288279
  -Hartree energ DENC   =     -8357.23783368
  -exchange      EXHF   =         0.00000000
  -V(xc)+E(xc)   XCENC  =      1119.11951714
  PAW double counting   =     17985.71360626   -18106.08341475
  entropy T*S    EENTRO =        -0.00138606
  eigenvalues    EBANDS =     -3251.99055287
  atomic energy  EATOM  =     22302.35321627
  Solvation  Ediel_sol  =         0.00000000
  ---------------------------------------------------
  free energy    TOTEN  =      -208.27858730 eV

  energy without entropy =     -208.27720124  energy(sigma->0) =     -208.27789427


--------------------------------------------------------------------------------------------------------




 average (electrostatic) potential at core
  the test charge radii are     1.0397  0.7215  0.7167
  (the norm of the test charge is              1.0000)
       1 -58.1983       2 -60.8294       3 -59.0486       4 -59.0021       5 -58.5627
       6 -57.8941       7 -58.2024       8 -57.6705       9 -74.2128      10 -74.2096
      11 -73.0120      12 -73.0088      13 -73.1606      14 -73.1613      15 -72.9177
      16 -72.9192      17 -79.7385      18 -80.1273      19 -78.2773      20 -78.2138
      21 -79.7487      22 -80.1128      23 -79.7360      24 -80.3927      25 -79.7359
      26 -80.3925      27 -79.0043      28 -79.0042      29 -80.7433      30 -80.7433
      31 -79.9554      32 -79.9554
 
 
 
 E-fermi :   0.5673     XC(G=0):  -8.9076     alpha+bet : -7.5291


 spin component 1

 k-point     1 :       0.1250    0.1250    0.1250
  band No.  band energies     occupation 
      1     -36.8109      1.00000
      2     -36.7334      1.00000
      3     -36.7052      1.00000
      4     -35.1864      1.00000
      5     -35.1443      1.00000
      6     -35.1140      1.00000
      7     -35.0577      1.00000
      8     -34.8368      1.00000
      9     -34.7830      1.00000
     10     -34.7773      1.00000
     11     -34.6352      1.00000
     12     -34.5995      1.00000
     13     -34.2552      1.00000
     14     -34.1199      1.00000
     15     -34.1076      1.00000
     16     -33.9925      1.00000
     17     -33.7743      1.00000
     18     -33.6273      1.00000
     19     -33.5977      1.00000
     20     -33.5419      1.00000
     21     -33.5130      1.00000
     22     -33.4083      1.00000
     23     -33.3675      1.00000
     24     -33.3592      1.00000
     25     -24.7066      1.00000
     26     -24.2568      1.00000
     27     -24.0403      1.00000
     28     -23.9331      1.00000
     29     -23.8646      1.00000
     30     -23.7825      1.00000
     31     -23.6626      1.00000
     32     -23.5128      1.00000
     33     -23.4323      1.00000
     34     -23.3459      1.00000
     35     -23.1507      1.00000
     36     -23.1345      1.00000
     37     -22.8602      1.00000
     38     -22.4151      1.00000
     39     -21.9365      1.00000
     40     -21.8765      1.00000
     41     -16.5609      1.00000
     42     -16.4699      1.00000
     43     -16.1480      1.00000
     44     -15.8705      1.00000
     45     -15.6360      1.00000
     46     -15.3274      1.00000
     47     -15.2442      1.00000
     48     -15.0832      1.00000
     49      -8.2777      1.00000
     50      -7.9067      1.00000
     51      -7.5464      1.00000
     52      -7.3937      1.00000
     53      -7.1512      1.00000
     54      -7.0034      1.00000
     55      -6.7649      1.00000
     56      -6.6641      1.00000
     57      -6.6084      1.00000
     58      -6.5248      1.00000
     59      -6.4605      1.00000
     60      -6.2713      1.00000
     61      -6.1920      1.00000
     62      -6.0665      1.00000
     63      -5.8864      1.00000
     64      -5.7702      1.00000
     65      -5.7513      1.00000
     66      -5.6431      1.00000
     67      -5.6074      1.00000
     68      -5.5527      1.00000
     69      -5.5331      1.00000
     70      -5.3975      1.00000
     71      -5.3659      1.00000
     72      -5.1511      1.00000
     73      -5.0496      1.00000
     74      -5.0381      1.00000
     75      -5.0204      1.00000
     76      -4.9056      1.00000
     77      -4.8622      1.00000
     78      -4.8231      1.00000
     79      -4.7421      1.00000
     80      -4.7076      1.00000
     81      -4.6383      1.00000
     82      -4.5989      1.00000
     83      -4.5622      1.00000
     84      -4.5330      1.00000
     85      -4.5095      1.00000
     86      -4.4718      1.00000
     87      -4.4114      1.00000
     88      -4.3276      1.00000
     89      -4.0773      1.00000
     90      -4.0599      1.00000
     91      -4.0060      1.00000
     92      -3.9334      1.00000
     93      -3.8567      1.00000
     94      -3.7437      1.00000
     95      -3.5740      1.00000
     96      -3.2537      1.00000
     97      -3.2364      1.00000
     98      -3.1232      1.00000
     99      -3.0310      1.00000
    100      -2.9711      1.00000
    101      -2.9488      1.00000
    102      -2.3543      1.00000
    103      -2.3429      1.00000
    104      -2.3312      1.00000
    105      -2.2031      1.00000
    106      -2.0080      1.00000
    107      -1.6864      1.00000
    108      -1.4449      1.00000
    109      -1.3884      1.00000
    110      -1.3017      1.00000
    111      -1.0350      1.00000
    112      -0.9395      1.00000
    113      -0.9161      1.00000
    114      -0.8118      1.00000
    115      -0.6544      1.00000
    116      -0.4856      1.00000
    117      -0.3155      1.00000
    118      -0.2087      1.00000
    119      -0.1527      1.00000
    120       0.1596      1.00000
    121       1.1086      0.00000
    122       1.2115      0.00000
    123       1.2300      0.00000
    124       2.1700      0.00000
    125       2.3021      0.00000
    126       2.3119      0.00000
    127       2.5094      0.00000
    128       2.7088      0.00000
    129       2.7679      0.00000
    130       2.7872      0.00000
    131       2.8164      0.00000
    132       2.8396      0.00000
    133       3.0179      0.00000
    134       3.2053      0.00000
    135       3.3130      0.00000
    136       3.3726      0.00000
    137       3.4113      0.00000
    138       3.4768      0.00000
    139       3.5672      0.00000
    140       3.7776      0.00000
    141       3.8027      0.00000
    142       3.9010      0.00000
    143       3.9299      0.00000
    144       4.0864      0.00000
    145       4.1464      0.00000
    146       4.3915      0.00000
    147       4.4385      0.00000
    148       4.4667      0.00000
    149       4.5090      0.00000
    150       4.6838      0.00000
    151       4.7923      0.00000
    152       4.8268      0.00000
    153       5.0813      0.00000
    154       5.1972      0.00000
    155       5.3996      0.00000
    156       5.7394      0.00000
    157       6.0301      0.00000
    158       6.1643      0.00000
    159       6.4709      0.00000
    160       6.9160      0.00000

 k-point     2 :       0.3750    0.1250    0.1250
  band No.  band energies     occupation 
      1     -36.8109      1.00000
      2     -36.7329      1.00000
      3     -36.7052      1.00000
      4     -35.1864      1.00000
      5     -35.1443      1.00000
      6     -35.1140      1.00000
      7     -35.0577      1.00000
      8     -34.8358      1.00000
      9     -34.7767      1.00000
     10     -34.7645      1.00000
     11     -34.6546      1.00000
     12     -34.5995      1.00000
     13     -34.2552      1.00000
     14     -34.1212      1.00000
     15     -34.1076      1.00000
     16     -33.9937      1.00000
     17     -33.7743      1.00000
     18     -33.6273      1.00000
     19     -33.5986      1.00000
     20     -33.5419      1.00000
     21     -33.5130      1.00000
     22     -33.4083      1.00000
     23     -33.3675      1.00000
     24     -33.3592      1.00000
     25     -24.7040      1.00000
     26     -24.2535      1.00000
     27     -24.0395      1.00000
     28     -23.8844      1.00000
     29     -23.8338      1.00000
     30     -23.7817      1.00000
     31     -23.6067      1.00000
     32     -23.5224      1.00000
     33     -23.4549      1.00000
     34     -23.3459      1.00000
     35     -23.2757      1.00000
     36     -23.1346      1.00000
     37     -22.8557      1.00000
     38     -22.4151      1.00000
     39     -21.9318      1.00000
     40     -21.8713      1.00000
     41     -16.5800      1.00000
     42     -16.4891      1.00000
     43     -16.1461      1.00000
     44     -15.8661      1.00000
     45     -15.6351      1.00000
     46     -15.3275      1.00000
     47     -15.2442      1.00000
     48     -15.0831      1.00000
     49      -8.2753      1.00000
     50      -7.9063      1.00000
     51      -7.3931      1.00000
     52      -7.2487      1.00000
     53      -7.0623      1.00000
     54      -6.7652      1.00000
     55      -6.7433      1.00000
     56      -6.6263      1.00000
     57      -6.6077      1.00000
     58      -6.5271      1.00000
     59      -6.4619      1.00000
     60      -6.4301      1.00000
     61      -6.2324      1.00000
     62      -6.1323      1.00000
     63      -6.0666      1.00000
     64      -5.8861      1.00000
     65      -5.6412      1.00000
     66      -5.6112      1.00000
     67      -5.5602      1.00000
     68      -5.5199      1.00000
     69      -5.4751      1.00000
     70      -5.4496      1.00000
     71      -5.2254      1.00000
     72      -5.2093      1.00000
     73      -5.0940      1.00000
     74      -5.0501      1.00000
     75      -4.9867      1.00000
     76      -4.9626      1.00000
     77      -4.9340      1.00000
     78      -4.9174      1.00000
     79      -4.8687      1.00000
     80      -4.6560      1.00000
     81      -4.6385      1.00000
     82      -4.5835      1.00000
     83      -4.5243      1.00000
     84      -4.5175      1.00000
     85      -4.5061      1.00000
     86      -4.4498      1.00000
     87      -4.3116      1.00000
     88      -4.1969      1.00000
     89      -4.0505      1.00000
     90      -4.0446      1.00000
     91      -4.0067      1.00000
     92      -3.8855      1.00000
     93      -3.8649      1.00000
     94      -3.7659      1.00000
     95      -3.5942      1.00000
     96      -3.4967      1.00000
     97      -3.3896      1.00000
     98      -3.3462      1.00000
     99      -3.2071      1.00000
    100      -3.1028      1.00000
    101      -2.9697      1.00000
    102      -2.3787      1.00000
    103      -2.3348      1.00000
    104      -2.2591      1.00000
    105      -2.2080      1.00000
    106      -2.0224      1.00000
    107      -1.7040      1.00000
    108      -1.4773      1.00000
    109      -1.3663      1.00000
    110      -1.3138      1.00000
    111      -1.0743      1.00000
    112      -0.9817      1.00000
    113      -0.8693      1.00000
    114      -0.8159      1.00000
    115      -0.6016      1.00000
    116      -0.5231      1.00000
    117      -0.3188      1.00000
    118      -0.2146      1.00000
    119      -0.1552      1.00000
    120       0.1593      1.00000
    121       1.1086      0.00000
    122       1.2617      0.00000
    123       1.2711      0.00000
    124       2.1705      0.00000
    125       2.3386      0.00000
    126       2.5263      0.00000
    127       2.6985      0.00000
    128       2.7898      0.00000
    129       2.8065      0.00000
    130       2.8390      0.00000
    131       2.8858      0.00000
    132       2.9758      0.00000
    133       3.0137      0.00000
    134       3.1909      0.00000
    135       3.2985      0.00000
    136       3.3643      0.00000
    137       3.3990      0.00000
    138       3.4442      0.00000
    139       3.6060      0.00000
    140       3.7307      0.00000
    141       3.7731      0.00000
    142       3.8031      0.00000
    143       4.0757      0.00000
    144       4.3178      0.00000
    145       4.3577      0.00000
    146       4.4658      0.00000
    147       4.4867      0.00000
    148       4.5092      0.00000
    149       4.6365      0.00000
    150       4.6884      0.00000
    151       4.7778      0.00000
    152       4.8951      0.00000
    153       5.0815      0.00000
    154       5.1330      0.00000
    155       5.4036      0.00000
    156       5.6345      0.00000
    157       5.8728      0.00000
    158       6.1067      0.00000
    159       6.3274      0.00000
    160       6.6504      0.00000

 k-point     3 :      -0.3750    0.1250    0.1250
  band No.  band energies     occupation 
      1     -36.8109      1.00000
      2     -36.7329      1.00000
      3     -36.7052      1.00000
      4     -35.1864      1.00000
      5     -35.1443      1.00000
      6     -35.1140      1.00000
      7     -35.0577      1.00000
      8     -34.8358      1.00000
      9     -34.7767      1.00000
     10     -34.7645      1.00000
     11     -34.6546      1.00000
     12     -34.5995      1.00000
     13     -34.2552      1.00000
     14     -34.1212      1.00000
     15     -34.1076      1.00000
     16     -33.9937      1.00000
     17     -33.7743      1.00000
     18     -33.6273      1.00000
     19     -33.5986      1.00000
     20     -33.5419      1.00000
     21     -33.5130      1.00000
     22     -33.4083      1.00000
     23     -33.3675      1.00000
     24     -33.3592      1.00000
     25     -24.7040      1.00000
     26     -24.2535      1.00000
     27     -24.0395      1.00000
     28     -23.8844      1.00000
     29     -23.8338      1.00000
     30     -23.7817      1.00000
     31     -23.6067      1.00000
     32     -23.5224      1.00000
     33     -23.4549      1.00000
     34     -23.3459      1.00000
     35     -23.2757      1.00000
     36     -23.1346      1.00000
     37     -22.8557      1.00000
     38     -22.4151      1.00000
     39     -21.9318      1.00000
     40     -21.8713      1.00000
     41     -16.5800      1.00000
     42     -16.4891      1.00000
     43     -16.1461      1.00000
     44     -15.8661      1.00000
     45     -15.6351      1.00000
     46     -15.3275      1.00000
     47     -15.2442      1.00000
     48     -15.0831      1.00000
     49      -8.2753      1.00000
     50      -7.9063      1.00000
     51      -7.3931      1.00000
     52      -7.2487      1.00000
     53      -7.0623      1.00000
     54      -6.7652      1.00000
     55      -6.7433      1.00000
     56      -6.6263      1.00000
     57      -6.6077      1.00000
     58      -6.5271      1.00000
     59      -6.4619      1.00000
     60      -6.4301      1.00000
     61      -6.2324      1.00000
     62      -6.1323      1.00000
     63      -6.0666      1.00000
     64      -5.8861      1.00000
     65      -5.6412      1.00000
     66      -5.6112      1.00000
     67      -5.5602      1.00000
     68      -5.5199      1.00000
     69      -5.4750      1.00000
     70      -5.4496      1.00000
     71      -5.2254      1.00000
     72      -5.2093      1.00000
     73      -5.0940      1.00000
     74      -5.0501      1.00000
     75      -4.9867      1.00000
     76      -4.9626      1.00000
     77      -4.9340      1.00000
     78      -4.9174      1.00000
     79      -4.8687      1.00000
     80      -4.6560      1.00000
     81      -4.6385      1.00000
     82      -4.5835      1.00000
     83      -4.5242      1.00000
     84      -4.5175      1.00000
     85      -4.5061      1.00000
     86      -4.4498      1.00000
     87      -4.3116      1.00000
     88      -4.1969      1.00000
     89      -4.0505      1.00000
     90      -4.0445      1.00000
     91      -4.0067      1.00000
     92      -3.8855      1.00000
     93      -3.8650      1.00000
     94      -3.7658      1.00000
     95      -3.5942      1.00000
     96      -3.4967      1.00000
     97      -3.3893      1.00000
     98      -3.3464      1.00000
     99      -3.2071      1.00000
    100      -3.1027      1.00000
    101      -2.9697      1.00000
    102      -2.3787      1.00000
    103      -2.3348      1.00000
    104      -2.2591      1.00000
    105      -2.2080      1.00000
    106      -2.0224      1.00000
    107      -1.7041      1.00000
    108      -1.4773      1.00000
    109      -1.3663      1.00000
    110      -1.3138      1.00000
    111      -1.0743      1.00000
    112      -0.9817      1.00000
    113      -0.8693      1.00000
    114      -0.8159      1.00000
    115      -0.6016      1.00000
    116      -0.5231      1.00000
    117      -0.3188      1.00000
    118      -0.2146      1.00000
    119      -0.1552      1.00000
    120       0.1593      1.00000
    121       1.1086      0.00000
    122       1.2617      0.00000
    123       1.2711      0.00000
    124       2.1705      0.00000
    125       2.3386      0.00000
    126       2.5263      0.00000
    127       2.6987      0.00000
    128       2.7898      0.00000
    129       2.8065      0.00000
    130       2.8390      0.00000
    131       2.8857      0.00000
    132       2.9758      0.00000
    133       3.0137      0.00000
    134       3.1909      0.00000
    135       3.2986      0.00000
    136       3.3643      0.00000
    137       3.3989      0.00000
    138       3.4442      0.00000
    139       3.6059      0.00000
    140       3.7307      0.00000
    141       3.7732      0.00000
    142       3.8030      0.00000
    143       4.0757      0.00000
    144       4.3178      0.00000
    145       4.3577      0.00000
    146       4.4658      0.00000
    147       4.4866      0.00000
    148       4.5092      0.00000
    149       4.6365      0.00000
    150       4.6885      0.00000
    151       4.7779      0.00000
    152       4.8950      0.00000
    153       5.0815      0.00000
    154       5.1331      0.00000
    155       5.4036      0.00000
    156       5.6345      0.00000
    157       5.8728      0.00000
    158       6.1067      0.00000
    159       6.3274      0.00000
    160       6.6504      0.00000

 k-point     4 :      -0.1250    0.1250    0.1250
  band No.  band energies     occupation 
      1     -36.8109      1.00000
      2     -36.7334      1.00000
      3     -36.7052      1.00000
      4     -35.1864      1.00000
      5     -35.1443      1.00000
      6     -35.1140      1.00000
      7     -35.0577      1.00000
      8     -34.8368      1.00000
      9     -34.7830      1.00000
     10     -34.7773      1.00000
     11     -34.6352      1.00000
     12     -34.5995      1.00000
     13     -34.2552      1.00000
     14     -34.1199      1.00000
     15     -34.1076      1.00000
     16     -33.9925      1.00000
     17     -33.7743      1.00000
     18     -33.6273      1.00000
     19     -33.5977      1.00000
     20     -33.5419      1.00000
     21     -33.5130      1.00000
     22     -33.4083      1.00000
     23     -33.3675      1.00000
     24     -33.3592      1.00000
     25     -24.7066      1.00000
     26     -24.2568      1.00000
     27     -24.0403      1.00000
     28     -23.9331      1.00000
     29     -23.8646      1.00000
     30     -23.7825      1.00000
     31     -23.6626      1.00000
     32     -23.5128      1.00000
     33     -23.4323      1.00000
     34     -23.3459      1.00000
     35     -23.1507      1.00000
     36     -23.1345      1.00000
     37     -22.8602      1.00000
     38     -22.4151      1.00000
     39     -21.9365      1.00000
     40     -21.8765      1.00000
     41     -16.5609      1.00000
     42     -16.4699      1.00000
     43     -16.1480      1.00000
     44     -15.8705      1.00000
     45     -15.6360      1.00000
     46     -15.3274      1.00000
     47     -15.2442      1.00000
     48     -15.0832      1.00000
     49      -8.2777      1.00000
     50      -7.9067      1.00000
     51      -7.5464      1.00000
     52      -7.3937      1.00000
     53      -7.1512      1.00000
     54      -7.0034      1.00000
     55      -6.7649      1.00000
     56      -6.6641      1.00000
     57      -6.6084      1.00000
     58      -6.5248      1.00000
     59      -6.4605      1.00000
     60      -6.2713      1.00000
     61      -6.1919      1.00000
     62      -6.0665      1.00000
     63      -5.8864      1.00000
     64      -5.7702      1.00000
     65      -5.7513      1.00000
     66      -5.6431      1.00000
     67      -5.6074      1.00000
     68      -5.5527      1.00000
     69      -5.5330      1.00000
     70      -5.3976      1.00000
     71      -5.3659      1.00000
     72      -5.1511      1.00000
     73      -5.0496      1.00000
     74      -5.0381      1.00000
     75      -5.0204      1.00000
     76      -4.9056      1.00000
     77      -4.8622      1.00000
     78      -4.8231      1.00000
     79      -4.7421      1.00000
     80      -4.7076      1.00000
     81      -4.6383      1.00000
     82      -4.5989      1.00000
     83      -4.5622      1.00000
     84      -4.5330      1.00000
     85      -4.5095      1.00000
     86      -4.4718      1.00000
     87      -4.4114      1.00000
     88      -4.3276      1.00000
     89      -4.0773      1.00000
     90      -4.0599      1.00000
     91      -4.0060      1.00000
     92      -3.9334      1.00000
     93      -3.8567      1.00000
     94      -3.7437      1.00000
     95      -3.5740      1.00000
     96      -3.2537      1.00000
     97      -3.2364      1.00000
     98      -3.1233      1.00000
     99      -3.0309      1.00000
    100      -2.9712      1.00000
    101      -2.9488      1.00000
    102      -2.3544      1.00000
    103      -2.3429      1.00000
    104      -2.3312      1.00000
    105      -2.2031      1.00000
    106      -2.0080      1.00000
    107      -1.6864      1.00000
    108      -1.4449      1.00000
    109      -1.3884      1.00000
    110      -1.3017      1.00000
    111      -1.0350      1.00000
    112      -0.9394      1.00000
    113      -0.9161      1.00000
    114      -0.8118      1.00000
    115      -0.6544      1.00000
    116      -0.4856      1.00000
    117      -0.3155      1.00000
    118      -0.2087      1.00000
    119      -0.1527      1.00000
    120       0.1596      1.00000
    121       1.1086      0.00000
    122       1.2115      0.00000
    123       1.2300      0.00000
    124       2.1700      0.00000
    125       2.3021      0.00000
    126       2.3119      0.00000
    127       2.5095      0.00000
    128       2.7087      0.00000
    129       2.7679      0.00000
    130       2.7872      0.00000
    131       2.8164      0.00000
    132       2.8396      0.00000
    133       3.0179      0.00000
    134       3.2052      0.00000
    135       3.3131      0.00000
    136       3.3726      0.00000
    137       3.4113      0.00000
    138       3.4767      0.00000
    139       3.5672      0.00000
    140       3.7776      0.00000
    141       3.8027      0.00000
    142       3.9011      0.00000
    143       3.9300      0.00000
    144       4.0864      0.00000
    145       4.1465      0.00000
    146       4.3915      0.00000
    147       4.4386      0.00000
    148       4.4667      0.00000
    149       4.5090      0.00000
    150       4.6838      0.00000
    151       4.7924      0.00000
    152       4.8268      0.00000
    153       5.0813      0.00000
    154       5.1972      0.00000
    155       5.3995      0.00000
    156       5.7393      0.00000
    157       6.0301      0.00000
    158       6.1643      0.00000
    159       6.4709      0.00000
    160       6.9160      0.00000

 k-point     5 :       0.1250    0.3750    0.1250
  band No.  band energies     occupation 
      1     -36.8109      1.00000
      2     -36.7334      1.00000
      3     -36.7042      1.00000
      4     -35.1864      1.00000
      5     -35.1431      1.00000
      6     -35.1158      1.00000
      7     -35.0577      1.00000
      8     -34.8368      1.00000
      9     -34.7830      1.00000
     10     -34.7773      1.00000
     11     -34.6352      1.00000
     12     -34.5934      1.00000
     13     -34.2621      1.00000
     14     -34.1199      1.00000
     15     -34.1076      1.00000
     16     -33.9925      1.00000
     17     -33.7743      1.00000
     18     -33.6273      1.00000
     19     -33.5977      1.00000
     20     -33.5389      1.00000
     21     -33.5130      1.00000
     22     -33.4107      1.00000
     23     -33.3707      1.00000
     24     -33.3592      1.00000
     25     -24.6999      1.00000
     26     -24.1566      1.00000
     27     -24.0384      1.00000
     28     -23.9701      1.00000
     29     -23.8961      1.00000
     30     -23.8149      1.00000
     31     -23.6390      1.00000
     32     -23.4324      1.00000
     33     -23.4310      1.00000
     34     -23.3450      1.00000
     35     -23.2596      1.00000
     36     -23.1490      1.00000
     37     -22.7347      1.00000
     38     -22.5492      1.00000
     39     -21.9349      1.00000
     40     -21.8761      1.00000
     41     -16.5596      1.00000
     42     -16.4641      1.00000
     43     -16.1185      1.00000
     44     -15.8425      1.00000
     45     -15.5819      1.00000
     46     -15.3876      1.00000
     47     -15.3212      1.00000
     48     -15.0824      1.00000
     49      -8.2735      1.00000
     50      -7.5759      1.00000
     51      -7.5350      1.00000
     52      -7.3814      1.00000
     53      -7.1107      1.00000
     54      -6.8762      1.00000
     55      -6.7251      1.00000
     56      -6.6639      1.00000
     57      -6.6313      1.00000
     58      -6.6047      1.00000
     59      -6.2204      1.00000
     60      -6.1946      1.00000
     61      -6.1851      1.00000
     62      -6.0835      1.00000
     63      -6.0733      1.00000
     64      -5.9679      1.00000
     65      -5.7717      1.00000
     66      -5.7249      1.00000
     67      -5.5542      1.00000
     68      -5.5216      1.00000
     69      -5.5049      1.00000
     70      -5.4556      1.00000
     71      -5.3752      1.00000
     72      -5.3669      1.00000
     73      -5.2630      1.00000
     74      -5.0748      1.00000
     75      -4.9984      1.00000
     76      -4.9455      1.00000
     77      -4.8946      1.00000
     78      -4.8654      1.00000
     79      -4.8185      1.00000
     80      -4.7114      1.00000
     81      -4.6879      1.00000
     82      -4.6096      1.00000
     83      -4.5864      1.00000
     84      -4.4649      1.00000
     85      -4.4411      1.00000
     86      -4.4257      1.00000
     87      -4.3286      1.00000
     88      -4.3092      1.00000
     89      -4.1173      1.00000
     90      -4.1131      1.00000
     91      -4.0703      1.00000
     92      -4.0002      1.00000
     93      -3.7643      1.00000
     94      -3.7493      1.00000
     95      -3.2800      1.00000
     96      -3.2391      1.00000
     97      -3.1296      1.00000
     98      -3.0460      1.00000
     99      -3.0129      1.00000
    100      -2.9875      1.00000
    101      -2.9607      1.00000
    102      -2.3675      1.00000
    103      -2.3469      1.00000
    104      -2.3238      1.00000
    105      -2.1246      1.00000
    106      -2.0146      1.00000
    107      -1.9622      1.00000
    108      -1.9217      1.00000
    109      -1.3886      1.00000
    110      -1.1657      1.00000
    111      -0.9476      1.00000
    112      -0.9274      1.00000
    113      -0.9126      1.00000
    114      -0.7477      1.00000
    115      -0.6515      1.00000
    116      -0.5296      1.00000
    117      -0.4935      1.00000
    118      -0.2973      1.00000
    119      -0.1719      1.00000
    120       0.0117      1.00000
    121       1.1994      0.00000
    122       1.2115      0.00000
    123       1.2831      0.00000
    124       2.1078      0.00000
    125       2.4995      0.00000
    126       2.5110      0.00000
    127       2.6323      0.00000
    128       2.7194      0.00000
    129       2.7690      0.00000
    130       2.8172      0.00000
    131       2.8354      0.00000
    132       2.9818      0.00000
    133       3.1400      0.00000
    134       3.2062      0.00000
    135       3.3723      0.00000
    136       3.3753      0.00000
    137       3.4338      0.00000
    138       3.5752      0.00000
    139       3.6904      0.00000
    140       3.7615      0.00000
    141       3.7813      0.00000
    142       3.7911      0.00000
    143       3.9417      0.00000
    144       4.0534      0.00000
    145       4.3635      0.00000
    146       4.3986      0.00000
    147       4.4109      0.00000
    148       4.4732      0.00000
    149       4.5975      0.00000
    150       4.7082      0.00000
    151       4.8303      0.00000
    152       4.9012      0.00000
    153       4.9554      0.00000
    154       5.2273      0.00000
    155       5.4419      0.00000
    156       5.7284      0.00000
    157       5.8108      0.00000
    158       6.1496      0.00000
    159       6.4180      0.00000
    160       7.0100      0.00000

 k-point     6 :       0.3750    0.3750    0.1250
  band No.  band energies     occupation 
      1     -36.8109      1.00000
      2     -36.7329      1.00000
      3     -36.7042      1.00000
      4     -35.1864      1.00000
      5     -35.1431      1.00000
      6     -35.1158      1.00000
      7     -35.0577      1.00000
      8     -34.8358      1.00000
      9     -34.7767      1.00000
     10     -34.7646      1.00000
     11     -34.6546      1.00000
     12     -34.5934      1.00000
     13     -34.2621      1.00000
     14     -34.1212      1.00000
     15     -34.1076      1.00000
     16     -33.9937      1.00000
     17     -33.7743      1.00000
     18     -33.6273      1.00000
     19     -33.5986      1.00000
     20     -33.5389      1.00000
     21     -33.5130      1.00000
     22     -33.4107      1.00000
     23     -33.3707      1.00000
     24     -33.3592      1.00000
     25     -24.6974      1.00000
     26     -24.1496      1.00000
     27     -24.0379      1.00000
     28     -23.9591      1.00000
     29     -23.8315      1.00000
     30     -23.8143      1.00000
     31     -23.5429      1.00000
     32     -23.5221      1.00000
     33     -23.4163      1.00000
     34     -23.3447      1.00000
     35     -23.2834      1.00000
     36     -23.2455      1.00000
     37     -22.7322      1.00000
     38     -22.5486      1.00000
     39     -21.9303      1.00000
     40     -21.8710      1.00000
     41     -16.5785      1.00000
     42     -16.4830      1.00000
     43     -16.1176      1.00000
     44     -15.8374      1.00000
     45     -15.5814      1.00000
     46     -15.3872      1.00000
     47     -15.3213      1.00000
     48     -15.0824      1.00000
     49      -8.2712      1.00000
     50      -7.5658      1.00000
     51      -7.3828      1.00000
     52      -7.2468      1.00000
     53      -6.8780      1.00000
     54      -6.7862      1.00000
     55      -6.6998      1.00000
     56      -6.6333      1.00000
     57      -6.6201      1.00000
     58      -6.6049      1.00000
     59      -6.4376      1.00000
     60      -6.2079      1.00000
     61      -6.1708      1.00000
     62      -6.1560      1.00000
     63      -6.0833      1.00000
     64      -6.0481      1.00000
     65      -5.9695      1.00000
     66      -5.6409      1.00000
     67      -5.5353      1.00000
     68      -5.4873      1.00000
     69      -5.4640      1.00000
[...]
  0.000   0.000   0.000   0.000   0.000   0.000   0.000   0.000  -0.000  -0.011  -0.000  -0.000   0.000   0.000   0.003  -0.000
 -0.000   0.000  -0.000  -0.000   0.000  -0.000   0.000  -0.000   0.003  -0.000  -0.017  -0.000  -0.000   0.001  -0.000   0.002
  0.000   0.000   0.000   0.000   0.000  -0.000   0.003   0.000   0.000  -0.000  -0.000   0.007   0.000  -0.000  -0.000   0.000
 -0.000  -0.000  -0.000  -0.000  -0.000  -0.000   0.000  -0.570  -0.000   0.000  -0.000   0.000  -0.435  -0.000   0.000  -0.000
  0.000  -0.000   0.000   0.000  -0.000   0.000  -0.000  -0.000   0.003   0.000   0.001  -0.000  -0.000   0.016   0.000  -0.007
  0.000  -0.000   0.000   0.000  -0.000   0.000   0.000   0.000   0.000   0.003  -0.000  -0.000   0.000   0.000   0.006   0.000
 -0.000  -0.000  -0.000  -0.000   0.000  -0.000  -0.000  -0.000   0.000  -0.000   0.002   0.000  -0.000  -0.007   0.000   0.026
  0.000   0.000   0.000   0.000   0.000   0.000   0.000  -0.000  -0.004   0.000   0.008  -0.000  -0.000   0.015  -0.000  -0.024
  0.000   0.000   0.000   0.000   0.000   0.000   0.000   0.000  -0.012  -0.000   0.023  -0.000   0.000   0.020   0.000  -0.034


------------------------ aborting loop because EDIFF is reached ----------------------------------------


 


 total charge     
 
# of ion       s       p       d       tot
------------------------------------------
    1        0.245   6.350   1.845   8.439
    2        0.327   6.519   1.744   8.590
    3        0.317   6.473   1.842   8.632
    4        0.307   6.466   1.869   8.642
    5        0.299   6.461   1.736   8.495
    6        0.295   6.440   1.708   8.444
    7        0.299   6.448   1.705   8.453
    8        0.300   6.434   1.660   8.394
    9        1.573   3.439   0.000   5.012
   10        1.577   3.425   0.000   5.001
   11        1.569   3.366   0.000   4.936
   12        1.569   3.367   0.000   4.936
   13        1.567   3.412   0.000   4.980
   14        1.567   3.412   0.000   4.980
   15        1.569   3.403   0.000   4.972
   16        1.569   3.402   0.000   4.971
   17        1.730   4.394   0.000   6.125
   18        1.734   4.375   0.000   6.108
   19        1.728   4.371   0.000   6.099
   20        1.729   4.371   0.000   6.100
   21        1.730   4.393   0.000   6.123
   22        1.733   4.374   0.000   6.108
   23        1.729   4.395   0.000   6.124
   24        1.730   4.386   0.000   6.116
   25        1.729   4.395   0.000   6.124
   26        1.730   4.386   0.000   6.116
   27        1.730   4.387   0.000   6.117
   28        1.730   4.387   0.000   6.117
   29        1.733   4.401   0.000   6.134
   30        1.733   4.401   0.000   6.134
   31        1.731   4.399   0.000   6.130
   32        1.731   4.399   0.000   6.130
--------------------------------------------------
tot         42.639 149.032  14.111 205.781
 


 magnetization (x)
 
# of ion       s       p       d       tot
------------------------------------------
    1       -0.004  -0.006  -0.901  -0.911
    2       -0.000  -0.000  -0.043  -0.044
    3        0.000   0.000  -0.013  -0.012
    4       -0.000  -0.000  -0.007  -0.007
    5       -0.000   0.001  -0.017  -0.016
    6       -0.002  -0.004  -0.052  -0.058
    7       -0.000   0.000  -0.015  -0.016
    8       -0.002  -0.004  -0.053  -0.059
    9        0.000   0.003   0.000   0.003
   10        0.000   0.004   0.000   0.004
   11        0.003   0.239   0.000   0.243
   12        0.003   0.237   0.000   0.240
   13        0.002   0.098   0.000   0.099
   14        0.002   0.096   0.000   0.097
   15        0.002   0.127   0.000   0.129
   16        0.002   0.130   0.000   0.132
   17        0.000   0.010   0.000   0.010
   18       -0.000   0.002   0.000   0.002
   19       -0.000   0.001   0.000   0.001
   20       -0.000   0.000   0.000   0.000
   21        0.000   0.010   0.000   0.010
   22       -0.000   0.002   0.000   0.002
   23        0.000  -0.004   0.000  -0.003
   24        0.000  -0.000   0.000  -0.000
   25        0.000  -0.004   0.000  -0.003
   26        0.000  -0.000   0.000  -0.000
   27        0.000   0.010   0.000   0.011
   28        0.000   0.010   0.000   0.011
   29        0.000   0.002   0.000   0.003
   30        0.000   0.002   0.000   0.003
   31       -0.000  -0.000   0.000  -0.000
   32       -0.000  -0.000   0.000  -0.000
--------------------------------------------------
tot          0.008   0.960  -1.102  -0.134
 
    CHARGE:  cpu time    1.1868: real time    1.1862
    FORLOC:  cpu time    0.0100: real time    0.0095
    FORNL :  cpu time    6.8050: real time    6.7997
    STRESS:  cpu time   20.5189: real time   20.5060
    FORCOR:  cpu time    0.1300: real time    0.1298
    FORHAR:  cpu time    0.1170: real time    0.1171
    MIXING:  cpu time    0.0020: real time    0.0018
    OFIELD:  cpu time    0.0000: real time    0.0000

  FORCE on cell =-STRESS in cart. coord.  units (eV):
  Direction    XX          YY          ZZ          XY          YZ          ZX
  --------------------------------------------------------------------------------------
  Alpha Z   746.11114   746.11114   746.11114
  Ewald   -4321.19352 -4234.40502 -4090.72003     0.01579    -0.00767     0.02669
  Hartree  2692.93077  2789.53681  2874.77446     0.00848    -0.00412     0.02202
  E(xc)   -1231.63796 -1231.65111 -1231.88472     0.00003    -0.00000     0.00006
  Local   -2020.92245 -2207.43662 -2465.14188    -0.02161     0.01189    -0.04493
  n-local  -972.13658  -970.69419  -964.95873     0.00054     0.00005    -0.00114
  augment   749.29339   753.32444   763.70930    -0.00143    -0.00004    -0.00171
  Kinetic  4357.57847  4355.20097  4368.07560    -0.00196    -0.00006    -0.00086
  Fock        0.00000     0.00000     0.00000     0.00000     0.00000     0.00000
  -------------------------------------------------------------------------------------
  Total       0.02327    -0.01358    -0.03486    -0.00016     0.00004     0.00014
  in kB       0.07945    -0.04636    -0.11901    -0.00054     0.00015     0.00048
  external pressure =       -0.03 kB  Pullay stress =        0.00 kB


 VOLUME and BASIS-vectors are now :
 -----------------------------------------------------------------------------
  energy-cutoff  :      700.00
  volume of cell :      469.32
      direct lattice vectors                 reciprocal lattice vectors
     7.840197385 -0.000000354  0.000024768     0.127547809 -0.000000285 -0.000000228
     0.000017462  7.815505902 -0.000005666     0.000000006  0.127950770  0.000000094
     0.000013718 -0.000005651  7.659254238    -0.000000412  0.000000095  0.130561014

  length of vectors
     7.840197385  7.815505902  7.659254238     0.127547809  0.127950770  0.130561014


 FORCES acting on ions
    electron-ion (+dipol)            ewald-force                    non-local-force                 convergence-correction
 -----------------------------------------------------------------------------------------------
   0.894E+01 0.569E-02 -.220E-02   -.886E+01 -.506E-02 0.226E-02   -.724E-01 0.469E-04 0.353E-04   -.900E-04 -.746E-03 -.176E-04
   0.502E+01 -.529E-02 0.106E-02   -.503E+01 0.543E-02 -.994E-03   0.136E-01 0.178E-03 0.109E-05   -.240E-03 -.450E-03 0.138E-04
   0.297E+02 -.616E-02 0.209E-01   -.294E+02 0.555E-02 -.208E-01   -.274E+00 -.233E-04 -.161E-03   -.208E-03 0.722E-03 -.598E-05
   0.253E+02 0.116E-01 -.116E-01   -.245E+02 -.117E-01 0.114E-01   -.801E+00 -.119E-03 0.243E-04   -.248E-02 0.395E-03 0.107E-04
   -.109E+02 0.536E-01 -.373E+00   0.108E+02 -.520E-01 0.373E+00   0.898E-01 -.104E-02 -.455E-02   0.792E-04 -.532E-03 0.532E-04
   -.662E+01 -.990E-01 -.295E+00   0.660E+01 0.880E-01 0.286E+00   0.223E-01 0.992E-03 0.633E-02   0.276E-03 0.806E-02 -.552E-04
   -.305E+02 -.436E-01 0.472E+00   0.311E+02 0.423E-01 -.470E+00   -.622E+00 0.991E-03 0.199E-02   0.242E-03 0.548E-03 0.485E-03
   -.277E+02 0.504E-01 0.313E+00   0.283E+02 -.415E-01 -.305E+00   -.589E+00 -.996E-03 -.473E-02   0.174E-02 -.733E-02 -.381E-03
   0.108E+03 -.616E-02 0.854E-01   -.118E+03 0.566E-02 -.926E-01   0.910E+01 -.133E-04 0.701E-02   0.205E-03 0.561E-03 0.534E-04
   0.141E+03 0.123E-01 0.441E-01   -.153E+03 -.128E-01 -.476E-01   0.115E+02 0.131E-02 0.310E-02   -.257E-02 -.546E-03 -.321E-04
   -.610E+01 -.240E+02 -.357E-01   0.604E+01 0.254E+02 0.360E-01   0.588E-01 -.140E+01 0.279E-03   0.360E-03 -.740E-03 -.722E-04
   -.609E+01 0.240E+02 -.406E-01   0.603E+01 -.254E+02 0.410E-01   0.596E-01 0.141E+01 0.243E-03   0.380E-03 -.242E-04 -.886E-04
   -.465E+01 -.439E-01 -.428E+02   0.469E+01 0.434E-01 0.449E+02   -.274E-01 -.727E-03 -.208E+01   0.245E-03 0.171E-02 -.220E-03
   -.466E+01 -.477E-01 0.441E+02   0.470E+01 0.477E-01 -.463E+02   -.277E-01 -.138E-02 0.221E+01   0.250E-03 0.170E-02 0.409E-03
   -.921E+01 0.327E-01 -.369E+02   0.896E+01 -.316E-01 0.388E+02   0.247E+00 -.762E-04 -.190E+01   0.192E-03 -.155E-02 0.108E-02
   -.922E+01 0.384E-01 0.356E+02   0.897E+01 -.381E-01 -.374E+02   0.246E+00 0.641E-03 0.177E+01   0.177E-03 -.152E-02 -.137E-02
   -.498E+02 0.361E-02 -.837E-01   0.548E+02 -.113E-02 0.951E-01   -.497E+01 -.180E-02 -.110E-01   0.881E-03 -.746E-03 -.136E-04
   -.129E+03 -.340E-01 -.687E-01   0.141E+03 0.365E-01 0.768E-01   -.119E+02 -.321E-02 -.787E-02   0.533E-03 0.629E-03 0.444E-05
   -.488E+02 -.116E-01 0.108E+00   0.485E+02 0.115E-01 -.120E+00   0.259E+00 -.686E-03 0.116E-01   -.471E-03 0.735E-03 0.550E-04
   -.853E+02 0.333E-01 0.477E-01   0.882E+02 -.369E-01 -.530E-01   -.296E+01 0.441E-02 0.472E-02   0.136E-02 -.437E-03 -.323E-04
   0.517E+02 0.158E-01 -.896E-01   -.568E+02 -.166E-01 0.102E+00   0.512E+01 0.160E-02 -.116E-01   -.680E-03 -.727E-03 -.150E-04
   0.131E+03 -.156E-01 -.585E-01   -.143E+03 0.159E-01 0.653E-01   0.119E+02 -.935E-03 -.647E-02   -.544E-03 0.625E-03 0.784E-05
   -.589E+01 0.129E+02 0.185E-02   0.888E+01 -.149E+02 -.153E-02   -.299E+01 0.202E+01 -.307E-03   -.923E-05 -.446E-03 -.189E-04
   -.303E+01 -.541E+02 -.194E-02   0.526E+01 0.598E+02 0.197E-02   -.223E+01 -.568E+01 -.492E-04   -.316E-03 -.135E-02 0.191E-04
   -.590E+01 -.129E+02 0.558E-02   0.889E+01 0.149E+02 -.567E-02   -.299E+01 -.202E+01 0.109E-03   0.296E-04 0.485E-03 -.207E-04
   -.305E+01 0.541E+02 -.545E-02   0.528E+01 -.598E+02 0.576E-02   -.223E+01 0.568E+01 -.332E-03   -.274E-03 0.136E-02 0.205E-04
   -.568E+01 -.207E+02 0.146E-01   0.515E+01 0.223E+02 -.146E-01   0.525E+00 -.156E+01 -.219E-03   -.104E-03 -.179E-02 0.985E-04
   -.567E+01 0.207E+02 0.221E-01   0.514E+01 -.223E+02 -.225E-01   0.526E+00 0.157E+01 0.914E-04   -.129E-03 0.178E-02 0.894E-04
   0.582E+01 0.731E-03 0.530E+02   -.607E+01 -.390E-03 -.600E+02   0.252E+00 0.423E-03 0.705E+01   -.732E-04 -.687E-03 0.111E-03
   0.584E+01 -.332E-02 -.530E+02   -.609E+01 0.412E-02 0.600E+02   0.254E+00 -.261E-04 -.705E+01   -.738E-04 -.689E-03 -.103E-03
   -.237E+02 -.189E-02 -.320E+01   0.312E+02 0.188E-02 0.275E+01   -.750E+01 -.754E-03 0.451E+00   -.144E-03 0.680E-03 -.949E-03
   -.237E+02 0.117E-02 0.320E+01   0.312E+02 -.147E-02 -.275E+01   -.750E+01 -.483E-03 -.451E+00   -.146E-03 0.681E-03 0.930E-03
 -----------------------------------------------------------------------------------------------
   0.754E+01 -.474E-02 0.142E-01   -.391E-13 0.803E-13 0.160E-13   -.754E+01 0.452E-02 -.145E-01   -.160E-02 0.362E-03 0.496E-04
 
 
 POSITION                                       TOTAL-FORCE (eV/Angst)
 -----------------------------------------------------------------------------------
      0.00855      7.81550      0.00001         0.004188     -0.000074      0.000079
      0.00960      7.81548      3.82964         0.002781     -0.000140      0.000088
      7.67714      3.90774      7.65924         0.001364      0.000086     -0.000125
      7.69086      3.90772      3.82962        -0.006916      0.000211     -0.000097
      3.92362      0.00001      7.65834         0.004144     -0.000011     -0.003815
      3.92624      7.81526      3.82885         0.003185     -0.001909     -0.003236
      3.92645      3.90770      0.00107        -0.005953      0.000259      0.004795
      3.91740      3.90807      3.83023        -0.002653      0.000523      0.002657
      5.94513      3.90772      7.65926        -0.008046      0.000035     -0.000076
      5.97989      3.90779      3.82956         0.001539      0.000250     -0.000405
      3.91891      1.92942      3.82976        -0.000381      0.000399      0.000510
      3.91886      5.88621      3.82977        -0.000347      0.000348      0.000553
      3.93040      0.00016      1.87637         0.009799      0.000496      0.001569
      3.93042      0.00018      5.78366         0.009850      0.000359      0.001478
      3.90832      3.90765      1.88685        -0.007446     -0.000536     -0.002891
      3.90836      3.90761      5.77156        -0.007453     -0.000583     -0.001239
      1.92271      0.00006      0.00007         0.003655     -0.000076      0.000351
      1.86355      0.00002      3.82974         0.002731     -0.000064      0.000303
      1.89169      3.90774      7.65915        -0.003913     -0.000042     -0.000289
      1.85721      3.90770      3.82951        -0.002740      0.000313     -0.000530
      5.93126      7.81545      0.00010         0.004133      0.000083      0.000358
      5.99298      7.81544      3.82969         0.003009     -0.000060      0.000332
      0.03314      1.98121      0.00000        -0.000052      0.000042     -0.000000
      0.02132      1.90761      3.82962         0.001050      0.000022     -0.000001
      0.03314      5.83428      7.65924         0.000063     -0.000048      0.000006
      0.02142      5.90785      3.82963         0.001086     -0.000024      0.000006
      3.90213      1.94156      7.65926        -0.005895      0.000838     -0.000131
      3.90209      5.87391      7.65924        -0.005876     -0.000657     -0.000186
      7.83925      7.81548      1.96960         0.003686      0.000071     -0.000058
      7.83919      7.81550      5.68974         0.003674      0.000081      0.000250
      0.09604      3.90775      1.91780        -0.001095     -0.000088      0.000125
      0.09603      3.90773      5.74138        -0.001170     -0.000102     -0.000381
 -----------------------------------------------------------------------------------
    total drift:                                0.004040      0.000137     -0.000264


--------------------------------------------------------------------------------------------------------



  FREE ENERGIE OF THE ION-ELECTRON SYSTEM (eV)
  ---------------------------------------------------
  free  energy   TOTEN  =      -208.27858730 eV

  energy  without entropy=     -208.27720124  energy(sigma->0) =     -208.27789427
 


--------------------------------------------------------------------------------------------------------


    POTLOK:  cpu time    0.9818: real time    0.9797


--------------------------------------------------------------------------------------------------------


 stress matrix after NEB project (eV)
      0.02327     -0.00016      0.00014
     -0.00016     -0.01358      0.00004
      0.00014      0.00004     -0.03486
  FORCES: max atom, RMS     0.009967    0.004890
  FORCE total and by dimension    0.027665    0.009850
  Stress total and by dimension    0.044060    0.034860
 Quasi-Newton relaxation of ions (Broydens 2nd method)
  g(Force)  = 0.369E-04   g(Stress)= 0.293E-05

 Reset! Starting new Quasi-Newton update for ions 


--------------------------------------------------------------------------------------------------------


  
 reached required accuracy - stopping structural energy minimisation
 writing wavefunctions
     LOOP+:  cpu time  250.3619: real time  254.0909
    4ORBIT:  cpu time    0.0000: real time    0.0000
 


 total charge     
 
# of ion       s       p       d       tot
------------------------------------------
    1        0.245   6.350   1.845   8.439
    2        0.327   6.519   1.744   8.590
    3        0.317   6.473   1.842   8.632
    4        0.307   6.466   1.869   8.642
    5        0.299   6.461   1.736   8.495
    6        0.295   6.440   1.708   8.444
    7        0.299   6.448   1.705   8.453
    8        0.300   6.434   1.660   8.394
    9        1.573   3.439   0.000   5.012
   10        1.577   3.425   0.000   5.001
   11        1.569   3.366   0.000   4.936
   12        1.569   3.367   0.000   4.936
   13        1.567   3.412   0.000   4.980
   14        1.567   3.412   0.000   4.980
   15        1.569   3.403   0.000   4.972
   16        1.569   3.402   0.000   4.971
   17        1.730   4.394   0.000   6.125
   18        1.734   4.375   0.000   6.108
   19        1.728   4.371   0.000   6.099
   20        1.729   4.371   0.000   6.100
   21        1.730   4.393   0.000   6.123
   22        1.733   4.374   0.000   6.108
   23        1.729   4.395   0.000   6.124
   24        1.730   4.386   0.000   6.116
   25        1.729   4.395   0.000   6.124
   26        1.730   4.386   0.000   6.116
   27        1.730   4.387   0.000   6.117
   28        1.730   4.387   0.000   6.117
   29        1.733   4.401   0.000   6.134
   30        1.733   4.401   0.000   6.134
   31        1.731   4.399   0.000   6.130
   32        1.731   4.399   0.000   6.130
--------------------------------------------------
tot         42.639 149.032  14.111 205.781
 


 magnetization (x)
 
# of ion       s       p       d       tot
------------------------------------------
    1       -0.004  -0.006  -0.901  -0.911
    2       -0.000  -0.000  -0.043  -0.044
    3        0.000   0.000  -0.013  -0.012
    4       -0.000  -0.000  -0.007  -0.007
    5       -0.000   0.001  -0.017  -0.016
    6       -0.002  -0.004  -0.052  -0.058
    7       -0.000   0.000  -0.015  -0.016
    8       -0.002  -0.004  -0.053  -0.059
    9        0.000   0.003   0.000   0.003
   10        0.000   0.004   0.000   0.004
   11        0.003   0.239   0.000   0.243
   12        0.003   0.237   0.000   0.240
   13        0.002   0.098   0.000   0.099
   14        0.002   0.096   0.000   0.097
   15        0.002   0.127   0.000   0.129
   16        0.002   0.130   0.000   0.132
   17        0.000   0.010   0.000   0.010
   18       -0.000   0.002   0.000   0.002
   19       -0.000   0.001   0.000   0.001
   20       -0.000   0.000   0.000   0.000
   21        0.000   0.010   0.000   0.010
   22       -0.000   0.002   0.000   0.002
   23        0.000  -0.004   0.000  -0.003
   24        0.000  -0.000   0.000  -0.000
   25        0.000  -0.004   0.000  -0.003
   26        0.000  -0.000   0.000  -0.000
   27        0.000   0.010   0.000   0.011
   28        0.000   0.010   0.000   0.011
   29        0.000   0.002   0.000   0.003
   30        0.000   0.002   0.000   0.003
   31       -0.000  -0.000   0.000  -0.000
   32       -0.000  -0.000   0.000  -0.000
--------------------------------------------------
tot          0.008   0.960  -1.102  -0.134
 

 total amount of memory used by VASP MPI-rank0   107720. kBytes
=======================================================================

   base      :      30000. kBytes
   nonlr-proj:       8451. kBytes
   fftplans  :       8425. kBytes
   grid      :       8783. kBytes
   one-center:        124. kBytes
   wavefun   :      51937. kBytes
 
  
  
 General timing and accounting informations for this job:
 ========================================================
  
                  Total CPU time used (sec):      300.304
                            User time (sec):      288.507
                          System time (sec):       11.797
                         Elapsed time (sec):      309.419
  
                   Maximum memory used (kb):      222120.
                   Average memory used (kb):           0.
  
                          Minor page faults:       104939
                          Major page faults:            2
                 Voluntary context switches:        67627
