       N       E                     dE             d eps       ncg     rms          rms(c)
DAV:   1    -0.211476241304E+03   -0.21148E+03   -0.37871E-03 19840   0.362E-01    0.191E-03
DAV:   2    -0.211476241258E+03    0.46261E-07   -0.37621E-07 10272   0.440E-03
   1 F= -.21147624E+03 E0= -.21147624E+03  d E =-.211476E+03  mag=     0.0000
