LTO                                     
           1
     7.897728    0.001178   -0.000143
    -0.001200    7.794628   -0.000613
     0.000168   -0.000242    7.533796
   Ti   O    F 
   8   8  16
Direct configuration=     1
   0.99999808  0.00036965  0.98846093
   0.00001040  0.00038283  0.50967441
   0.99999507  0.50005020  0.01496711
   0.00000144  0.50007433  0.51419472
   0.49999365  0.98312768  0.98905585
   0.50000610  0.98319918  0.50989713
   0.49999414  0.50704357  0.99862292
   0.50000158  0.50713079  0.49791519
   0.49998787  0.75544293  0.00294619
   0.50000085  0.75550416  0.49567879
   0.00003291  0.99962049  0.74903267
   0.99999825  0.50092665  0.25034960
   0.99999685  0.50130062  0.75013167
   0.49998110  0.01023561  0.74945957
   0.49999670  0.49621343  0.24876565
   0.50000051  0.49501756  0.74878792
   0.24151991  0.00120140  0.00717570
   0.24155996  0.00121893  0.49141388
   0.24434079  0.49831450  0.99769740
   0.24441892  0.49828763  0.49815956
   0.75847329  0.00119537  0.00712957
   0.75845554  0.00120884  0.49147391
   0.75564923  0.49832316  0.99770131
   0.75558391  0.49829819  0.49815684
   0.99998693  0.24441570  0.00376401
   0.99999945  0.24467222  0.49431465
   0.00000045  0.75610552  0.00396618
   0.00001253  0.75585773  0.49394268
   0.49998448  0.24517177  0.00415034
   0.50000892  0.24513982  0.49447497
   0.99997735  0.00001798  0.24910858
   0.50003284  0.01493159  0.24943010
