 vasp.5.4.4.18Apr17-6-g9f103f2a35 (build Apr 30 2017 20:10:35) complex          
  
 executed on             LinuxIFC date 2017.08.03  19:45:25
 running on   64 total cores
 distrk:  each k-point on   64 cores,    1 groups
 distr:  one band on NCORES_PER_BAND=   8 cores,    8 groups


--------------------------------------------------------------------------------------------------------


 INCAR:
 POTCAR:   PAW_PBE Ti_pv 07Sep2000                
 POTCAR:   PAW_PBE O 08Apr2002                    
 POTCAR:    PAW_PBE F 08Apr2002                   
 POTCAR:   PAW_PBE Ti_pv 07Sep2000                
   VRHFIN =Ti: d3 s1                                                            
   LEXCH  = PE                                                                  
   EATOM  =  1042.3781 eV,   76.6126 Ry                                         
                                                                                
   TITEL  = PAW_PBE Ti_pv 07Sep2000                                             
   LULTRA =        F    use ultrasoft PP ?                                      
   IUNSCR =        1    unscreen: 0-lin 1-nonlin 2-no                           
   RPACOR =    2.200    partial core radius                                     
   POMASS =   47.880; ZVAL   =   10.000    mass and valenz                      
   RCORE  =    2.500    outmost cutoff radius                                   
   RWIGS  =    2.500; RWIGS  =    1.323    wigner-seitz radius (au A)           
   ENMAX  =  222.338; ENMIN  =  166.753 eV                                      
   RCLOC  =    1.701    cutoff for local pot                                    
   LCOR   =        T    correct aug charges                                     
   LPAW   =        T    paw PP                                                  
   EAUG   =  482.848                                                            
   DEXC   =    -.008                                                            
   RMAX   =    3.092    core radius for proj-oper                               
   RAUG   =    1.300    factor for augmentation sphere                          
   RDEP   =    2.538    radius for radial grids                                 
   QCUT   =   -4.042; QGAM   =    8.085    optimization parameters              
                                                                                
   Description                                                                  
     l     E      TYP  RCUT    TYP  RCUT                                        
     1   .000     23  2.300                                                     
     1  -.100     23  2.300                                                     
     2   .000     23  2.500                                                     
     2   .000     23  2.500                                                     
     0   .000     23  2.500                                                     
     0  1.500     23  2.500                                                     
     3   .000      7   .000                                                     
  local pseudopotential read in
  partial core-charges read in
  atomic valenz-charges read in
  non local Contribution for L=           1  read in
    real space projection operators read in
  non local Contribution for L=           1  read in
    real space projection operators read in
  non local Contribution for L=           2  read in
    real space projection operators read in
  non local Contribution for L=           2  read in
    real space projection operators read in
  non local Contribution for L=           0  read in
    real space projection operators read in
  non local Contribution for L=           0  read in
    real space projection operators read in
    PAW grid and wavefunctions read in
 
   number of l-projection  operators is LMAX  =           6
   number of lm-projection operators is LMMAX =          18
 
 POTCAR:   PAW_PBE O 08Apr2002                    
   VRHFIN =O: s2p4                                                              
   LEXCH  = PE                                                                  
   EATOM  =   432.3788 eV,   31.7789 Ry                                         
                                                                                
   TITEL  = PAW_PBE O 08Apr2002                                                 
   LULTRA =        F    use ultrasoft PP ?                                      
   IUNSCR =        0    unscreen: 0-lin 1-nonlin 2-no                           
   RPACOR =     .000    partial core radius                                     
   POMASS =   16.000; ZVAL   =    6.000    mass and valenz                      
   RCORE  =    1.520    outmost cutoff radius                                   
   RWIGS  =    1.550; RWIGS  =     .820    wigner-seitz radius (au A)           
   ENMAX  =  400.000; ENMIN  =  300.000 eV                                      
   ICORE  =        2    local potential                                         
   LCOR   =        T    correct aug charges                                     
   LPAW   =        T    paw PP                                                  
   EAUG   =  605.392                                                            
   DEXC   =     .000                                                            
   RMAX   =    2.264    core radius for proj-oper                               
   RAUG   =    1.300    factor for augmentation sphere                          
   RDEP   =    1.550    radius for radial grids                                 
   QCUT   =   -5.520; QGAM   =   11.041    optimization parameters              
                                                                                
   Description                                                                  
     l     E      TYP  RCUT    TYP  RCUT                                        
     0   .000     23  1.200                                                     
     0  -.700     23  1.200                                                     
     1   .000     23  1.520                                                     
     1   .600     23  1.520                                                     
     2   .000      7  1.500                                                     
  local pseudopotential read in
  atomic valenz-charges read in
  non local Contribution for L=           0  read in
    real space projection operators read in
  non local Contribution for L=           0  read in
    real space projection operators read in
  non local Contribution for L=           1  read in
    real space projection operators read in
  non local Contribution for L=           1  read in
    real space projection operators read in
    PAW grid and wavefunctions read in
 
   number of l-projection  operators is LMAX  =           4
   number of lm-projection operators is LMMAX =           8
 
 POTCAR:    PAW_PBE F 08Apr2002                   
   VRHFIN =F: s2p5                                                              
   LEXCH  = PE                                                                  
   EATOM  =   659.6475 eV,   48.4827 Ry                                         
                                                                                
   TITEL  = PAW_PBE F 08Apr2002                                                 
   LULTRA =        F    use ultrasoft PP ?                                      
   IUNSCR =        1    unscreen: 0-lin 1-nonlin 2-no                           
   RPACOR =    1.200    partial core radius                                     
   POMASS =   18.998; ZVAL   =    7.000    mass and valenz                      
   RCORE  =    1.520    outmost cutoff radius                                   
   RWIGS  =    1.500; RWIGS  =    0.794    wigner-seitz radius (au A)           
   ENMAX  =  400.000; ENMIN  =  300.000 eV                                      
   ICORE  =        2    local potential                                         
   LCOR   =        T    correct aug charges                                     
   LPAW   =        T    paw PP                                                  
   EAUG   =  613.614                                                            
   RMAX   =    1.555    core radius for proj-oper                               
   RAUG   =    1.300    factor for augmentation sphere                          
   RDEP   =    1.539    radius for radial grids                                 
   RDEPT  =    1.299    core radius for aug-charge                              
                                                                                
   Atomic configuration                                                         
    4 entries                                                                   
     n  l   j            E        occ.                                          
     1  0  0.50      -663.3661   2.0000                                         
     2  0  0.50       -29.8995   2.0000                                         
     2  1  0.50       -11.1114   5.0000                                         
     3  2  1.50       -10.8847   0.0000                                         
   Description                                                                  
     l       E           TYP  RCUT    TYP  RCUT                                 
     0    -29.8995018     23  1.200                                             
     0     -9.5240782     23  1.200                                             
     1    -11.1113914     23  1.520                                             
     1      1.3605826     23  1.520                                             
     2    -10.8846608      7  1.500                                             
  local pseudopotential read in
  partial core-charges read in
  partial kinetic energy density read in
  atomic valenz-charges read in
  non local Contribution for L=           0  read in
    real space projection operators read in
  non local Contribution for L=           0  read in
    real space projection operators read in
  non local Contribution for L=           1  read in
    real space projection operators read in
  non local Contribution for L=           1  read in
    real space projection operators read in
    PAW grid and wavefunctions read in
 
   number of l-projection  operators is LMAX  =           4
   number of lm-projection operators is LMMAX =           8
 
 Optimization of the real space projectors (new method)

 maximal supplied QI-value         = 15.12
 optimisation between [QCUT,QGAM] = [ 13.45, 27.06] = [ 50.69,205.06] Ry 
 Optimized for a Real-space Cutoff    1.49 Angstroem

   l    n(q)    QCUT    max X(q) W(low)/X(q) W(high)/X(q)  e(spline) 
   1     12    13.455     4.841    0.13E-05    0.83E-06    0.56E-07
   1     12    13.455     5.701    0.32E-04    0.25E-04    0.17E-06
   2     11    13.455     4.569    0.64E-05    0.34E-05    0.50E-07
   2     11    13.455    32.276    0.49E-04    0.38E-04    0.46E-06
   0     12    13.455    30.046    0.17E-04    0.41E-05    0.51E-07
   0     12    13.455    45.433    0.12E-04    0.27E-04    0.38E-06
 Optimization of the real space projectors (new method)

 maximal supplied QI-value         = 24.76
 optimisation between [QCUT,QGAM] = [ 13.37, 26.98] = [ 50.04,203.89] Ry 
 Optimized for a Real-space Cutoff    1.17 Angstroem

   l    n(q)    QCUT    max X(q) W(low)/X(q) W(high)/X(q)  e(spline) 
   0      9    13.368     4.192    0.20E-04    0.58E-05    0.56E-07
   0      9    13.368     8.473    0.60E-04    0.52E-04    0.21E-06
   1      9    13.368     2.474    0.22E-04    0.17E-04    0.28E-07
   1      9    13.368     3.912    0.94E-04    0.97E-04    0.20E-06
 Optimization of the real space projectors (new method)

 maximal supplied QI-value         = 24.76
 optimisation between [QCUT,QGAM] = [ 13.37, 26.98] = [ 50.04,203.89] Ry 
 Optimized for a Real-space Cutoff    1.17 Angstroem

   l    n(q)    QCUT    max X(q) W(low)/X(q) W(high)/X(q)  e(spline) 
   0      9    13.368    14.049    0.39E-04    0.34E-04    0.16E-06
   0      9    13.368     8.945    0.54E-04    0.47E-04    0.20E-06
   1      9    13.368     7.086    0.99E-04    0.10E-03    0.23E-06
   1      9    13.368     6.747    0.86E-04    0.89E-04    0.21E-06

 ----------------------------------------------------------------------------- 
|                                                                             |
|  ADVICE TO THIS USER RUNNING 'VASP/VAMP'   (HEAR YOUR MASTER'S VOICE ...):  |
|                                                                             |
|      You enforced a specific xc-type in the INCAR file,                     |
|      a different type was found on the POTCAR file                          |
|          I HOPE YOU KNOW, WHAT YOU ARE  DOING                               |
|                                                                             |
 ----------------------------------------------------------------------------- 

 PAW_PBE Ti_pv 07Sep2000                :
 energy of atom  1       EATOM=-1042.3781
 kinetic energy error for atom=    0.0006 (will be added to EATOM!!)
 PAW_PBE O 08Apr2002                    :
 energy of atom  2       EATOM= -432.3788
 kinetic energy error for atom=    0.0091 (will be added to EATOM!!)
  PAW_PBE F 08Apr2002                   :
 energy of atom  3       EATOM= -659.6475
 kinetic energy error for atom=    0.0140 (will be added to EATOM!!)
 
 
 POSCAR: TiOF2 2x2x2 config 0016                 
  positions in direct lattice
  velocities in cartesian coordinates
 exchange correlation table for  LEXCH =       14
   RHO(1)=    0.500       N(1)  =     2000
   RHO(2)=  100.500       N(2)  =     4000

 VTST: version 3.1, (03/28/14)

 CHAIN: initializing optimizer
 
 OPT: Using VASP QUASI-newton optimizer
 CHAIN: Read ICHAIN            0
 
 POSCAR: TiOF2 2x2x2 config 0016                 
  positions in direct lattice
  velocities in cartesian coordinates
 


--------------------------------------------------------------------------------------------------------


 ion  position               nearest neighbor table
   1  1.000  0.000  0.987-  11 1.78  25 1.90  27 1.90  21 1.94  17 1.94  31 1.97
   2  1.000  0.000  0.509-  11 1.83  22 1.89  18 1.89  26 1.90  28 1.90  31 1.97
   3  0.000  0.500  0.002-  12 1.87  13 1.88  23 1.94  19 1.94  25 1.99  27 1.99
   4  0.000  0.500  0.501-  12 1.89  13 1.90  20 1.92  24 1.92  28 1.98  26 1.98
   5  0.500  1.000  0.984-  14 1.71  29 1.91  30 1.91  32 1.94  21 2.03  17 2.03
   6  0.500  0.000  0.502-   9 1.88  10 1.88  14 1.92  32 1.97  22 2.07  18 2.07
   7  0.500  0.500  1.000-  16 1.82  15 1.85  29 1.98  30 1.98  23 2.01  19 2.01
   8  0.500  0.500  0.498-  15 1.91  16 1.96  10 2.00   9 2.00  20 2.04  24 2.04
   9  0.500  0.242  0.499-   6 1.88   8 2.00
  10  0.500  0.758  0.499-   6 1.88   8 2.00
  11  1.000  0.000  0.751-   1 1.78   2 1.83
  12  0.000  0.500  0.250-   3 1.87   4 1.89
  13  1.000  0.500  0.752-   3 1.88   4 1.90
  14  0.500  1.000  0.757-   5 1.71   6 1.92
  15  0.500  0.500  0.245-   7 1.85   8 1.91
  16  0.500  0.500  0.758-   7 1.82   8 1.96
  17  0.244  0.000  0.006-   1 1.94   5 2.03
  18  0.239  1.000  0.492-   2 1.89   6 2.07
  19  0.245  0.500  0.001-   3 1.94   7 2.01
  20  0.243  0.500  0.501-   4 1.92   8 2.04
  21  0.756  0.000  0.006-   1 1.94   5 2.03
  22  0.761  1.000  0.492-   2 1.89   6 2.07
  23  0.755  0.500  0.001-   3 1.94   7 2.01
  24  0.757  0.500  0.501-   4 1.92   8 2.04
  25  0.000  0.244  0.006-   1 1.90   3 1.99
  26  1.000  0.245  0.495-   2 1.90   4 1.98
  27  1.000  0.756  0.006-   1 1.90   3 1.99
  28  0.000  0.755  0.495-   2 1.90   4 1.98
  29  0.500  0.245  0.008-   5 1.91   7 1.98
  30  0.500  0.755  0.008-   5 1.91   7 1.98
  31  0.000  0.000  0.248-   2 1.97   1 1.97
  32  0.500  1.000  0.241-   5 1.94   6 1.97
 

IMPORTANT INFORMATION: All symmetrisations will be switched off!
NOSYMM: (Re-)initialisation of all symmetry stuff for point group C_1.

 
 
 KPOINTS: Title                                   

Automatic generation of k-mesh.
Space group operators:
 irot       det(A)        alpha          n_x          n_y          n_z        tau_x        tau_y        tau_z
    1     1.000000     0.000001     1.000000     0.000000     0.000000     0.000000     0.000000     0.000000
 
 Subroutine IBZKPT returns following result:
 ===========================================
 
 Found      4 irreducible k-points:
 
 Following reciprocal coordinates:
            Coordinates               Weight
  0.250000  0.250000  0.250000      2.000000
 -0.250000  0.250000  0.250000      2.000000
  0.250000 -0.250000  0.250000      2.000000
 -0.250000 -0.250000  0.250000      2.000000
 
 Following cartesian coordinates:
            Coordinates               Weight
  0.031591  0.032191  0.033144      2.000000
 -0.031591  0.032191  0.033144      2.000000
  0.031591 -0.032190  0.033143      2.000000
 -0.031591 -0.032190  0.033144      2.000000
 


--------------------------------------------------------------------------------------------------------




 Dimension of arrays:
   k-points           NKPTS =      4   k-points in BZ     NKDIM =      4   number of bands    NBANDS=    160
   number of dos      NEDOS =   3001   number of ions     NIONS =     32
   non local maximal  LDIM  =      6   non local SUM 2l+1 LMDIM =     18
   total plane-waves  NPLWV = 343000
   max r-space proj   IRMAX =  10258   max aug-charges    IRDMAX= 229976
   dimension x,y,z NGX =    70 NGY =   70 NGZ =   70
   dimension x,y,z NGXF=   140 NGYF=  140 NGZF=  140
   support grid    NGXF=   280 NGYF=  280 NGZF=  280
   ions per type =               8   8  16
   NGX,Y,Z   is equivalent  to a cutoff of  14.71, 14.98, 15.43 a.u.
   NGXF,Y,Z  is equivalent  to a cutoff of  29.41, 29.97, 30.86 a.u.

 SYSTEM =  LTO                                     
 POSCAR =  TiOF2 2x2x2 config 0016                 

 Startparameter for this run:
   NWRITE =      2    write-flag & timer
   PREC   = accura    normal or accurate (medium, high low for compatibility)
   ISTART =      1    job   : 0-new  1-cont  2-samecut
   ICHARG =      0    charge: 1-file 2-atom 10-const
   ISPIN  =      2    spin polarized calculation?
   LNONCOLLINEAR =      F non collinear calculations
   LSORBIT =      F    spin-orbit coupling
   INIWAV =      1    electr: 0-lowe 1-rand  2-diag
   LASPH  =      T    aspherical Exc in radial PAW
   METAGGA=      F    non-selfconsistent MetaGGA calc.

 Electronic Relaxation 1
   ENCUT  =  700.0 eV  51.45 Ry    7.17 a.u.  17.07 16.75 16.27*2*pi/ulx,y,z
   ENINI  =  700.0     initial cutoff
   ENAUG  =  613.6 eV  augmentation charge cutoff
   NELM   =     60;   NELMIN=  2; NELMDL=  0     # of ELM steps 
   EDIFF  = 0.1E-05   stopping-criterion for ELM
   LREAL  =      T    real-space projection
   NLSPLINE    = F    spline interpolate recip. space projectors
   LCOMPAT=      F    compatible to vasp.4.4
   GGA_COMPAT  = T    GGA compatible to vasp.4.4-vasp.4.6
   LMAXPAW     = -100 max onsite density
   LMAXMIX     =    4 max onsite mixed and CHGCAR
   VOSKOWN=      0    Vosko Wilk Nusair interpolation
   ROPT   =   -0.00010  -0.00010  -0.00010
 Ionic relaxation
   EDIFFG = -.1E-01   stopping-criterion for IOM
   NSW    =    100    number of steps for IOM
   NBLOCK =      1;   KBLOCK =    100    inner block; outer block 
   IBRION =      1    ionic relax: 0-MD 1-quasi-New 2-CG
   NFREE  =      0    steps in history (QN), initial steepest desc. (CG)
   ISIF   =      3    stress and relaxation
   IWAVPR =     11    prediction:  0-non 1-charg 2-wave 3-comb
   ISYM   =      0    0-nonsym 1-usesym 2-fastsym
   LCORR  =      T    Harris-Foulkes like correction to forces

   POTIM  = 0.5000    time-step for ionic-motion
   TEIN   =    0.0    initial temperature
   TEBEG  =    0.0;   TEEND  =   0.0 temperature during run
   SMASS  =  -3.00    Nose mass-parameter (am)
   estimated Nose-frequenzy (Omega)   =  0.10E-29 period in steps =****** mass=  -0.143E-26a.u.
   SCALEE = 1.0000    scale energy and forces
   NPACO  =    256;   APACO  = 16.0  distance and # of slots for P.C.
   PSTRESS=    0.0 pullay stress

  Mass of Ions in am
   POMASS =  47.88 16.00 19.00
  Ionic Valenz
   ZVAL   =  10.00  6.00  7.00
  Atomic Wigner-Seitz radii
   RWIGS  =  -1.00 -1.00 -1.00
  virtual crystal weights 
   VCA    =   1.00  1.00  1.00
   NELECT =     240.0000    total number of electrons
   NUPDOWN=      -1.0000    fix difference up-down

 DOS related values:
   EMIN   =  10.00;   EMAX   =-10.00  energy-range for DOS
   EFERMI =   0.00
   ISMEAR =     0;   SIGMA  =   0.01  broadening in eV -4-tet -1-fermi 0-gaus

 Electronic relaxation 2 (details)
   IALGO  =     38    algorithm
   LDIAG  =      T    sub-space diagonalisation (order eigenvalues)
   LSUBROT=      F    optimize rotation matrix (better conditioning)
   TURBO    =      0    0=normal 1=particle mesh
   IRESTART =      0    0=no restart 2=restart with 2 vectors
   NREBOOT  =      0    no. of reboots
   NMIN     =      0    reboot dimension
   EREF     =   0.00    reference energy to select bands
   IMIX   =      4    mixing-type and parameters
     AMIX     =   0.40;   BMIX     =  1.00
     AMIX_MAG =   1.60;   BMIX_MAG =  1.00
     AMIN     =   0.10
     WC   =   100.;   INIMIX=   1;  MIXPRE=   1;  MAXMIX= -45

 Intra band minimization:
   WEIMIN = 0.0010     energy-eigenvalue tresh-hold
   EBREAK =  0.16E-08  absolut break condition
   DEPER  =   0.30     relativ break condition  

   TIME   =   0.40     timestep for ELM

  volume/ion in A,a.u.               =      14.49        97.76
  Fermi-wavevector in a.u.,A,eV,Ry     =   1.314524  2.484089 23.510489  1.727972
  Thomas-Fermi vector in A             =   2.444770
 
 Write flags
   LWAVE        =      T    write WAVECAR
   LDOWNSAMPLE  =      F    k-point downsampling of WAVECAR
   LCHARG       =      T    write CHGCAR
   LVTOT        =      F    write LOCPOT, total local potential
   LVHAR        =      F    write LOCPOT, Hartree potential only
   LELF         =      F    write electronic localiz. function (ELF)
   LORBIT       =     11    0 simple, 1 ext, 2 COOP (PROOUT), +10 PAW based schemes


 Dipole corrections
   LMONO  =      F    monopole corrections only (constant potential shift)
   LDIPOL =      F    correct potential (dipole corrections)
   IDIPOL =      0    1-x, 2-y, 3-z, 4-all directions 
   EPSILON=  1.0000000 bulk dielectric constant

 LDA+U is selected, type is set to LDAUTYPE =  2
   angular momentum for each species LDAUL =     2   -1   -1
   U (eV)           for each species LDAUU =   4.2  0.0  0.0
   J (eV)           for each species LDAUJ =   0.0  0.0  0.0
 Exchange correlation treatment:
   GGA     =    PS    GGA type
   LEXCH   =    14    internal setting for exchange type
   VOSKOWN=      0    Vosko Wilk Nusair interpolation
   LHFCALC =     F    Hartree Fock is set to
   LHFONE  =     F    Hartree Fock one center treatment
   AEXX    =    0.0000 exact exchange contribution

 Linear response parameters
   LEPSILON=     F    determine dielectric tensor
   LRPA    =     F    only Hartree local field effects (RPA)
   LNABLA  =     F    use nabla operator in PAW spheres
   LVEL    =     F    velocity operator in full k-point grid
   LINTERFAST=   F  fast interpolation
   KINTER  =     0    interpolate to denser k-point grid
   CSHIFT  =0.1000    complex shift for real part using Kramers Kronig
   OMEGAMAX=  -1.0    maximum frequency
   DEG_THRESHOLD= 0.2000000E-02 threshold for treating states as degnerate
   RTIME   =   -0.100 relaxation time in fs
  (WPLASMAI=    0.000 imaginary part of plasma frequency in eV, 0.658/RTIME)
   DFIELD  = 0.0000000 0.0000000 0.0000000 field for delta impulse in time
 
 Orbital magnetization related:
   ORBITALMAG=     F  switch on orbital magnetization
   LCHIMAG   =     F  perturbation theory with respect to B field
   DQ        =  0.001000  dq finite difference perturbation B field
   LLRAUG    =     F  two centre corrections for induced B field



--------------------------------------------------------------------------------------------------------


 quasi-Newton-method for relaxation of ions
 charge density and potential will be updated during run
 spin polarized calculation
 Variant of blocked Davidson
 Davidson routine will perform the subspace rotation
 perform sub-space diagonalisation
    after iterative eigenvector-optimisation
 modified Broyden-mixing scheme, WC =      100.0
 initial mixing is a Kerker type mixing with AMIX =  0.4000 and BMIX =      1.0000
 Hartree-type preconditioning will be used
 using additional bands           40
 real space projection scheme for non local part
 use partial core corrections
 calculate Harris-corrections to forces 
   (improved forces if not selfconsistent)
 use gradient corrections 
 use of overlap-Matrix (Vanderbilt PP)
 Gauss-broadening in eV      SIGMA  =   0.01


--------------------------------------------------------------------------------------------------------


  energy-cutoff  :      700.00
  volume of cell :      463.59
      direct lattice vectors                 reciprocal lattice vectors
     7.913760404 -0.000001618  0.000005631     0.126362178  0.000000032 -0.000000085
    -0.000001977  7.766223387 -0.000068825     0.000000026  0.128762714  0.000001145
     0.000005080 -0.000067101  7.542890889    -0.000000094  0.000001175  0.132575164

  length of vectors
     7.913760404  7.766223387  7.542890889     0.126362178  0.128762714  0.132575164


 
 old parameters found on file WAVECAR:
  energy-cutoff  :      700.00
  volume of cell :      463.46
      direct lattice vectors                 reciprocal lattice vectors
     7.912081700 -0.000000612  0.000002083     0.126388988  0.000000016 -0.000000029
    -0.000000990  7.765163449  0.000085283     0.000000010  0.128780290 -0.000001410
     0.000001708  0.000082563  7.543384499    -0.000000035 -0.000001456  0.132566489

  length of vectors

 
 k-points in units of 2pi/SCALE and weight: Title                                   
   0.03159053  0.03219098  0.03314406       0.250
  -0.03159056  0.03219096  0.03314410       0.250
   0.03159051 -0.03219038  0.03314348       0.250
  -0.03159057 -0.03219039  0.03314353       0.250
 
 k-points in reciprocal lattice and weights: Title                                   
   0.25000000  0.25000000  0.25000000       0.250
  -0.25000000  0.25000000  0.25000000       0.250
   0.25000000 -0.25000000  0.25000000       0.250
  -0.25000000 -0.25000000  0.25000000       0.250
 
 position of ions in fractional coordinates (direct lattice) 
   0.99999949  0.00000400  0.98741430
   0.99999851  0.00000333  0.50870857
   0.00000054  0.50000399  0.00152527
   0.00000066  0.50000422  0.50074932
   0.49999998  0.99999933  0.98368792
   0.49999872  0.00002615  0.50166002
   0.50000058  0.49999816  0.99978738
   0.50000048  0.50005540  0.49817021
   0.50000007  0.24212531  0.49893509
   0.49999949  0.75782675  0.49893341
   0.99999609  0.00000365  0.75089208
   0.00000093  0.50000332  0.24970600
   0.99999990  0.50000518  0.75205675
   0.50000163  0.99998225  0.75655785
   0.50000006  0.49998844  0.24527041
   0.50000108  0.49998474  0.75807510
   0.24442979  0.00000369  0.00602035
   0.23862620  0.99998663  0.49169185
   0.24545950  0.50000323  0.00091968
   0.24279551  0.49999823  0.50124039
   0.75556965  0.00000520  0.00602584
   0.76137109  0.99998602  0.49168859
   0.75454162  0.50000376  0.00092146
   0.75720569  0.50000126  0.50123843
   0.00000030  0.24387191  0.00591702
   0.99999962  0.24455894  0.49545843
   0.99999984  0.75613641  0.00591845
   0.00000204  0.75544670  0.49545456
   0.49999977  0.24457863  0.00811139
   0.50000097  0.75542003  0.00810704
   0.00000207  0.00000617  0.24808118
   0.49999814  0.99997898  0.24107569
 
 position of ions in cartesian coordinates  (Angst):
   7.91376134 -0.00003680  7.44796395
   7.91375117 -0.00000991  3.83713885
   0.00000329  3.88314256  0.01147055
   0.00000681  3.88311084  3.77706304
   3.95688309  7.76615140  7.41978463
   3.95687258  0.00016863  3.78396961
   3.95688887  3.88302953  7.54125549
   3.95688555  3.88350770  3.75761192
   3.95688284  1.88036492  3.76339908
   3.95687716  5.88541756  3.76335090
   7.91373327 -0.00002369  5.66390268
   0.00000762  3.88312070  1.88347069
   7.91376245  3.88309983  5.67265320
   3.95689500  7.76603394  5.70656730
   3.95688093  3.88300467  1.85001634
   3.95689163  3.88294152  5.71804614
   1.93435879  0.00002785  0.04541220
   1.88843111  7.76608620  3.70871052
   1.94250666  3.88313632  0.00690398
   1.92142709  3.88306389  3.78076852
   5.97939719  0.00003876  0.04545650
   6.02530890  7.76608063  3.70868883
   5.97126059  3.88313963  0.00692031
   5.99234593  3.88308659  3.78075663
   0.00000194  1.89396337  0.04461462
   7.91375940  1.89926446  3.73717767
   7.91375766  5.87232225  0.04459581
   0.00001720  5.86693458  3.73710773
   3.95687794  1.89945093  0.06116934
   3.95688646  5.86675936  0.06110136
   0.00001762  0.00003126  1.87124925
   3.95686473  7.76604313  1.81834164
 


--------------------------------------------------------------------------------------------------------


 k-point  1 :   0.2500 0.2500 0.2500  plane waves:   19487
 k-point  2 :  -0.2500 0.2500 0.2500  plane waves:   19487
 k-point  3 :   0.2500-0.2500 0.2500  plane waves:   19487
 k-point  4 :  -0.2500-0.2500 0.2500  plane waves:   19487

 maximum and minimum number of plane-waves per node :      2459     2412

 maximum number of plane-waves:     19487
 maximum index in each direction: 
   IXMAX=   17   IYMAX=   17   IZMAX=   16
   IXMIN=  -17   IYMIN=  -17   IZMIN=  -16


 real space projection operators:
  total allocation   :      18463.02 KBytes
  max/ min on nodes  :       2453.86       1916.95


 parallel 3D FFT for wavefunctions:
    minimum data exchange during FFTs selected (reduces bandwidth)
 parallel 3D FFT for charge:
    minimum data exchange during FFTs selected (reduces bandwidth)


 total amount of memory used by VASP MPI-rank0    62268. kBytes
=======================================================================

   base      :      30000. kBytes
   nonlr-proj:       8550. kBytes
   fftplans  :       8422. kBytes
   grid      :       8783. kBytes
   one-center:        124. kBytes
   wavefun   :       6389. kBytes
 
     INWAV:  cpu time    3.7074: real time    3.9730
 Broyden mixing: mesh for mixing (old mesh)
   NGX = 35   NGY = 33   NGZ = 33
  (NGX  =140   NGY  =140   NGZ  =140)
  gives a total of  38115 points

 charge density for first step will be calculated from the start-wavefunctions


--------------------------------------------------------------------------------------------------------


 Maximum index for non-local projection operator         1384
 Maximum index for augmentation-charges         7168 (set IRDMAX)


--------------------------------------------------------------------------------------------------------


 initial charge from wavefunction
 First call to EWALD:  gamma=   0.229
 Maximum number of real-space cells 3x 3x 3
 Maximum number of reciprocal cells 3x 3x 3

    FEWALD:  cpu time    0.0040: real time    0.0029


--------------------------------------- Iteration      1(   1)  ---------------------------------------


    POTLOK:  cpu time    0.1800: real time    0.1871
    SETDIJ:  cpu time    0.8439: real time    0.8430
     EDDAV:  cpu time    3.5665: real time    3.5642
       DOS:  cpu time    0.0010: real time    0.0009
    CHARGE:  cpu time    0.3939: real time    0.3922
    MIXING:  cpu time    0.0030: real time    0.0021
    --------------------------------------------
      LOOP:  cpu time    4.9882: real time    4.9895

 eigenvalue-minimisations  :  2560
 total energy-change (2. order) :-0.2104046E+03  (-0.5253687E-03)
 number of electron     240.0000003 magnetization       0.0000000
 augmentation part       61.9534200 magnetization       0.0000000

 Broyden mixing:
  rms(total) = 0.10249E-02    rms(broyden)= 0.10241E-02
  rms(prec ) = 0.17657E-02
  weight for this iteration     100.00

 Free energy of the ion-electron system (eV)
  ---------------------------------------------------
  alpha Z        PSCENC =       755.34177147
  Ewald energy   TEWEN  =    -12730.69548576
  -Hartree energ DENC   =     -8289.01134867
  -exchange      EXHF   =         0.00000000
  -V(xc)+E(xc)   XCENC  =      1119.38283887
  PAW double counting   =     17997.38954365   -18120.34293391
  entropy T*S    EENTRO =        -0.00000000
  eigenvalues    EBANDS =     -3244.82215211
  atomic energy  EATOM  =     22302.35321627
  Solvation  Ediel_sol  =         0.00000000
  ---------------------------------------------------
  free energy    TOTEN  =      -210.40455019 eV

  energy without entropy =     -210.40455019  energy(sigma->0) =     -210.40455019


--------------------------------------------------------------------------------------------------------




--------------------------------------- Iteration      1(   2)  ---------------------------------------


    POTLOK:  cpu time    0.1440: real time    0.1602
    SETDIJ:  cpu time    0.8429: real time    0.8415
     EDDAV:  cpu time    4.4273: real time    4.4247
       DOS:  cpu time    0.0010: real time    0.0009
    CHARGE:  cpu time    0.3909: real time    0.3892
    MIXING:  cpu time    0.0090: real time    0.0088
    --------------------------------------------
      LOOP:  cpu time    5.8151: real time    5.8253

 eigenvalue-minimisations  :  3360
 total energy-change (2. order) : 0.9123796E-06  (-0.1070610E-05)
 number of electron     240.0000003 magnetization       0.0000000
 augmentation part       61.9535937 magnetization       0.0000000

 Broyden mixing:
  rms(total) = 0.82884E-03    rms(broyden)= 0.82821E-03
  rms(prec ) = 0.13659E-02
  weight for this iteration     100.00

 eigenvalues of (default mixing * dielectric matrix)
  average eigenvalue GAMMA=   0.5521
  0.5521

 Free energy of the ion-electron system (eV)
  ---------------------------------------------------
  alpha Z        PSCENC =       755.34177147
  Ewald energy   TEWEN  =    -12730.69548576
  -Hartree energ DENC   =     -8289.00761715
  -exchange      EXHF   =         0.00000000
  -V(xc)+E(xc)   XCENC  =      1119.38277264
  PAW double counting   =     17997.38703010   -18120.34059119
  entropy T*S    EENTRO =        -0.00000000
  eigenvalues    EBANDS =     -3244.82564566
  atomic energy  EATOM  =     22302.35321627
  Solvation  Ediel_sol  =         0.00000000
  ---------------------------------------------------
  free energy    TOTEN  =      -210.40454928 eV

  energy without entropy =     -210.40454928  energy(sigma->0) =     -210.40454928


--------------------------------------------------------------------------------------------------------




--------------------------------------- Iteration      1(   3)  ---------------------------------------


    POTLOK:  cpu time    0.1380: real time    0.1546
    SETDIJ:  cpu time    0.8399: real time    0.8470
     EDDAV:  cpu time    3.2125: real time    3.2197
       DOS:  cpu time    0.0010: real time    0.0008
    CHARGE:  cpu time    0.3739: real time    0.3879
    MIXING:  cpu time    0.0020: real time    0.0020
    --------------------------------------------
      LOOP:  cpu time    4.5673: real time    4.6120

 eigenvalue-minimisations  :  2304
 total energy-change (2. order) : 0.1356540E-05  (-0.2151171E-06)
 number of electron     240.0000003 magnetization       0.0000000
 augmentation part       61.9535019 magnetization       0.0000000

 Broyden mixing:
  rms(total) = 0.10340E-03    rms(broyden)= 0.98684E-04
  rms(prec ) = 0.14548E-03
  weight for this iteration     100.00

 eigenvalues of (default mixing * dielectric matrix)
  average eigenvalue GAMMA=   0.5804
  0.5804  0.5804

 Free energy of the ion-electron system (eV)
  ---------------------------------------------------
  alpha Z        PSCENC =       755.34177147
  Ewald energy   TEWEN  =    -12730.69548576
  -Hartree energ DENC   =     -8289.00772740
  -exchange      EXHF   =         0.00000000
  -V(xc)+E(xc)   XCENC  =      1119.38266472
  PAW double counting   =     17997.39185327   -18120.34527152
  entropy T*S    EENTRO =        -0.00000000
  eigenvalues    EBANDS =     -3244.82556897
  atomic energy  EATOM  =     22302.35321627
  Solvation  Ediel_sol  =         0.00000000
  ---------------------------------------------------
  free energy    TOTEN  =      -210.40454792 eV

  energy without entropy =     -210.40454792  energy(sigma->0) =     -210.40454792


--------------------------------------------------------------------------------------------------------




--------------------------------------- Iteration      1(   4)  ---------------------------------------


    POTLOK:  cpu time    0.2760: real time    0.3354
    SETDIJ:  cpu time    0.8449: real time    0.8427
     EDDAV:  cpu time    2.3896: real time    2.3894
       DOS:  cpu time    0.0010: real time    0.0008
    --------------------------------------------
      LOOP:  cpu time    3.5115: real time    3.5683

 eigenvalue-minimisations  :  1344
 total energy-change (2. order) :-0.1287481E-07  (-0.2520120E-07)
 number of electron     240.0000003 magnetization       0.0000000
 augmentation part       61.9535019 magnetization       0.0000000

 Free energy of the ion-electron system (eV)
  ---------------------------------------------------
  alpha Z        PSCENC =       755.34177147
  Ewald energy   TEWEN  =    -12730.69548576
  -Hartree energ DENC   =     -8289.00753892
  -exchange      EXHF   =         0.00000000
  -V(xc)+E(xc)   XCENC  =      1119.38268555
  PAW double counting   =     17997.39329245   -18120.34681784
  entropy T*S    EENTRO =        -0.00000000
  eigenvalues    EBANDS =     -3244.82567116
  atomic energy  EATOM  =     22302.35321627
  Solvation  Ediel_sol  =         0.00000000
  ---------------------------------------------------
  free energy    TOTEN  =      -210.40454793 eV

  energy without entropy =     -210.40454793  energy(sigma->0) =     -210.40454793


--------------------------------------------------------------------------------------------------------




 average (electrostatic) potential at core
  the test charge radii are     1.0397  0.7215  0.7167
  (the norm of the test charge is              1.0000)
       1 -60.2585       2 -60.1324       3 -59.0291       4 -58.9969       5 -58.9828
       6 -57.8240       7 -58.0217       8 -57.6903       9 -72.4136      10 -72.4131
      11 -75.3612      12 -73.5920      13 -73.5826      14 -74.2770      15 -72.6707
      16 -72.7012      17 -79.9557      18 -79.5979      19 -79.0416      20 -78.7764
      21 -79.9557      22 -79.5979      23 -79.0416      24 -78.7764      25 -80.1809
      26 -80.0011      27 -80.1809      28 -80.0010      29 -79.2998      30 -79.2997
      31 -79.9290      32 -78.8727
 
 
 
 E-fermi :   0.6015     XC(G=0):  -8.9669     alpha+bet : -7.6222


 spin component 1

 k-point     1 :       0.2500    0.2500    0.2500
  band No.  band energies     occupation 
      1     -36.2434      1.00000
      2     -36.1922      1.00000
      3     -36.1012      1.00000
      4     -36.0923      1.00000
      5     -36.0501      1.00000
      6     -35.9759      1.00000
      7     -35.1178      1.00000
      8     -35.0846      1.00000
      9     -35.0567      1.00000
     10     -35.0200      1.00000
     11     -35.0095      1.00000
     12     -34.9596      1.00000
     13     -34.8536      1.00000
     14     -34.6277      1.00000
     15     -34.5723      1.00000
     16     -34.1357      1.00000
     17     -34.1266      1.00000
     18     -33.9701      1.00000
     19     -33.8553      1.00000
     20     -33.7336      1.00000
     21     -33.5978      1.00000
     22     -33.3798      1.00000
     23     -33.3796      1.00000
     24     -33.3378      1.00000
     25     -24.0584      1.00000
     26     -23.8674      1.00000
     27     -23.7381      1.00000
     28     -23.6160      1.00000
     29     -23.5785      1.00000
     30     -23.4412      1.00000
     31     -23.4310      1.00000
     32     -23.3410      1.00000
     33     -23.1317      1.00000
     34     -23.0151      1.00000
     35     -22.8289      1.00000
     36     -22.7392      1.00000
     37     -22.5515      1.00000
     38     -22.5463      1.00000
     39     -22.5139      1.00000
     40     -22.2245      1.00000
     41     -17.8397      1.00000
     42     -16.6619      1.00000
     43     -16.4338      1.00000
     44     -15.8091      1.00000
     45     -15.5758      1.00000
     46     -15.1159      1.00000
     47     -14.8595      1.00000
     48     -14.5890      1.00000
     49      -7.5496      1.00000
     50      -7.3855      1.00000
     51      -7.2561      1.00000
     52      -7.1614      1.00000
     53      -6.8526      1.00000
     54      -6.6343      1.00000
     55      -6.4602      1.00000
     56      -6.3349      1.00000
     57      -6.2796      1.00000
     58      -6.2077      1.00000
     59      -6.0642      1.00000
     60      -6.0541      1.00000
     61      -6.0335      1.00000
     62      -5.9797      1.00000
     63      -5.9037      1.00000
     64      -5.7872      1.00000
     65      -5.7079      1.00000
     66      -5.5814      1.00000
     67      -5.3788      1.00000
     68      -5.3526      1.00000
     69      -5.3048      1.00000
     70      -5.2050      1.00000
     71      -5.1657      1.00000
     72      -5.0880      1.00000
     73      -5.0532      1.00000
     74      -5.0033      1.00000
     75      -4.9277      1.00000
     76      -4.8814      1.00000
     77      -4.7648      1.00000
     78      -4.5991      1.00000
     79      -4.5883      1.00000
     80      -4.5020      1.00000
     81      -4.4840      1.00000
     82      -4.4466      1.00000
     83      -4.4023      1.00000
     84      -4.3092      1.00000
     85      -4.2124      1.00000
     86      -4.2086      1.00000
     87      -4.1353      1.00000
     88      -4.0837      1.00000
     89      -4.0668      1.00000
     90      -4.0056      1.00000
     91      -3.8955      1.00000
     92      -3.8509      1.00000
     93      -3.7464      1.00000
     94      -3.7011      1.00000
     95      -3.6778      1.00000
     96      -3.5764      1.00000
     97      -3.5514      1.00000
     98      -3.5288      1.00000
     99      -3.4286      1.00000
    100      -3.3744      1.00000
    101      -3.0576      1.00000
    102      -2.9823      1.00000
    103      -2.9505      1.00000
    104      -2.3590      1.00000
    105      -2.2907      1.00000
    106      -2.0299      1.00000
    107      -1.7232      1.00000
    108      -1.4895      1.00000
    109      -1.4578      1.00000
    110      -1.3237      1.00000
    111      -1.2405      1.00000
    112      -1.0947      1.00000
    113      -1.0665      1.00000
    114      -0.7706      1.00000
    115      -0.6413      1.00000
    116      -0.4392      1.00000
    117      -0.3110      1.00000
    118      -0.0643      1.00000
    119       0.0504      1.00000
    120       0.5439      1.00000
    121       1.3022      0.00000
    122       1.3293      0.00000
    123       1.4922      0.00000
    124       1.7603      0.00000
    125       2.3826      0.00000
    126       2.4524      0.00000
    127       2.4777      0.00000
    128       2.4997      0.00000
    129       2.5410      0.00000
    130       2.5778      0.00000
    131       2.5887      0.00000
    132       2.7005      0.00000
    133       2.8217      0.00000
    134       2.8454      0.00000
    135       2.9475      0.00000
    136       3.1225      0.00000
    137       3.4541      0.00000
    138       3.4818      0.00000
    139       3.5440      0.00000
    140       3.6492      0.00000
    141       3.6929      0.00000
    142       3.7646      0.00000
    143       3.7944      0.00000
    144       3.8943      0.00000
    145       3.9566      0.00000
    146       4.1349      0.00000
    147       4.2754      0.00000
    148       4.4075      0.00000
    149       4.5993      0.00000
    150       4.6155      0.00000
    151       4.7182      0.00000
    152       4.7579      0.00000
    153       5.0159      0.00000
    154       5.2323      0.00000
    155       5.3333      0.00000
    156       5.4790      0.00000
    157       5.9388      0.00000
    158       6.0530      0.00000
    159       6.4942      0.00000
    160       6.8708      0.00000

 k-point     2 :      -0.2500    0.2500    0.2500
  band No.  band energies     occupation 
      1     -36.2434      1.00000
      2     -36.1922      1.00000
      3     -36.1012      1.00000
      4     -36.0923      1.00000
      5     -36.0501      1.00000
      6     -35.9759      1.00000
      7     -35.1178      1.00000
      8     -35.0846      1.00000
      9     -35.0567      1.00000
     10     -35.0200      1.00000
     11     -35.0095      1.00000
     12     -34.9596      1.00000
     13     -34.8536      1.00000
     14     -34.6277      1.00000
     15     -34.5723      1.00000
     16     -34.1357      1.00000
     17     -34.1266      1.00000
     18     -33.9701      1.00000
     19     -33.8553      1.00000
     20     -33.7336      1.00000
     21     -33.5978      1.00000
     22     -33.3798      1.00000
     23     -33.3796      1.00000
     24     -33.3378      1.00000
     25     -24.0584      1.00000
     26     -23.8674      1.00000
     27     -23.7381      1.00000
     28     -23.6160      1.00000
     29     -23.5785      1.00000
     30     -23.4412      1.00000
     31     -23.4310      1.00000
     32     -23.3410      1.00000
     33     -23.1317      1.00000
     34     -23.0151      1.00000
     35     -22.8289      1.00000
     36     -22.7392      1.00000
     37     -22.5515      1.00000
     38     -22.5463      1.00000
     39     -22.5139      1.00000
     40     -22.2245      1.00000
     41     -17.8397      1.00000
     42     -16.6619      1.00000
     43     -16.4338      1.00000
     44     -15.8091      1.00000
     45     -15.5758      1.00000
     46     -15.1159      1.00000
     47     -14.8595      1.00000
     48     -14.5890      1.00000
     49      -7.5496      1.00000
     50      -7.3855      1.00000
     51      -7.2561      1.00000
     52      -7.1614      1.00000
     53      -6.8526      1.00000
     54      -6.6343      1.00000
     55      -6.4602      1.00000
     56      -6.3349      1.00000
     57      -6.2796      1.00000
     58      -6.2077      1.00000
     59      -6.0642      1.00000
     60      -6.0541      1.00000
     61      -6.0335      1.00000
     62      -5.9797      1.00000
     63      -5.9037      1.00000
     64      -5.7872      1.00000
     65      -5.7079      1.00000
     66      -5.5814      1.00000
     67      -5.3788      1.00000
     68      -5.3526      1.00000
     69      -5.3048      1.00000
     70      -5.2050      1.00000
     71      -5.1657      1.00000
     72      -5.0880      1.00000
     73      -5.0532      1.00000
     74      -5.0033      1.00000
     75      -4.9277      1.00000
     76      -4.8814      1.00000
     77      -4.7648      1.00000
     78      -4.5991      1.00000
     79      -4.5883      1.00000
     80      -4.5020      1.00000
     81      -4.4840      1.00000
     82      -4.4466      1.00000
     83      -4.4023      1.00000
     84      -4.3092      1.00000
     85      -4.2124      1.00000
     86      -4.2086      1.00000
     87      -4.1353      1.00000
     88      -4.0837      1.00000
     89      -4.0667      1.00000
     90      -4.0056      1.00000
     91      -3.8955      1.00000
     92      -3.8509      1.00000
     93      -3.7464      1.00000
     94      -3.7011      1.00000
     95      -3.6778      1.00000
     96      -3.5764      1.00000
     97      -3.5514      1.00000
     98      -3.5288      1.00000
     99      -3.4286      1.00000
    100      -3.3744      1.00000
    101      -3.0576      1.00000
    102      -2.9823      1.00000
    103      -2.9505      1.00000
    104      -2.3590      1.00000
    105      -2.2907      1.00000
    106      -2.0299      1.00000
    107      -1.7232      1.00000
    108      -1.4895      1.00000
    109      -1.4578      1.00000
    110      -1.3237      1.00000
    111      -1.2405      1.00000
    112      -1.0947      1.00000
    113      -1.0665      1.00000
    114      -0.7706      1.00000
    115      -0.6413      1.00000
    116      -0.4392      1.00000
    117      -0.3110      1.00000
    118      -0.0643      1.00000
    119       0.0504      1.00000
    120       0.5439      1.00000
    121       1.3022      0.00000
    122       1.3293      0.00000
    123       1.4922      0.00000
    124       1.7603      0.00000
    125       2.3826      0.00000
    126       2.4524      0.00000
    127       2.4777      0.00000
    128       2.4997      0.00000
    129       2.5410      0.00000
    130       2.5778      0.00000
    131       2.5887      0.00000
    132       2.7005      0.00000
    133       2.8217      0.00000
    134       2.8454      0.00000
    135       2.9476      0.00000
    136       3.1225      0.00000
    137       3.4541      0.00000
    138       3.4818      0.00000
    139       3.5440      0.00000
    140       3.6492      0.00000
    141       3.6929      0.00000
    142       3.7646      0.00000
    143       3.7944      0.00000
    144       3.8943      0.00000
    145       3.9566      0.00000
    146       4.1349      0.00000
    147       4.2754      0.00000
    148       4.4075      0.00000
    149       4.5993      0.00000
    150       4.6155      0.00000
    151       4.7182      0.00000
    152       4.7579      0.00000
    153       5.0159      0.00000
    154       5.2323      0.00000
    155       5.3333      0.00000
    156       5.4790      0.00000
    157       5.9388      0.00000
    158       6.0530      0.00000
    159       6.4942      0.00000
    160       6.8708      0.00000

 k-point     3 :       0.2500   -0.2500    0.2500
  band No.  band energies     occupation 
      1     -36.2434      1.00000
      2     -36.1922      1.00000
      3     -36.1012      1.00000
      4     -36.0923      1.00000
      5     -36.0501      1.00000
      6     -35.9759      1.00000
      7     -35.1178      1.00000
      8     -35.0846      1.00000
      9     -35.0567      1.00000
     10     -35.0200      1.00000
     11     -35.0095      1.00000
     12     -34.9596      1.00000
     13     -34.8536      1.00000
     14     -34.6277      1.00000
     15     -34.5723      1.00000
     16     -34.1357      1.00000
     17     -34.1266      1.00000
     18     -33.9701      1.00000
     19     -33.8553      1.00000
     20     -33.7336      1.00000
     21     -33.5978      1.00000
     22     -33.3798      1.00000
     23     -33.3796      1.00000
     24     -33.3378      1.00000
     25     -24.0584      1.00000
     26     -23.8674      1.00000
     27     -23.7381      1.00000
     28     -23.6160      1.00000
     29     -23.5785      1.00000
     30     -23.4412      1.00000
     31     -23.4310      1.00000
     32     -23.3410      1.00000
     33     -23.1317      1.00000
     34     -23.0151      1.00000
     35     -22.8289      1.00000
     36     -22.7392      1.00000
     37     -22.5515      1.00000
     38     -22.5463      1.00000
     39     -22.5139      1.00000
     40     -22.2245      1.00000
     41     -17.8397      1.00000
     42     -16.6619      1.00000
     43     -16.4338      1.00000
     44     -15.8091      1.00000
     45     -15.5758      1.00000
     46     -15.1159      1.00000
     47     -14.8595      1.00000
     48     -14.5890      1.00000
     49      -7.5496      1.00000
     50      -7.3855      1.00000
     51      -7.2561      1.00000
     52      -7.1614      1.00000
     53      -6.8526      1.00000
     54      -6.6343      1.00000
     55      -6.4602      1.00000
     56      -6.3349      1.00000
     57      -6.2796      1.00000
     58      -6.2077      1.00000
     59      -6.0642      1.00000
     60      -6.0541      1.00000
     61      -6.0335      1.00000
     62      -5.9798      1.00000
     63      -5.9037      1.00000
     64      -5.7873      1.00000
     65      -5.7079      1.00000
     66      -5.5814      1.00000
     67      -5.3788      1.00000
     68      -5.3526      1.00000
     69      -5.3049      1.00000
     70      -5.2050      1.00000
     71      -5.1657      1.00000
     72      -5.0880      1.00000
     73      -5.0532      1.00000
     74      -5.0033      1.00000
     75      -4.9277      1.00000
     76      -4.8814      1.00000
     77      -4.7648      1.00000
     78      -4.5991      1.00000
     79      -4.5883      1.00000
     80      -4.5021      1.00000
     81      -4.4840      1.00000
     82      -4.4466      1.00000
     83      -4.4023      1.00000
     84      -4.3091      1.00000
     85      -4.2124      1.00000
     86      -4.2086      1.00000
     87      -4.1353      1.00000
     88      -4.0837      1.00000
     89      -4.0667      1.00000
     90      -4.0056      1.00000
     91      -3.8955      1.00000
     92      -3.8509      1.00000
     93      -3.7464      1.00000
     94      -3.7011      1.00000
     95      -3.6778      1.00000
     96      -3.5764      1.00000
     97      -3.5514      1.00000
     98      -3.5288      1.00000
     99      -3.4287      1.00000
    100      -3.3743      1.00000
    101      -3.0576      1.00000
    102      -2.9823      1.00000
    103      -2.9505      1.00000
    104      -2.3591      1.00000
    105      -2.2907      1.00000
    106      -2.0299      1.00000
    107      -1.7232      1.00000
    108      -1.4895      1.00000
    109      -1.4577      1.00000
    110      -1.3237      1.00000
    111      -1.2405      1.00000
    112      -1.0948      1.00000
    113      -1.0664      1.00000
    114      -0.7706      1.00000
    115      -0.6412      1.00000
    116      -0.4392      1.00000
    117      -0.3111      1.00000
    118      -0.0643      1.00000
    119       0.0504      1.00000
    120       0.5439      1.00000
    121       1.3022      0.00000
    122       1.3293      0.00000
    123       1.4922      0.00000
    124       1.7603      0.00000
    125       2.3826      0.00000
    126       2.4524      0.00000
    127       2.4777      0.00000
    128       2.4997      0.00000
    129       2.5410      0.00000
    130       2.5778      0.00000
    131       2.5887      0.00000
    132       2.7005      0.00000
    133       2.8217      0.00000
    134       2.8454      0.00000
    135       2.9476      0.00000
    136       3.1224      0.00000
    137       3.4541      0.00000
    138       3.4819      0.00000
    139       3.5440      0.00000
    140       3.6492      0.00000
    141       3.6930      0.00000
    142       3.7646      0.00000
    143       3.7943      0.00000
    144       3.8942      0.00000
    145       3.9566      0.00000
    146       4.1349      0.00000
    147       4.2753      0.00000
    148       4.4075      0.00000
    149       4.5994      0.00000
    150       4.6155      0.00000
    151       4.7182      0.00000
    152       4.7579      0.00000
    153       5.0160      0.00000
    154       5.2323      0.00000
    155       5.3333      0.00000
    156       5.4790      0.00000
    157       5.9388      0.00000
    158       6.0530      0.00000
    159       6.4942      0.00000
    160       6.8708      0.00000

 k-point     4 :      -0.2500   -0.2500    0.2500
  band No.  band energies     occupation 
      1     -36.2434      1.00000
      2     -36.1922      1.00000
      3     -36.1012      1.00000
      4     -36.0923      1.00000
      5     -36.0501      1.00000
      6     -35.9759      1.00000
      7     -35.1178      1.00000
      8     -35.0846      1.00000
      9     -35.0567      1.00000
     10     -35.0200      1.00000
     11     -35.0095      1.00000
     12     -34.9596      1.00000
     13     -34.8536      1.00000
     14     -34.6277      1.00000
     15     -34.5723      1.00000
     16     -34.1357      1.00000
     17     -34.1266      1.00000
     18     -33.9701      1.00000
     19     -33.8553      1.00000
     20     -33.7336      1.00000
     21     -33.5978      1.00000
     22     -33.3798      1.00000
     23     -33.3796      1.00000
     24     -33.3378      1.00000
     25     -24.0584      1.00000
     26     -23.8674      1.00000
     27     -23.7381      1.00000
     28     -23.6160      1.00000
     29     -23.5785      1.00000
     30     -23.4412      1.00000
     31     -23.4310      1.00000
     32     -23.3410      1.00000
     33     -23.1317      1.00000
     34     -23.0151      1.00000
     35     -22.8289      1.00000
     36     -22.7392      1.00000
     37     -22.5515      1.00000
     38     -22.5463      1.00000
     39     -22.5139      1.00000
     40     -22.2245      1.00000
     41     -17.8397      1.00000
     42     -16.6619      1.00000
     43     -16.4338      1.00000
     44     -15.8091      1.00000
     45     -15.5758      1.00000
     46     -15.1159      1.00000
     47     -14.8595      1.00000
     48     -14.5890      1.00000
     49      -7.5496      1.00000
     50      -7.3855      1.00000
     51      -7.2561      1.00000
     52      -7.1614      1.00000
     53      -6.8526      1.00000
     54      -6.6343      1.00000
     55      -6.4602      1.00000
     56      -6.3349      1.00000
     57      -6.2796      1.00000
     58      -6.2077      1.00000
     59      -6.0642      1.00000
     60      -6.0541      1.00000
     61      -6.0335      1.00000
     62      -5.9798      1.00000
     63      -5.9037      1.00000
     64      -5.7873      1.00000
     65      -5.7079      1.00000
     66      -5.5814      1.00000
     67      -5.3788      1.00000
     68      -5.3526      1.00000
     69      -5.3049      1.00000
     70      -5.2050      1.00000
     71      -5.1657      1.00000
     72      -5.0880      1.00000
     73      -5.0532      1.00000
     74      -5.0033      1.00000
     75      -4.9277      1.00000
     76      -4.8814      1.00000
     77      -4.7648      1.00000
     78      -4.5991      1.00000
     79      -4.5883      1.00000
     80      -4.5021      1.00000
     81      -4.4840      1.00000
     82      -4.4466      1.00000
     83      -4.4023      1.00000
     84      -4.3091      1.00000
     85      -4.2124      1.00000
     86      -4.2086      1.00000
     87      -4.1353      1.00000
     88      -4.0837      1.00000
     89      -4.0667      1.00000
     90      -4.0056      1.00000
     91      -3.8955      1.00000
     92      -3.8509      1.00000
     93      -3.7464      1.00000
     94      -3.7011      1.00000
     95      -3.6778      1.00000
     96      -3.5764      1.00000
     97      -3.5514      1.00000
     98      -3.5288      1.00000
     99      -3.4287      1.00000
    100      -3.3743      1.00000
    101      -3.0576      1.00000
    102      -2.9823      1.00000
    103      -2.9505      1.00000
    104      -2.3591      1.00000
    105      -2.2907      1.00000
    106      -2.0299      1.00000
    107      -1.7232      1.00000
    108      -1.4895      1.00000
    109      -1.4577      1.00000
    110      -1.3237      1.00000
    111      -1.2405      1.00000
    112      -1.0948      1.00000
    113      -1.0664      1.00000
    114      -0.7706      1.00000
    115      -0.6412      1.00000
    116      -0.4392      1.00000
    117      -0.3111      1.00000
    118      -0.0643      1.00000
    119       0.0504      1.00000
    120       0.5439      1.00000
    121       1.3022      0.00000
    122       1.3293      0.00000
    123       1.4922      0.00000
    124       1.7603      0.00000
    125       2.3827      0.00000
    126       2.4524      0.00000
    127       2.4777      0.00000
    128       2.4997      0.00000
    129       2.5410      0.00000
    130       2.5778      0.00000
    131       2.5887      0.00000
    132       2.7005      0.00000
    133       2.8217      0.00000
    134       2.8454      0.00000
    135       2.9476      0.00000
    136       3.1224      0.00000
    137       3.4541      0.00000
    138       3.4819      0.00000
    139       3.5440      0.00000
    140       3.6492      0.00000
    141       3.6930      0.00000
    142       3.7646      0.00000
    143       3.7943      0.00000
    144       3.8942      0.00000
    145       3.9566      0.00000
    146       4.1349      0.00000
    147       4.2753      0.00000
    148       4.4075      0.00000
    149       4.5994      0.00000
    150       4.6155      0.00000
    151       4.7182      0.00000
    152       4.7579      0.00000
    153       5.0160      0.00000
    154       5.2323      0.00000
    155       5.3333      0.00000
    156       5.4790      0.00000
    157       5.9388      0.00000
    158       6.0530      0.00000
    159       6.4942      0.00000
    160       6.8708      0.00000

 spin component 2

 k-point     1 :       0.2500    0.2500    0.2500
  band No.  band energies     occupation 
      1     -36.2434      1.00000
      2     -36.1922      1.00000
      3     -36.1012      1.00000
      4     -36.0923      1.00000
      5     -36.0501      1.00000
      6     -35.9759      1.00000
      7     -35.1178      1.00000
      8     -35.0846      1.00000
      9     -35.0567      1.00000
     10     -35.0200      1.00000
     11     -35.0095      1.00000
     12     -34.9596      1.00000
     13     -34.8536      1.00000
     14     -34.6277      1.00000
     15     -34.5723      1.00000
     16     -34.1357      1.00000
     17     -34.1266      1.00000
     18     -33.9701      1.00000
     19     -33.8553      1.00000
     20     -33.7336      1.00000
     21     -33.5978      1.00000
     22     -33.3798      1.00000
     23     -33.3796      1.00000
     24     -33.3378      1.00000
     25     -24.0584      1.00000
     26     -23.8674      1.00000
     27     -23.7381      1.00000
     28     -23.6160      1.00000
     29     -23.5785      1.00000
     30     -23.4412      1.00000
     31     -23.4310      1.00000
     32     -23.3410      1.00000
     33     -23.1317      1.00000
     34     -23.0151      1.00000
     35     -22.8289      1.00000
     36     -22.7392      1.00000
     37     -22.5515      1.00000
     38     -22.5463      1.00000
     39     -22.5139      1.00000
     40     -22.2245      1.00000
     41     -17.8397      1.00000
     42     -16.6619      1.00000
     43     -16.4338      1.00000
     44     -15.8091      1.00000
     45     -15.5758      1.00000
     46     -15.1159      1.00000
     47     -14.8595      1.00000
     48     -14.5890      1.00000
     49      -7.5496      1.00000
     50      -7.3855      1.00000
     51      -7.2561      1.00000
     52      -7.1614      1.00000
     53      -6.8526      1.00000
     54      -6.6343      1.00000
     55      -6.4602      1.00000
     56      -6.3349      1.00000
     57      -6.2796      1.00000
     58      -6.2077      1.00000
     59      -6.0642      1.00000
     60      -6.0541      1.00000
     61      -6.0335      1.00000
     62      -5.9797      1.00000
     63      -5.9037      1.00000
     64      -5.7872      1.00000
     65      -5.7079      1.00000
     66      -5.5814      1.00000
     67      -5.3788      1.00000
     68      -5.3526      1.00000
     69      -5.3048      1.00000
     70      -5.2050      1.00000
     71      -5.1657      1.00000
     72      -5.0880      1.00000
     73      -5.0532      1.00000
     74      -5.0033      1.00000
     75      -4.9277      1.00000
     76      -4.8814      1.00000
     77      -4.7648      1.00000
     78      -4.5991      1.00000
     79      -4.5883      1.00000
     80      -4.5020      1.00000
     81      -4.4840      1.00000
     82      -4.4466      1.00000
     83      -4.4023      1.00000
     84      -4.3092      1.00000
     85      -4.2124      1.00000
     86      -4.2086      1.00000
     87      -4.1353      1.00000
     88      -4.0837      1.00000
     89      -4.0668      1.00000
     90      -4.0056      1.00000
     91      -3.8955      1.00000
     92      -3.8509      1.00000
     93      -3.7464      1.00000
     94      -3.7011      1.00000
     95      -3.6778      1.00000
     96      -3.5764      1.00000
     97      -3.5514      1.00000
     98      -3.5288      1.00000
     99      -3.4286      1.00000
    100      -3.3744      1.00000
    101      -3.0576      1.00000
    102      -2.9823      1.00000
    103      -2.9505      1.00000
    104      -2.3590      1.00000
    105      -2.2907      1.00000
    106      -2.0299      1.00000
    107      -1.7232      1.00000
    108      -1.4895      1.00000
    109      -1.4578      1.00000
    110      -1.3237      1.00000
    111      -1.2405      1.00000
    112      -1.0947      1.00000
    113      -1.0665      1.00000
    114      -0.7706      1.00000
    115      -0.6413      1.00000
    116      -0.4392      1.00000
    117      -0.3110      1.00000
    118      -0.0643      1.00000
    119       0.0504      1.00000
    120       0.5439      1.00000
    121       1.3022      0.00000
    122       1.3293      0.00000
    123       1.4922      0.00000
    124       1.7603      0.00000
    125       2.3826      0.00000
    126       2.4524      0.00000
    127       2.4777      0.00000
    128       2.4997      0.00000
    129       2.5410      0.00000
    130       2.5778      0.00000
    131       2.5887      0.00000
    132       2.7005      0.00000
    133       2.8217      0.00000
    134       2.8454      0.00000
    135       2.9475      0.00000
    136       3.1225      0.00000
    137       3.4541      0.00000
    138       3.4818      0.00000
    139       3.5440      0.00000
    140       3.6492      0.00000
    141       3.6929      0.00000
    142       3.7646      0.00000
    143       3.7944      0.00000
    144       3.8943      0.00000
    145       3.9566      0.00000
    146       4.1349      0.00000
    147       4.2754      0.00000
    148       4.4075      0.00000
    149       4.5993      0.00000
    150       4.6155      0.00000
    151       4.7182      0.00000
    152       4.7579      0.00000
    153       5.0159      0.00000
    154       5.2323      0.00000
    155       5.3333      0.00000
    156       5.4790      0.00000
    157       5.9388      0.00000
    158       6.0530      0.00000
    159       6.4942      0.00000
    160       6.8708      0.00000

 k-point     2 :      -0.2500    0.2500    0.2500
  band No.  band energies     occupation 
      1     -36.2434      1.00000
      2     -36.1922      1.00000
      3     -36.1012      1.00000
      4     -36.0923      1.00000
      5     -36.0501      1.00000
      6     -35.9759      1.00000
      7     -35.1178      1.00000
      8     -35.0846      1.00000
      9     -35.0567      1.00000
     10     -35.0200      1.00000
     11     -35.0095      1.00000
     12     -34.9596      1.00000
     13     -34.8536      1.00000
     14     -34.6277      1.00000
     15     -34.5723      1.00000
     16     -34.1357      1.00000
     17     -34.1266      1.00000
     18     -33.9701      1.00000
     19     -33.8553      1.00000
     20     -33.7336      1.00000
     21     -33.5978      1.00000
     22     -33.3798      1.00000
     23     -33.3796      1.00000
     24     -33.3378      1.00000
     25     -24.0584      1.00000
     26     -23.8674      1.00000
     27     -23.7381      1.00000
     28     -23.6160      1.00000
     29     -23.5785      1.00000
     30     -23.4412      1.00000
     31     -23.4310      1.00000
     32     -23.3410      1.00000
     33     -23.1317      1.00000
     34     -23.0151      1.00000
     35     -22.8289      1.00000
     36     -22.7392      1.00000
     37     -22.5515      1.00000
     38     -22.5463      1.00000
     39     -22.5139      1.00000
     40     -22.2245      1.00000
     41     -17.8397      1.00000
     42     -16.6619      1.00000
     43     -16.4338      1.00000
     44     -15.8091      1.00000
     45     -15.5758      1.00000
     46     -15.1159      1.00000
     47     -14.8595      1.00000
     48     -14.5890      1.00000
     49      -7.5496      1.00000
     50      -7.3855      1.00000
     51      -7.2561      1.00000
     52      -7.1614      1.00000
     53      -6.8526      1.00000
     54      -6.6343      1.00000
     55      -6.4602      1.00000
     56      -6.3349      1.00000
     57      -6.2796      1.00000
     58      -6.2077      1.00000
     59      -6.0642      1.00000
     60      -6.0541      1.00000
     61      -6.0335      1.00000
     62      -5.9797      1.00000
     63      -5.9037      1.00000
     64      -5.7872      1.00000
     65      -5.7079      1.00000
     66      -5.5814      1.00000
     67      -5.3788      1.00000
     68      -5.3526      1.00000
     69      -5.3048      1.00000
     70      -5.2050      1.00000
     71      -5.1657      1.00000
     72      -5.0880      1.00000
     73      -5.0532      1.00000
     74      -5.0033      1.00000
     75      -4.9277      1.00000
     76      -4.8814      1.00000
     77      -4.7648      1.00000
     78      -4.5991      1.00000
     79      -4.5883      1.00000
     80      -4.5020      1.00000
     81      -4.4840      1.00000
     82      -4.4466      1.00000
     83      -4.4023      1.00000
     84      -4.3092      1.00000
     85      -4.2124      1.00000
     86      -4.2086      1.00000
     87      -4.1353      1.00000
     88      -4.0837      1.00000
     89      -4.0667      1.00000
     90      -4.0056      1.00000
     91      -3.8955      1.00000
     92      -3.8509      1.00000
     93      -3.7464      1.00000
     94      -3.7011      1.00000
     95      -3.6778      1.00000
     96      -3.5764      1.00000
     97      -3.5514      1.00000
     98      -3.5288      1.00000
     99      -3.4286      1.00000
    100      -3.3744      1.00000
    101      -3.0576      1.00000
    102      -2.9823      1.00000
    103      -2.9505      1.00000
    104      -2.3590      1.00000
    105      -2.2907      1.00000
    106      -2.0299      1.00000
    107      -1.7232      1.00000
    108      -1.4895      1.00000
    109      -1.4578      1.00000
    110      -1.3237      1.00000
    111      -1.2405      1.00000
    112      -1.0947      1.00000
    113      -1.0665      1.00000
    114      -0.7706      1.00000
    115      -0.6413      1.00000
    116      -0.4392      1.00000
    117      -0.3110      1.00000
    118      -0.0643      1.00000
    119       0.0504      1.00000
    120       0.5439      1.00000
    121       1.3022      0.00000
    122       1.3293      0.00000
    123       1.4922      0.00000
    124       1.7603      0.00000
    125       2.3826      0.00000
    126       2.4524      0.00000
    127       2.4777      0.00000
    128       2.4997      0.00000
    129       2.5410      0.00000
    130       2.5778      0.00000
    131       2.5887      0.00000
    132       2.7005      0.00000
    133       2.8217      0.00000
    134       2.8454      0.00000
    135       2.9476      0.00000
    136       3.1225      0.00000
    137       3.4541      0.00000
    138       3.4818      0.00000
    139       3.5440      0.00000
    140       3.6492      0.00000
    141       3.6929      0.00000
    142       3.7646      0.00000
    143       3.7944      0.00000
    144       3.8943      0.00000
    145       3.9566      0.00000
    146       4.1349      0.00000
    147       4.2754      0.00000
    148       4.4075      0.00000
    149       4.5993      0.00000
    150       4.6155      0.00000
    151       4.7182      0.00000
    152       4.7579      0.00000
    153       5.0159      0.00000
    154       5.2323      0.00000
    155       5.3333      0.00000
    156       5.4790      0.00000
    157       5.9388      0.00000
    158       6.0530      0.00000
    159       6.4942      0.00000
    160       6.8708      0.00000

 k-point     3 :       0.2500   -0.2500    0.2500
  band No.  band energies     occupation 
      1     -36.2434      1.00000
      2     -36.1922      1.00000
      3     -36.1012      1.00000
      4     -36.0923      1.00000
      5     -36.0501      1.00000
      6     -35.9759      1.00000
      7     -35.1178      1.00000
      8     -35.0846      1.00000
      9     -35.0567      1.00000
     10     -35.0200      1.00000
     11     -35.0095      1.00000
     12     -34.9596      1.00000
     13     -34.8536      1.00000
     14     -34.6277      1.00000
     15     -34.5723      1.00000
     16     -34.1357      1.00000
     17     -34.1266      1.00000
     18     -33.9701      1.00000
     19     -33.8553      1.00000
     20     -33.7336      1.00000
     21     -33.5978      1.00000
     22     -33.3798      1.00000
     23     -33.3796      1.00000
     24     -33.3378      1.00000
     25     -24.0584      1.00000
     26     -23.8674      1.00000
     27     -23.7381      1.00000
     28     -23.6160      1.00000
     29     -23.5785      1.00000
     30     -23.4412      1.00000
     31     -23.4310      1.00000
     32     -23.3410      1.00000
     33     -23.1317      1.00000
     34     -23.0151      1.00000
     35     -22.8289      1.00000
     36     -22.7392      1.00000
     37     -22.5515      1.00000
     38     -22.5463      1.00000
     39     -22.5139      1.00000
     40     -22.2245      1.00000
     41     -17.8397      1.00000
     42     -16.6619      1.00000
     43     -16.4338      1.00000
     44     -15.8091      1.00000
     45     -15.5758      1.00000
     46     -15.1159      1.00000
     47     -14.8595      1.00000
     48     -14.5890      1.00000
     49      -7.5496      1.00000
     50      -7.3855      1.00000
     51      -7.2561      1.00000
     52      -7.1614      1.00000
     53      -6.8526      1.00000
     54      -6.6343      1.00000
     55      -6.4602      1.00000
     56      -6.3349      1.00000
     57      -6.2796      1.00000
     58      -6.2077      1.00000
     59      -6.0642      1.00000
     60      -6.0541      1.00000
     61      -6.0335      1.00000
     62      -5.9798      1.00000
     63      -5.9037      1.00000
     64      -5.7873      1.00000
     65      -5.7079      1.00000
     66      -5.5814      1.00000
     67      -5.3788      1.00000
     68      -5.3526      1.00000
     69      -5.3049      1.00000
     70      -5.2050      1.00000
     71      -5.1657      1.00000
     72      -5.0880      1.00000
     73      -5.0532      1.00000
     74      -5.0033      1.00000
     75      -4.9277      1.00000
     76      -4.8814      1.00000
     77      -4.7648      1.00000
     78      -4.5991      1.00000
     79      -4.5883      1.00000
     80      -4.5021      1.00000
     81      -4.4840      1.00000
     82      -4.4466      1.00000
     83      -4.4023      1.00000
     84      -4.3091      1.00000
     85      -4.2124      1.00000
     86      -4.2086      1.00000
     87      -4.1353      1.00000
     88      -4.0837      1.00000
     89      -4.0667      1.00000
     90      -4.0056      1.00000
     91      -3.8955      1.00000
     92      -3.8509      1.00000
     93      -3.7464      1.00000
     94      -3.7011      1.00000
     95      -3.6778      1.00000
     96      -3.5764      1.00000
     97      -3.5514      1.00000
     98      -3.5288      1.00000
     99      -3.4287      1.00000
    100      -3.3743      1.00000
    101      -3.0576      1.00000
    102      -2.9823      1.00000
    103      -2.9505      1.00000
    104      -2.3591      1.00000
    105      -2.2907      1.00000
    106      -2.0299      1.00000
    107      -1.7232      1.00000
    108      -1.4895      1.00000
    109      -1.4577      1.00000
    110      -1.3237      1.00000
    111      -1.2405      1.00000
    112      -1.0948      1.00000
    113      -1.0664      1.00000
    114      -0.7706      1.00000
    115      -0.6412      1.00000
    116      -0.4392      1.00000
    117      -0.3111      1.00000
    118      -0.0643      1.00000
    119       0.0504      1.00000
    120       0.5439      1.00000
    121       1.3022      0.00000
    122       1.3293      0.00000
    123       1.4922      0.00000
    124       1.7603      0.00000
    125       2.3826      0.00000
    126       2.4524      0.00000
    127       2.4777      0.00000
    128       2.4997      0.00000
    129       2.5410      0.00000
    130       2.5778      0.00000
    131       2.5887      0.00000
    132       2.7005      0.00000
    133       2.8217      0.00000
    134       2.8454      0.00000
    135       2.9476      0.00000
    136       3.1224      0.00000
    137       3.4541      0.00000
    138       3.4819      0.00000
    139       3.5440      0.00000
    140       3.6492      0.00000
    141       3.6930      0.00000
    142       3.7646      0.00000
    143       3.7943      0.00000
    144       3.8942      0.00000
    145       3.9566      0.00000
    146       4.1349      0.00000
    147       4.2753      0.00000
    148       4.4075      0.00000
    149       4.5994      0.00000
    150       4.6155      0.00000
    151       4.7182      0.00000
    152       4.7579      0.00000
    153       5.0160      0.00000
    154       5.2323      0.00000
    155       5.3333      0.00000
    156       5.4790      0.00000
    157       5.9388      0.00000
    158       6.0530      0.00000
    159       6.4942      0.00000
    160       6.8708      0.00000

 k-point     4 :      -0.2500   -0.2500    0.2500
  band No.  band energies     occupation 
      1     -36.2434      1.00000
      2     -36.1922      1.00000
      3     -36.1012      1.00000
      4     -36.0923      1.00000
      5     -36.0501      1.00000
      6     -35.9759      1.00000
      7     -35.1178      1.00000
      8     -35.0846      1.00000
      9     -35.0567      1.00000
     10     -35.0200      1.00000
     11     -35.0095      1.00000
     12     -34.9596      1.00000
     13     -34.8536      1.00000
     14     -34.6277      1.00000
     15     -34.5723      1.00000
     16     -34.1357      1.00000
     17     -34.1266      1.00000
     18     -33.9701      1.00000
     19     -33.8553      1.00000
     20     -33.7336      1.00000
     21     -33.5978      1.00000
     22     -33.3798      1.00000
     23     -33.3796      1.00000
     24     -33.3378      1.00000
     25     -24.0584      1.00000
     26     -23.8674      1.00000
     27     -23.7381      1.00000
     28     -23.6160      1.00000
     29     -23.5785      1.00000
     30     -23.4412      1.00000
     31     -23.4310      1.00000
     32     -23.3410      1.00000
     33     -23.1317      1.00000
     34     -23.0151      1.00000
     35     -22.8289      1.00000
     36     -22.7392      1.00000
     37     -22.5515      1.00000
     38     -22.5463      1.00000
     39     -22.5139      1.00000
     40     -22.2245      1.00000
     41     -17.8397      1.00000
     42     -16.6619      1.00000
     43     -16.4338      1.00000
     44     -15.8091      1.00000
     45     -15.5758      1.00000
     46     -15.1159      1.00000
     47     -14.8595      1.00000
     48     -14.5890      1.00000
     49      -7.5496      1.00000
     50      -7.3855      1.00000
     51      -7.2561      1.00000
     52      -7.1614      1.00000
     53      -6.8526      1.00000
     54      -6.6343      1.00000
     55      -6.4602      1.00000
     56      -6.3349      1.00000
     57      -6.2796      1.00000
     58      -6.2077      1.00000
[...]
 -0.000  -0.000  -0.000   0.000  -0.000  -0.000  -0.000  -0.000   0.000  -0.000  -0.000   0.000  -0.000  -0.000   0.000   0.000
  0.000   0.000   0.000   0.000   0.000   0.000   0.000  -0.000   0.000  -0.000   0.000  -0.000   0.000  -0.000   0.000  -0.000
  0.000  -0.000  -0.000  -0.000   0.000   0.000   0.000   0.000   0.000   0.000  -0.000  -0.000  -0.000  -0.000  -0.000   0.000
 -0.000   0.000   0.000  -0.000  -0.000  -0.000  -0.000  -0.000   0.000  -0.000   0.000  -0.000   0.000  -0.000  -0.000  -0.000
  0.000   0.000  -0.000   0.000  -0.000   0.000   0.000   0.000   0.000  -0.000  -0.000  -0.000  -0.000  -0.000   0.000  -0.000
 -0.000   0.000   0.000  -0.000   0.000  -0.000  -0.000   0.000  -0.000   0.000   0.000  -0.000  -0.000   0.000  -0.000  -0.000
 -0.000  -0.000  -0.000  -0.000   0.000  -0.000  -0.000   0.000   0.000   0.000  -0.000   0.000  -0.000  -0.000  -0.000   0.000
 -0.000  -0.000  -0.000  -0.000   0.000   0.000   0.000  -0.000  -0.000   0.000   0.000  -0.000   0.000   0.000  -0.000  -0.000
 -0.000  -0.000  -0.000  -0.000  -0.000   0.000   0.000   0.000  -0.000   0.000   0.000  -0.000  -0.000   0.000  -0.000  -0.000


------------------------ aborting loop because EDIFF is reached ----------------------------------------


 


 total charge     
 
# of ion       s       p       d       tot
------------------------------------------
    1        0.323   6.490   1.756   8.569
    2        0.326   6.497   1.742   8.565
    3        0.302   6.463   1.726   8.491
    4        0.304   6.462   1.712   8.479
    5        0.314   6.488   1.852   8.655
    6        0.297   6.451   1.761   8.509
    7        0.296   6.468   1.778   8.542
    8        0.294   6.419   1.653   8.366
    9        1.564   3.407   0.000   4.971
   10        1.564   3.407   0.000   4.971
   11        1.574   3.483   0.000   5.057
   12        1.568   3.440   0.000   5.009
   13        1.567   3.438   0.000   5.005
   14        1.577   3.472   0.000   5.049
   15        1.569   3.442   0.000   5.011
   16        1.569   3.436   0.000   5.005
   17        1.729   4.379   0.000   6.108
   18        1.731   4.374   0.000   6.105
   19        1.729   4.382   0.000   6.111
   20        1.730   4.377   0.000   6.107
   21        1.729   4.379   0.000   6.108
   22        1.731   4.374   0.000   6.105
   23        1.729   4.382   0.000   6.111
   24        1.730   4.377   0.000   6.107
   25        1.731   4.389   0.000   6.121
   26        1.731   4.389   0.000   6.120
   27        1.731   4.389   0.000   6.121
   28        1.731   4.389   0.000   6.120
   29        1.731   4.393   0.000   6.123
   30        1.731   4.393   0.000   6.123
   31        1.732   4.390   0.000   6.122
   32        1.733   4.396   0.000   6.128
--------------------------------------------------
tot         42.698 149.414  13.981 206.093
 


 magnetization (x)
 
# of ion       s       p       d       tot
------------------------------------------
    1       -0.000   0.000  -0.000  -0.000
    2        0.000   0.000   0.000   0.000
    3        0.000  -0.000  -0.000  -0.000
    4        0.000  -0.000  -0.000  -0.000
    5       -0.000  -0.000  -0.000  -0.000
    6       -0.000  -0.000   0.000  -0.000
    7       -0.000  -0.000   0.000  -0.000
    8        0.000  -0.000   0.000   0.000
    9       -0.000  -0.000   0.000  -0.000
   10        0.000  -0.000   0.000   0.000
   11       -0.000   0.000   0.000  -0.000
   12       -0.000   0.000   0.000   0.000
   13        0.000   0.000   0.000   0.000
   14       -0.000   0.000   0.000   0.000
   15       -0.000  -0.000   0.000  -0.000
   16       -0.000   0.000   0.000  -0.000
   17        0.000  -0.000   0.000  -0.000
   18        0.000   0.000   0.000   0.000
   19       -0.000  -0.000   0.000  -0.000
   20       -0.000   0.000   0.000   0.000
   21        0.000   0.000   0.000   0.000
   22        0.000   0.000   0.000   0.000
   23        0.000  -0.000   0.000  -0.000
   24        0.000   0.000   0.000   0.000
   25        0.000   0.000   0.000   0.000
   26       -0.000   0.000   0.000   0.000
   27       -0.000   0.000   0.000   0.000
   28        0.000   0.000   0.000   0.000
   29        0.000   0.000   0.000   0.000
   30       -0.000   0.000   0.000  -0.000
   31        0.000   0.000   0.000   0.000
   32       -0.000  -0.000   0.000  -0.000
--------------------------------------------------
tot         -0.000   0.000  -0.000   0.000
 
    CHARGE:  cpu time    0.3969: real time    0.3942
    FORLOC:  cpu time    0.0100: real time    0.0104
    FORNL :  cpu time    2.0997: real time    2.0912
    STRESS:  cpu time    6.5320: real time    6.5015
    FORCOR:  cpu time    0.1280: real time    0.1292
    FORHAR:  cpu time    0.0220: real time    0.0212
    MIXING:  cpu time    0.0010: real time    0.0016
    OFIELD:  cpu time    0.0000: real time    0.0000

  FORCE on cell =-STRESS in cart. coord.  units (eV):
  Direction    XX          YY          ZZ          XY          YZ          ZX
  --------------------------------------------------------------------------------------
  Alpha Z   755.34177   755.34177   755.34177
  Ewald   -4380.84369 -4233.14725 -4116.75887    -0.00303    -0.06442     0.00671
  Hartree  2681.24148  2775.07864  2832.68906    -0.00149    -0.03564     0.00369
  E(xc)   -1231.57084 -1231.72263 -1232.24107    -0.00000    -0.00001     0.00000
  Local   -1936.35188 -2206.95177 -2440.34432     0.00447     0.09912    -0.01029
  n-local  -974.08812  -968.27502  -958.49531    -0.00004    -0.00058     0.00005
  augment   743.13497   753.25977   773.99719     0.00000    -0.00015    -0.00000
  Kinetic  4343.13868  4356.39980  4385.89506     0.00014     0.00414    -0.00032
  Fock        0.00000     0.00000     0.00000     0.00000     0.00000     0.00000
  -------------------------------------------------------------------------------------
  Total       0.00236    -0.01669     0.08351     0.00005     0.00247    -0.00015
  in kB       0.00817    -0.05769     0.28863     0.00016     0.00853    -0.00053
  external pressure =        0.08 kB  Pullay stress =        0.00 kB


 VOLUME and BASIS-vectors are now :
 -----------------------------------------------------------------------------
  energy-cutoff  :      700.00
  volume of cell :      463.59
      direct lattice vectors                 reciprocal lattice vectors
     7.913760404 -0.000001618  0.000005631     0.126362178  0.000000032 -0.000000085
    -0.000001977  7.766223387 -0.000068825     0.000000026  0.128762714  0.000001145
     0.000005080 -0.000067101  7.542890889    -0.000000094  0.000001175  0.132575164

  length of vectors
     7.913760404  7.766223387  7.542890889     0.126362178  0.128762714  0.132575164


 FORCES acting on ions
    electron-ion (+dipol)            ewald-force                    non-local-force                 convergence-correction
 -----------------------------------------------------------------------------------------------
   -.901E-03 -.477E-02 0.355E+02   0.882E-03 0.464E-02 -.359E+02   0.177E-04 -.327E-04 0.334E+00   0.128E-06 0.155E-03 0.321E-05
   0.488E-02 -.379E-01 -.402E+02   -.483E-02 0.372E-01 0.408E+02   -.470E-04 0.315E-03 -.561E+00   0.764E-06 0.209E-03 -.328E-04
   -.125E-02 0.589E-02 0.175E+02   0.124E-02 -.574E-02 -.175E+02   0.145E-04 0.119E-04 -.779E-02   -.246E-06 -.156E-03 -.233E-03
   0.312E-03 0.175E-01 -.172E+02   -.322E-03 -.173E-01 0.171E+02   0.200E-05 -.116E-03 0.289E-01   0.190E-06 -.237E-03 -.552E-04
   0.147E-02 -.343E-01 0.302E+02   -.145E-02 0.337E-01 -.297E+02   -.214E-04 0.222E-03 -.525E+00   0.194E-06 0.234E-03 -.642E-03
   0.322E-02 0.694E-01 -.362E+02   -.312E-02 -.689E-01 0.371E+02   -.907E-04 0.125E-02 -.959E+00   -.509E-06 0.333E-03 0.516E-03
   0.191E-05 0.263E-02 0.139E+02   -.263E-05 -.272E-02 -.138E+02   0.241E-05 0.167E-03 -.137E+00   0.496E-06 -.268E-03 -.258E-03
   -.154E-02 0.171E+00 -.206E+02   0.151E-02 -.165E+00 0.204E+02   0.287E-04 -.407E-02 0.132E+00   -.151E-06 -.744E-03 0.245E-03
   -.118E-02 -.500E+02 -.105E+02   0.122E-02 0.525E+02 0.104E+02   -.420E-04 -.250E+01 0.108E+00   -.485E-06 0.745E-03 0.245E-03
   0.721E-03 0.495E+02 -.105E+02   -.710E-03 -.520E+02 0.104E+02   -.295E-04 0.245E+01 0.108E+00   -.192E-06 0.749E-03 0.255E-03
   0.617E-02 -.806E-02 0.152E+02   -.675E-02 0.787E-02 -.166E+02   0.605E-03 0.540E-04 0.144E+01   -.505E-07 0.123E-03 -.677E-03
   -.147E-02 0.876E-02 -.931E+01   0.151E-02 -.875E-02 0.983E+01   -.245E-04 0.127E-03 -.522E+00   0.255E-06 -.134E-03 0.676E-03
   0.158E-02 0.421E-02 0.773E+01   -.167E-02 -.400E-02 -.803E+01   0.917E-04 -.914E-04 0.299E+00   -.111E-06 -.133E-03 0.358E-03
   -.346E-02 0.283E-01 0.853E+02   0.382E-02 -.332E-01 -.930E+02   -.362E-03 0.492E-02 0.770E+01   0.962E-07 0.228E-03 -.287E-03
   0.116E-02 0.641E-01 -.436E+02   -.122E-02 -.673E-01 0.448E+02   0.554E-04 0.356E-02 -.122E+01   0.459E-08 -.296E-03 0.157E-03
   -.158E-02 0.641E-01 0.621E+02   0.163E-02 -.676E-01 -.656E+02   -.490E-04 0.384E-02 0.354E+01   0.542E-06 -.278E-03 -.246E-03
   -.390E+02 -.112E-01 -.983E+00   0.435E+02 0.113E-01 0.457E+01   -.454E+01 -.235E-03 -.359E+01   -.169E-03 0.163E-03 0.230E-04
   -.894E+02 0.128E-01 -.347E+01   0.986E+02 -.180E-01 0.114E+01   -.921E+01 0.507E-02 0.232E+01   -.205E-03 0.255E-03 0.260E-03
   -.313E+02 0.340E-02 0.839E+01   0.350E+02 -.306E-02 -.833E+01   -.374E+01 -.139E-03 -.574E-01   -.481E-04 -.171E-03 -.207E-03
   -.660E+02 0.546E-01 -.102E+02   0.720E+02 -.589E-01 0.104E+02   -.609E+01 0.458E-02 -.258E+00   -.125E-04 -.343E-03 0.872E-04
   0.390E+02 -.137E-01 -.992E+00   -.435E+02 0.140E-01 0.458E+01   0.455E+01 -.559E-03 -.359E+01   0.169E-03 0.163E-03 0.225E-04
   0.894E+02 0.147E-01 -.347E+01   -.986E+02 -.200E-01 0.114E+01   0.921E+01 0.511E-02 0.232E+01   0.203E-03 0.254E-03 0.264E-03
   0.313E+02 0.398E-02 0.839E+01   -.350E+02 -.349E-02 -.833E+01   0.374E+01 -.273E-03 -.577E-01   0.478E-04 -.168E-03 -.205E-03
   0.660E+02 0.512E-01 -.102E+02   -.720E+02 -.549E-01 0.104E+02   0.609E+01 0.395E-02 -.257E+00   0.128E-04 -.342E-03 0.871E-04
   -.961E-03 -.503E+02 0.109E+01   0.102E-02 0.555E+02 0.137E+01   -.533E-04 -.516E+01 -.247E+01   0.225E-06 0.218E-04 0.212E-04
   0.134E-02 -.490E+02 -.396E+01   -.127E-02 0.537E+02 0.204E+01   -.844E-04 -.475E+01 0.192E+01   0.724E-06 -.306E-03 0.304E-04
   -.147E-03 0.503E+02 0.109E+01   0.115E-03 -.555E+02 0.138E+01   0.334E-04 0.516E+01 -.247E+01   -.437E-06 -.126E-04 0.152E-04
   -.327E-02 0.490E+02 -.395E+01   0.388E-02 -.538E+02 0.203E+01   -.646E-03 0.475E+01 0.192E+01   0.782E-06 0.387E-03 0.227E-04
   0.911E-03 -.441E+02 -.388E+01   -.100E-02 0.486E+02 0.748E+01   0.916E-04 -.442E+01 -.360E+01   -.465E-07 0.230E-03 -.202E-03
   -.444E-03 0.442E+02 -.387E+01   0.601E-03 -.486E+02 0.747E+01   -.169E-03 0.442E+01 -.360E+01   0.327E-05 -.633E-04 -.253E-03
   -.481E-02 -.161E-01 -.415E+01   0.546E-02 0.164E-01 0.417E+01   -.675E-03 -.373E-03 -.204E-01   0.468E-06 0.148E-03 0.642E-03
   0.392E-02 0.233E-01 -.460E+02   -.407E-02 -.300E-01 0.476E+02   0.128E-03 0.614E-02 -.161E+01   -.174E-05 0.380E-03 0.572E-03
 -----------------------------------------------------------------------------------------------
   0.981E-03 0.209E-01 0.333E+01   -.119E-12 -.621E-13 -.213E-13   -.977E-03 -.224E-01 -.333E+01   0.280E-05 0.112E-02 0.121E-02
 
 
 POSITION                                       TOTAL-FORCE (eV/Angst)
 -----------------------------------------------------------------------------------
      7.91376     -0.00004      7.44796        -0.000002     -0.000003      0.000709
      7.91375     -0.00001      3.83714         0.000001     -0.000148     -0.007999
      0.00000      3.88314      0.01147        -0.000004      0.000018      0.005799
      0.00001      3.88311      3.77706        -0.000009     -0.000065      0.005154
      3.95688      7.76615      7.41978         0.000002     -0.000164     -0.007473
      3.95687      0.00017      3.78397         0.000009      0.002156      0.000108
      3.95689      3.88303      7.54126         0.000002     -0.000184      0.002048
      3.95689      3.88351      3.75761         0.000001      0.002040      0.003482
      3.95688      1.88036      3.76340        -0.000003     -0.000548      0.000322
      3.95688      5.88542      3.76335        -0.000018     -0.002303      0.000475
      7.91373     -0.00002      5.66390         0.000028      0.000003     -0.002078
      0.00001      3.88312      1.88347         0.000011      0.000013      0.000341
      7.91376      3.88310      5.67265         0.000001      0.000004      0.000449
      3.95690      7.76603      5.70657         0.000000      0.000258      0.005080
      3.95688      3.88300      1.85002        -0.000004      0.000054      0.000964
      3.95689      3.88294      5.71805         0.000005      0.000116      0.002270
      1.93436      0.00003      0.04541        -0.000728      0.000001     -0.004088
      1.88843      7.76609      3.70871        -0.001019      0.000109     -0.004696
      1.94251      3.88314      0.00690        -0.000216      0.000041      0.003193
      1.92143      3.88306      3.78077        -0.000635     -0.000086      0.003448
      5.97940      0.00004      0.04546         0.000729     -0.000015     -0.004097
      6.02531      7.76608      3.70869         0.001135      0.000085     -0.004734
      5.97126      3.88314      0.00692         0.000206      0.000057      0.003219
      5.99235      3.88309      3.78076         0.000613     -0.000115      0.003472
      0.00000      1.89396      0.04461         0.000005     -0.000574     -0.000617
      7.91376      1.89926      3.73718        -0.000017      0.000094      0.000152
      7.91376      5.87232      0.04460         0.000000      0.000600     -0.000601
      0.00002      5.86693      3.73711        -0.000033     -0.000343      0.000195
      3.95688      1.89945      0.06117        -0.000001     -0.000905      0.000234
      3.95689      5.86676      0.06110        -0.000009     -0.000043      0.000384
      0.00002      0.00003      1.87125        -0.000025      0.000009     -0.003357
      3.95686      7.76604      1.81834        -0.000026     -0.000164     -0.001759
 -----------------------------------------------------------------------------------
    total drift:                                0.000007     -0.000320     -0.000929


--------------------------------------------------------------------------------------------------------



  FREE ENERGIE OF THE ION-ELECTRON SYSTEM (eV)
  ---------------------------------------------------
  free  energy   TOTEN  =      -210.40454793 eV

  energy  without entropy=     -210.40454793  energy(sigma->0) =     -210.40454793
 


--------------------------------------------------------------------------------------------------------


    POTLOK:  cpu time    1.0018: real time    0.9998


--------------------------------------------------------------------------------------------------------


 stress matrix after NEB project (eV)
      0.00236      0.00005     -0.00015
      0.00005     -0.01669      0.00247
     -0.00015      0.00247      0.08351
  FORCES: max atom, RMS     0.008001    0.003500
  FORCE total and by dimension    0.019801    0.007999
  Stress total and by dimension    0.085271    0.083515
 Quasi-Newton relaxation of ions (Broydens 2nd method)
  g(Force)  = 0.189E-04   g(Stress)= 0.110E-04

 Reset! Starting new Quasi-Newton update for ions 


--------------------------------------------------------------------------------------------------------


  
 reached required accuracy - stopping structural energy minimisation
 writing wavefunctions
     LOOP+:  cpu time   39.0631: real time   39.3647
    4ORBIT:  cpu time    0.0000: real time    0.0000
 


 total charge     
 
# of ion       s       p       d       tot
------------------------------------------
    1        0.323   6.490   1.756   8.569
    2        0.326   6.497   1.742   8.565
    3        0.302   6.463   1.726   8.491
    4        0.304   6.462   1.712   8.479
    5        0.314   6.488   1.852   8.655
    6        0.297   6.451   1.761   8.509
    7        0.296   6.468   1.778   8.542
    8        0.294   6.419   1.653   8.366
    9        1.564   3.407   0.000   4.971
   10        1.564   3.407   0.000   4.971
   11        1.574   3.483   0.000   5.057
   12        1.568   3.440   0.000   5.009
   13        1.567   3.438   0.000   5.005
   14        1.577   3.472   0.000   5.049
   15        1.569   3.442   0.000   5.011
   16        1.569   3.436   0.000   5.005
   17        1.729   4.379   0.000   6.108
   18        1.731   4.374   0.000   6.105
   19        1.729   4.382   0.000   6.111
   20        1.730   4.377   0.000   6.107
   21        1.729   4.379   0.000   6.108
   22        1.731   4.374   0.000   6.105
   23        1.729   4.382   0.000   6.111
   24        1.730   4.377   0.000   6.107
   25        1.731   4.389   0.000   6.121
   26        1.731   4.389   0.000   6.120
   27        1.731   4.389   0.000   6.121
   28        1.731   4.389   0.000   6.120
   29        1.731   4.393   0.000   6.123
   30        1.731   4.393   0.000   6.123
   31        1.732   4.390   0.000   6.122
   32        1.733   4.396   0.000   6.128
--------------------------------------------------
tot         42.698 149.414  13.981 206.093
 


 magnetization (x)
 
# of ion       s       p       d       tot
------------------------------------------
    1       -0.000   0.000  -0.000  -0.000
    2        0.000   0.000   0.000   0.000
    3        0.000  -0.000  -0.000  -0.000
    4        0.000  -0.000  -0.000  -0.000
    5       -0.000  -0.000  -0.000  -0.000
    6       -0.000  -0.000   0.000  -0.000
    7       -0.000  -0.000   0.000  -0.000
    8        0.000  -0.000   0.000   0.000
    9       -0.000  -0.000   0.000  -0.000
   10        0.000  -0.000   0.000   0.000
   11       -0.000   0.000   0.000  -0.000
   12       -0.000   0.000   0.000   0.000
   13        0.000   0.000   0.000   0.000
   14       -0.000   0.000   0.000   0.000
   15       -0.000  -0.000   0.000  -0.000
   16       -0.000   0.000   0.000  -0.000
   17        0.000  -0.000   0.000  -0.000
   18        0.000   0.000   0.000   0.000
   19       -0.000  -0.000   0.000  -0.000
   20       -0.000   0.000   0.000   0.000
   21        0.000   0.000   0.000   0.000
   22        0.000   0.000   0.000   0.000
   23        0.000  -0.000   0.000  -0.000
   24        0.000   0.000   0.000   0.000
   25        0.000   0.000   0.000   0.000
   26       -0.000   0.000   0.000   0.000
   27       -0.000   0.000   0.000   0.000
   28        0.000   0.000   0.000   0.000
   29        0.000   0.000   0.000   0.000
   30       -0.000   0.000   0.000  -0.000
   31        0.000   0.000   0.000   0.000
   32       -0.000  -0.000   0.000  -0.000
--------------------------------------------------
tot         -0.000   0.000  -0.000   0.000
 

 total amount of memory used by VASP MPI-rank0    62268. kBytes
=======================================================================

   base      :      30000. kBytes
   nonlr-proj:       8550. kBytes
   fftplans  :       8422. kBytes
   grid      :       8783. kBytes
   one-center:        124. kBytes
   wavefun   :       6389. kBytes
 
  
  
 General timing and accounting informations for this job:
 ========================================================
  
                  Total CPU time used (sec):       55.532
                            User time (sec):       51.012
                          System time (sec):        4.519
                         Elapsed time (sec):       57.108
  
                   Maximum memory used (kb):      175116.
                   Average memory used (kb):           0.
  
                          Minor page faults:        97665
                          Major page faults:            2
                 Voluntary context switches:        17883
