 vasp.5.4.4.18Apr17-6-g9f103f2a35 (build Jul 16 2019 12:12:28) complex          
  
 executed on             LinuxIFC date 2020.01.06  14:10:56
 running on   96 total cores
 distrk:  each k-point on   96 cores,    1 groups
 distr:  one band on NCORES_PER_BAND=   8 cores,   12 groups


--------------------------------------------------------------------------------------------------------


 INCAR:
 POTCAR:    PAW_PBE Li_sv 10Sep2004               
 POTCAR:    PAW_PBE Ti_pv 07Sep2000               
 POTCAR:    PAW_PBE O 08Apr2002                   
 POTCAR:    PAW_PBE F 08Apr2002                   
 POTCAR:    PAW_PBE Li_sv 10Sep2004               
   VRHFIN =Li: 1s2s2p                                                           
   LEXCH  = PE                                                                  
   EATOM  =   202.7858 eV,   14.9043 Ry                                         
                                                                                
   TITEL  = PAW_PBE Li_sv 10Sep2004                                             
   LULTRA =        F    use ultrasoft PP ?                                      
   IUNSCR =        0    unscreen: 0-lin 1-nonlin 2-no                           
   RPACOR =    0.000    partial core radius                                     
   POMASS =    7.010; ZVAL   =    3.000    mass and valenz                      
   RCORE  =    1.700    outmost cutoff radius                                   
   RWIGS  =    2.050; RWIGS  =    1.085    wigner-seitz radius (au A)           
   ENMAX  =  499.034; ENMIN  =  374.276 eV                                      
   ICORE  =        2    local potential                                         
   LCOR   =        T    correct aug charges                                     
   LPAW   =        T    paw PP                                                  
   EAUG   =  628.945                                                            
   RMAX   =    1.732    core radius for proj-oper                               
   RAUG   =    1.300    factor for augmentation sphere                          
   RDEP   =    1.728    radius for radial grids                                 
   RDEPT  =    1.329    core radius for aug-charge                              
                                                                                
   Atomic configuration                                                         
    4 entries                                                                   
     n  l   j            E        occ.                                          
     1  0  0.50       -51.8549   2.0000                                         
     2  0  0.50        -2.8742   1.0000                                         
     2  1  0.50        -1.3606   0.0000                                         
     3  2  1.50        -1.3606   0.0000                                         
   Description                                                                  
     l       E           TYP  RCUT    TYP  RCUT                                 
     0    -51.8548813     23  1.400                                             
     0     -2.8742052     23  1.700                                             
     1     -1.3605826     23  1.400                                             
     2     -1.3605826     23  1.400                                             
  local pseudopotential read in
  atomic valenz-charges read in
  non local Contribution for L=           0  read in
    real space projection operators read in
  non local Contribution for L=           0  read in
    real space projection operators read in
  non local Contribution for L=           1  read in
    real space projection operators read in
    PAW grid and wavefunctions read in
 
   number of l-projection  operators is LMAX  =           3
   number of lm-projection operators is LMMAX =           5
 
 POTCAR:    PAW_PBE Ti_pv 07Sep2000               
   VRHFIN =Ti: d3 s1                                                            
   LEXCH  = PE                                                                  
   EATOM  =  1042.5995 eV,   76.6289 Ry                                         
                                                                                
   TITEL  = PAW_PBE Ti_pv 07Sep2000                                             
   LULTRA =        F    use ultrasoft PP ?                                      
   IUNSCR =        1    unscreen: 0-lin 1-nonlin 2-no                           
   RPACOR =    2.200    partial core radius                                     
   POMASS =   47.880; ZVAL   =   10.000    mass and valenz                      
   RCORE  =    2.500    outmost cutoff radius                                   
   RWIGS  =    2.500; RWIGS  =    1.323    wigner-seitz radius (au A)           
   ENMAX  =  222.335; ENMIN  =  166.751 eV                                      
   RCLOC  =    1.701    cutoff for local pot                                    
   LCOR   =        T    correct aug charges                                     
   LPAW   =        T    paw PP                                                  
   EAUG   =  482.848                                                            
   DEXC   =    0.000                                                            
   RMAX   =    2.564    core radius for proj-oper                               
   RAUG   =    1.300    factor for augmentation sphere                          
   RDEP   =    2.538    radius for radial grids                                 
   RDEPT  =    1.952    core radius for aug-charge                              
                                                                                
   Atomic configuration                                                         
    8 entries                                                                   
     n  l   j            E        occ.                                          
     1  0  0.50     -4865.3608   2.0000                                         
     2  0  0.50      -533.1368   2.0000                                         
     2  1  1.50      -440.5031   6.0000                                         
     3  0  0.50       -59.3186   2.0000                                         
     3  1  1.50       -35.7012   6.0000                                         
     3  2  2.50        -1.9157   3.0000                                         
     4  0  0.50        -3.7291   1.0000                                         
     4  3  2.50        -1.3606   0.0000                                         
   Description                                                                  
     l       E           TYP  RCUT    TYP  RCUT                                 
     1    -35.7012140     23  2.300                                             
     1     -1.3605826     23  2.300                                             
     2     -1.9156996     23  2.500                                             
     2     -0.4063033     23  2.500                                             
     0     -3.7290856     23  2.500                                             
     0     20.4087390     23  2.500                                             
  local pseudopotential read in
  partial core-charges read in
  partial kinetic energy density read in
  atomic valenz-charges read in
  non local Contribution for L=           1  read in
    real space projection operators read in
  non local Contribution for L=           1  read in
    real space projection operators read in
  non local Contribution for L=           2  read in
    real space projection operators read in
  non local Contribution for L=           2  read in
    real space projection operators read in
  non local Contribution for L=           0  read in
    real space projection operators read in
  non local Contribution for L=           0  read in
    real space projection operators read in
    PAW grid and wavefunctions read in
 
   number of l-projection  operators is LMAX  =           6
   number of lm-projection operators is LMMAX =          18
 
 POTCAR:    PAW_PBE O 08Apr2002                   
   VRHFIN =O: s2p4                                                              
   LEXCH  = PE                                                                  
   EATOM  =   432.3788 eV,   31.7789 Ry                                         
                                                                                
   TITEL  = PAW_PBE O 08Apr2002                                                 
   LULTRA =        F    use ultrasoft PP ?                                      
   IUNSCR =        1    unscreen: 0-lin 1-nonlin 2-no                           
   RPACOR =    1.200    partial core radius                                     
   POMASS =   16.000; ZVAL   =    6.000    mass and valenz                      
   RCORE  =    1.520    outmost cutoff radius                                   
   RWIGS  =    1.550; RWIGS  =    0.820    wigner-seitz radius (au A)           
   ENMAX  =  400.000; ENMIN  =  300.000 eV                                      
   ICORE  =        2    local potential                                         
   LCOR   =        T    correct aug charges                                     
   LPAW   =        T    paw PP                                                  
   EAUG   =  605.392                                                            
   DEXC   =    0.000                                                            
   RMAX   =    1.553    core radius for proj-oper                               
   RAUG   =    1.300    factor for augmentation sphere                          
   RDEP   =    1.550    radius for radial grids                                 
   RDEPT  =    1.329    core radius for aug-charge                              
                                                                                
   Atomic configuration                                                         
    4 entries                                                                   
     n  l   j            E        occ.                                          
     1  0  0.50      -514.6923   2.0000                                         
     2  0  0.50       -23.9615   2.0000                                         
     2  1  0.50        -9.0305   4.0000                                         
     3  2  1.50        -9.5241   0.0000                                         
   Description                                                                  
     l       E           TYP  RCUT    TYP  RCUT                                 
     0    -23.9615318     23  1.200                                             
     0     -9.5240782     23  1.200                                             
     1     -9.0304911     23  1.520                                             
     1      8.1634956     23  1.520                                             
     2     -9.5240782      7  1.500                                             
  local pseudopotential read in
  partial core-charges read in
  partial kinetic energy density read in
  kinetic energy density of atom read in
  atomic valenz-charges read in
  non local Contribution for L=           0  read in
    real space projection operators read in
  non local Contribution for L=           0  read in
    real space projection operators read in
  non local Contribution for L=           1  read in
    real space projection operators read in
  non local Contribution for L=           1  read in
    real space projection operators read in
    PAW grid and wavefunctions read in
 
   number of l-projection  operators is LMAX  =           4
   number of lm-projection operators is LMMAX =           8
 
 POTCAR:    PAW_PBE F 08Apr2002                   
   VRHFIN =F: s2p5                                                              
   LEXCH  = PE                                                                  
   EATOM  =   659.6475 eV,   48.4827 Ry                                         
                                                                                
   TITEL  = PAW_PBE F 08Apr2002                                                 
   LULTRA =        F    use ultrasoft PP ?                                      
   IUNSCR =        1    unscreen: 0-lin 1-nonlin 2-no                           
   RPACOR =    1.200    partial core radius                                     
   POMASS =   18.998; ZVAL   =    7.000    mass and valenz                      
   RCORE  =    1.520    outmost cutoff radius                                   
   RWIGS  =    1.500; RWIGS  =    0.794    wigner-seitz radius (au A)           
   ENMAX  =  400.000; ENMIN  =  300.000 eV                                      
   ICORE  =        2    local potential                                         
   LCOR   =        T    correct aug charges                                     
   LPAW   =        T    paw PP                                                  
   EAUG   =  613.614                                                            
   RMAX   =    1.555    core radius for proj-oper                               
   RAUG   =    1.300    factor for augmentation sphere                          
   RDEP   =    1.539    radius for radial grids                                 
   RDEPT  =    1.299    core radius for aug-charge                              
                                                                                
   Atomic configuration                                                         
    4 entries                                                                   
     n  l   j            E        occ.                                          
     1  0  0.50      -663.3661   2.0000                                         
     2  0  0.50       -29.8995   2.0000                                         
     2  1  0.50       -11.1114   5.0000                                         
     3  2  1.50       -10.8847   0.0000                                         
   Description                                                                  
     l       E           TYP  RCUT    TYP  RCUT                                 
     0    -29.8995018     23  1.200                                             
     0     -9.5240782     23  1.200                                             
     1    -11.1113914     23  1.520                                             
     1      1.3605826     23  1.520                                             
     2    -10.8846608      7  1.500                                             
  local pseudopotential read in
  partial core-charges read in
  partial kinetic energy density read in
  atomic valenz-charges read in
  non local Contribution for L=           0  read in
    real space projection operators read in
  non local Contribution for L=           0  read in
    real space projection operators read in
  non local Contribution for L=           1  read in
    real space projection operators read in
  non local Contribution for L=           1  read in
    real space projection operators read in
    PAW grid and wavefunctions read in
 
   number of l-projection  operators is LMAX  =           4
   number of lm-projection operators is LMMAX =           8
 
 Optimization of the real space projectors (new method)

 maximal supplied QI-value         = 22.11
 optimisation between [QCUT,QGAM] = [ 11.28, 22.77] = [ 35.61,145.23] Ry 
 Optimized for a Real-space Cutoff    1.31 Angstroem

   l    n(q)    QCUT    max X(q) W(low)/X(q) W(high)/X(q)  e(spline) 
   0      9    11.276    10.506    0.19E-04    0.17E-04    0.32E-07
   0      9    11.276     8.367    0.38E-04    0.40E-04    0.65E-07
   1      8    11.276     8.983    0.55E-04    0.98E-04    0.20E-06
 Optimization of the real space projectors (new method)

 maximal supplied QI-value         = 15.12
 optimisation between [QCUT,QGAM] = [ 11.34, 22.83] = [ 36.00,145.93] Ry 
 Optimized for a Real-space Cutoff    1.56 Angstroem

   l    n(q)    QCUT    max X(q) W(low)/X(q) W(high)/X(q)  e(spline) 
   1     10    11.338     4.216    0.27E-04    0.12E-04    0.66E-07
   1     10    11.338     5.422    0.81E-04    0.24E-04    0.19E-06
   2     10    11.338    72.084    0.64E-04    0.21E-03    0.51E-06
   2     10    11.338    65.965    0.63E-04    0.21E-03    0.50E-06
   0     11    11.338    41.531    0.33E-04    0.54E-04    0.13E-06
   0     11    11.338    16.290    0.26E-04    0.41E-04    0.11E-06
 Optimization of the real space projectors (new method)

 maximal supplied QI-value         = 24.76
 optimisation between [QCUT,QGAM] = [ 11.39, 22.77] = [ 36.31,145.25] Ry 
 Optimized for a Real-space Cutoff    1.20 Angstroem

   l    n(q)    QCUT    max X(q) W(low)/X(q) W(high)/X(q)  e(spline) 
   0      8    11.387    20.381    0.89E-04    0.31E-03    0.27E-06
   0      8    11.387    15.268    0.93E-04    0.32E-03    0.29E-06
   1      8    11.387     5.964    0.53E-04    0.28E-03    0.29E-06
   1      8    11.387     5.382    0.37E-04    0.22E-03    0.26E-06
 Optimization of the real space projectors (new method)

 maximal supplied QI-value         = 24.76
 optimisation between [QCUT,QGAM] = [ 11.39, 22.77] = [ 36.31,145.25] Ry 
 Optimized for a Real-space Cutoff    1.20 Angstroem

   l    n(q)    QCUT    max X(q) W(low)/X(q) W(high)/X(q)  e(spline) 
   0      8    11.387    14.049    0.69E-04    0.23E-03    0.18E-06
   0      8    11.387     8.945    0.88E-04    0.30E-03    0.26E-06
   1      8    11.387     7.086    0.62E-04    0.27E-03    0.27E-06
   1      8    11.387     6.747    0.46E-04    0.23E-03    0.25E-06

 ----------------------------------------------------------------------------- 
|                                                                             |
|  ADVICE TO THIS USER RUNNING 'VASP/VAMP'   (HEAR YOUR MASTER'S VOICE ...):  |
|                                                                             |
|      You enforced a specific xc-type in the INCAR file,                     |
|      a different type was found on the POTCAR file                          |
|          I HOPE YOU KNOW, WHAT YOU ARE  DOING                               |
|                                                                             |
 ----------------------------------------------------------------------------- 

  PAW_PBE Li_sv 10Sep2004               :
 energy of atom  1       EATOM= -202.7858
 kinetic energy error for atom=    0.0143 (will be added to EATOM!!)
  PAW_PBE Ti_pv 07Sep2000               :
 energy of atom  2       EATOM=-1042.5995
 kinetic energy error for atom=    0.0024 (will be added to EATOM!!)
  PAW_PBE O 08Apr2002                   :
 energy of atom  3       EATOM= -432.3788
 kinetic energy error for atom=    0.0224 (will be added to EATOM!!)
  PAW_PBE F 08Apr2002                   :
 energy of atom  4       EATOM= -659.6475
 kinetic energy error for atom=    0.0354 (will be added to EATOM!!)
 
 
 POSCAR: config 42                               
  positions in direct lattice
  velocities in cartesian coordinates
 exchange correlation table for  LEXCH =       14
   RHO(1)=    0.500       N(1)  =     2000
   RHO(2)=  100.500       N(2)  =     4000

 VTST: version 3.2, (02/03/18)

 CHAIN: initializing optimizer
 
 OPT: Using VASP QUASI-newton optimizer
 CHAIN: Read ICHAIN            0
 
 POSCAR: config 42                               
  positions in direct lattice
  velocities in cartesian coordinates
 


--------------------------------------------------------------------------------------------------------


 ion  position               nearest neighbor table
   1  0.623  0.540  0.376- 160 1.89 181 1.90 176 1.93  69 1.97   9 2.86  16 2.89
   2  0.996  0.995  0.994- 118 1.86  68 1.89 103 1.90 171 2.02 130 2.04 212 2.05
   3  0.999  0.992  0.494- 119 1.81  67 1.82 172 1.95 193 1.97 131 2.01 213 2.09
   4  0.006  0.496  0.998-  89 1.84 117 1.86 138 1.94 132 1.98 214 2.01 194 2.04
   5  0.996  0.504  0.507-  66 1.82 104 1.84 215 1.92 173 1.99 223 2.00 137 2.04
   6  0.495  0.993  1.000- 121 1.84 101 1.84 140 1.96 133 1.98 174 2.03 216 2.04
   7  0.502  0.009  0.498- 112 1.79 191 1.91 139 1.92 134 1.92 175 1.94 225 2.02
   8  0.504  0.495  0.996-  70 1.87 120 1.88  90 1.90 192 2.02 217 2.04 135 2.07
   9  0.488  0.499  0.497- 102 1.77  69 1.88 224 1.97 136 1.98 218 2.00 176 2.16   1 2.86
  10  0.007  0.004  0.256-  91 1.83  67 1.86 219 1.96 227 1.97 130 2.00 197 2.07
  11  0.002  0.008  0.757-  68 1.79 113 1.85 177 1.95 198 1.99 228 2.04 131 2.06
  12  0.994  0.492  0.252- 107 1.83 122 1.86 137 1.93 132 1.96 220 2.01 178 2.02
  13  0.993  0.500  0.743- 108 1.83  66 1.83 226 1.93 221 1.96 138 2.01 179 2.04
  14  0.506  0.009  0.249-  92 1.84 114 1.86 133 1.94 231 1.96 139 2.00 195 2.02
  15  0.493  0.006  0.753- 105 1.81 115 1.84 140 1.94 134 2.01 232 2.01 180 2.04
  16  0.487  0.495  0.256- 106 1.80  69 1.88 222 1.93 229 1.96 135 1.98 181 2.17   1 2.89
  17  0.502  0.504  0.759-  70 1.80 116 1.86 182 1.95 196 1.97 230 2.04 136 2.10
  18  0.995  0.258  0.002- 117 1.82 110 1.88 141 1.97 146 1.97 183 2.01 212 2.01
  19  0.998  0.249  0.491-  74 1.78 213 1.91 184 1.94 202 1.94 223 1.95 142 2.01
  20  0.999  0.758  0.006- 118 1.81  71 1.86 203 1.95 185 1.98 148 2.05 214 2.06
  21  0.998  0.758  0.506- 119 1.83  72 1.84 204 1.96 186 1.97 147 2.02 215 2.04
  22  0.495  0.258  0.002- 120 1.81 109 1.85 150 1.97 143 1.98 187 2.04 216 2.06
  23  0.509  0.245  0.497-  93 1.81 112 1.89 144 1.93 149 1.95 224 2.00 199 2.01
  24  0.508  0.756  0.998-  94 1.84 121 1.86 145 1.92 152 1.96 217 2.04 200 2.04
  25  0.509  0.754  0.507-  73 1.82  95 1.83 151 1.98 225 1.98 218 2.00 201 2.06
  26  0.999  0.258  0.255- 122 1.80  74 1.88 209 1.95 188 1.97 141 1.99 219 2.02
  27  0.007  0.243  0.748- 113 1.80  96 1.83 142 1.97 146 1.97 210 2.05 226 2.05
  28  0.005  0.748  0.244-  71 1.82  97 1.85 220 1.96 227 1.99 211 2.01 147 2.06
  29  0.994  0.751  0.742- 111 1.83  72 1.85 228 1.93 221 1.98 148 2.03 189 2.03
  30  0.507  0.240  0.252- 114 1.81  98 1.84 143 1.94 149 1.98 205 2.04 229 2.05
  31  0.507  0.244  0.751-  99 1.84 115 1.84 150 1.94 144 1.99 206 2.02 230 2.02
  32  0.502  0.751  0.252- 100 1.94 207 2.01 145 2.03 151 2.03 231 2.04 222 2.05
  33  0.503  0.742  0.743- 116 1.82  73 1.83 190 1.94 208 1.98 152 2.04 232 2.06
  34  0.257  0.998  0.005-  75 1.85 101 1.85 246 1.94 233 1.97 171 2.02 157 2.04
  35  0.252  0.993  0.506- 128 1.82  76 1.85 172 1.95 191 2.00 156 2.02 234 2.04
  36  0.244  0.509  0.998- 123 1.82  89 1.85 159 1.94 153 1.98 192 2.02 245 2.04
  37  0.252  0.494  0.507-  77 1.84 127 1.88 102 1.89 173 2.00 235 2.05 158 2.06
  38  0.757  0.001  0.994- 103 1.79  81 1.88 249 1.96 236 1.97 154 2.05 174 2.05
  39  0.750  0.009  0.495-  80 1.83 124 1.85 193 1.94 175 2.00 155 2.00 250 2.04
  40  0.741  0.500  0.004-  90 1.79  78 1.89 237 1.96 247 1.97 161 2.02 194 2.05
  41  0.759  0.498  0.509-  79 1.81 104 1.83 248 1.95 238 1.99 176 2.05 160 2.11
  42  0.245  0.002  0.243-  75 1.83  91 1.86 239 1.95 252 1.97 156 2.04 195 2.05
  43  0.259  0.999  0.744-  76 1.84 105 1.84 253 1.93 240 1.97 177 2.02 157 2.03
  44  0.251  0.490  0.253- 129 1.82 106 1.86 158 1.93 153 1.96 178 2.01 241 2.05
  45  0.247  0.507  0.741-  77 1.80 125 1.82 179 1.95 196 1.98 251 2.03 159 2.06
  46  0.744  0.003  0.255-  92 1.85  80 1.87 256 1.94 242 1.98 154 2.00 197 2.00
  47  0.748  0.008  0.755-  81 1.82 126 1.84 180 1.95 198 1.97 257 2.04 155 2.07
  48  0.758  0.497  0.240-  78 1.79 107 1.84 243 1.95 254 1.97 181 2.06 160 2.13
  49  0.758  0.498  0.745- 108 1.82  79 1.86 255 1.94 244 1.97 161 2.02 182 2.03
  50  0.257  0.252  0.006- 109 1.83  82 1.86 245 1.94 233 1.97 168 2.02 183 2.06
  51  0.254  0.256  0.505- 127 1.82  83 1.85 199 1.97 184 2.02 167 2.04 234 2.04
  52  0.253  0.743  0.994- 123 1.83  86 1.84 200 1.94 185 1.98 246 2.03 162 2.04
  53  0.254  0.755  0.493-  85 1.83 128 1.87 201 1.95 186 1.99 235 2.01 163 2.05
  54  0.756  0.253  0.008- 110 1.81  84 1.86 236 1.95 247 1.96 187 2.03 170 2.05
  55  0.742  0.243  0.498- 124 1.81  93 1.85 169 1.94 164 1.97 202 2.04 248 2.05
  56  0.742  0.748  0.992-  94 1.82  88 1.84 249 1.96 237 1.96 203 2.03 165 2.05
  57  0.744  0.753  0.492-  87 1.81  95 1.84 250 1.96 238 2.00 204 2.05 166 2.06
  58  0.250  0.257  0.244-  82 1.82 129 1.84 205 1.97 188 2.00 167 2.03 239 2.03
  59  0.244  0.253  0.744-  83 1.84  96 1.84 251 1.94 240 1.97 168 2.03 206 2.05
  60  0.242  0.746  0.257-  97 1.83  85 1.86 241 1.95 252 1.99 162 2.04 207 2.04
  61  0.249  0.742  0.757- 125 1.82  86 1.84 189 1.94 208 1.98 253 2.03 163 2.04
  62  0.741  0.252  0.243-  84 1.81  98 1.83 242 1.96 254 1.96 209 2.07 169 2.08
  63  0.744  0.243  0.751- 126 1.82  99 1.84 170 1.95 210 2.01 164 2.02 255 2.06
  64  0.743  0.749  0.257- 100 1.79  87 1.88 256 1.97 243 1.98 165 2.04 211 2.06
  65  0.759  0.750  0.755- 111 1.83  88 1.84 257 1.94 244 1.99 166 2.04 190 2.04
  66  0.007  0.504  0.625-   5 1.82  13 1.83
  67  0.998  0.006  0.376-   3 1.82  10 1.86
  68  0.003  0.002  0.873-  11 1.79   2 1.89
  69  0.506  0.490  0.376-  16 1.88   9 1.88   1 1.97
  70  0.495  0.491  0.875-  17 1.80   8 1.87
  71  0.008  0.744  0.126-  28 1.82  20 1.86
  72  0.012  0.746  0.624-  21 1.84  29 1.85
  73  0.513  0.747  0.624-  25 1.82  33 1.83
  74  0.990  0.248  0.376-  19 1.78  26 1.88
  75  0.258  0.001  0.125-  42 1.83  34 1.85
  76  0.260  0.004  0.625-  43 1.84  35 1.85
  77  0.239  0.493  0.626-  45 1.80  37 1.84
  78  0.750  0.482  0.125-  48 1.79  40 1.89
  79  0.748  0.485  0.626-  41 1.81  49 1.86
  80  0.748  0.009  0.376-  39 1.83  46 1.87
  81  0.743  0.009  0.873-  47 1.82  38 1.88
  82  0.241  0.252  0.126-  58 1.82  50 1.86
  83  0.249  0.252  0.625-  59 1.84  51 1.85
  84  0.738  0.267  0.127-  62 1.81  54 1.86
  85  0.262  0.744  0.376-  53 1.83  60 1.86
  86  0.261  0.750  0.875-  61 1.84  52 1.84
  87  0.763  0.741  0.376-  57 1.81  64 1.88
  88  0.760  0.743  0.874-  56 1.84  65 1.84
  89  0.124  0.509  0.996-   4 1.84  36 1.85
  90  0.626  0.511  0.999-  40 1.79   8 1.90
  91  0.125  0.011  0.249-  10 1.83  42 1.86
  92  0.625  0.014  0.247-  14 1.84  46 1.85
  93  0.625  0.265  0.489-  23 1.81  55 1.85
  94  0.625  0.737  0.989-  56 1.82  24 1.84
  95  0.625  0.766  0.486-  25 1.83  57 1.84
  96  0.125  0.255  0.753-  27 1.83  59 1.84
  97  0.124  0.743  0.261-  60 1.83  28 1.85
  98  0.625  0.237  0.265-  62 1.83  30 1.84
  99  0.626  0.257  0.753-  63 1.84  31 1.84
 100  0.627  0.741  0.262-  64 1.79  32 1.94
 101  0.376  0.995  0.989-   6 1.84  34 1.85
 102  0.374  0.511  0.502-   9 1.77  37 1.89
 103  0.873  0.997  0.997-  38 1.79   2 1.90
 104  0.877  0.509  0.499-  41 1.83   5 1.84
 105  0.377  1.000  0.761-  15 1.81  43 1.84
 106  0.371  0.484  0.252-  16 1.80  44 1.86
 107  0.876  0.486  0.255-  12 1.83  48 1.84
 108  0.875  0.512  0.747-  49 1.82  13 1.83
 109  0.375  0.253  0.009-  50 1.83  22 1.85
 110  0.874  0.254  0.010-  54 1.81  18 1.88
 111  0.875  0.742  0.738-  65 1.83  29 1.83
 112  0.517  0.123  0.488-   7 1.79  23 1.89
 113  0.999  0.127  0.744-  27 1.80  11 1.85
 114  0.486  0.126  0.269-  30 1.81  14 1.86
 115  0.504  0.125  0.755-  15 1.84  31 1.84
 116  0.504  0.625  0.754-  33 1.82  17 1.86
 117  0.005  0.376  0.006-  18 1.82   4 1.86
 118  0.007  0.875  0.002-  20 1.81   2 1.86
 119  0.988  0.876  0.499-   3 1.81  21 1.83
 120  0.507  0.374  0.013-  22 1.81   8 1.88
 121  0.509  0.876  0.008-   6 1.84  24 1.86
 122  0.016  0.374  0.247-  26 1.80  12 1.86
 123  0.261  0.625  0.005-  36 1.82  52 1.83
 124  0.734  0.127  0.511-  55 1.81  39 1.85
 125  0.244  0.625  0.748-  61 1.82  45 1.82
 126  0.749  0.126  0.737-  63 1.82  47 1.84
 127  0.258  0.373  0.492-  51 1.82  37 1.88
 128  0.261  0.876  0.499-  35 1.82  53 1.87
 129  0.232  0.374  0.259-  44 1.82  58 1.84
 130  0.997  0.003  0.127-  10 2.00   2 2.04
 131  0.001  0.999  0.624-   3 2.01  11 2.06
 132  0.997  0.509  0.126-  12 1.96   4 1.98
 133  0.490  0.018  0.125-  14 1.94   6 1.98
 134  0.492  0.006  0.623-   7 1.92  15 2.01
 135  0.501  0.510  0.129-  16 1.98   8 2.07
 136  0.510  0.505  0.623-   9 1.98  17 2.10
 137  0.006  0.495  0.376-  12 1.93   5 2.04
 138  0.996  0.496  0.873-   4 1.94  13 2.01
 139  0.508  0.984  0.377-   7 1.92  14 2.00
 140  0.520  0.994  0.875-  15 1.94   6 1.96
 141  0.011  0.245  0.128-  18 1.97  26 1.99
 142  0.005  0.259  0.621-  27 1.97  19 2.01
 143  0.512  0.232  0.127-  30 1.94  22 1.98
 144  0.504  0.241  0.622-  23 1.93  31 1.99
 145  0.507  0.738  0.122-  24 1.92  32 2.03
 146  0.991  0.252  0.874-  18 1.97  27 1.97
 147  0.987  0.751  0.376-  21 2.02  28 2.06
 148  0.991  0.752  0.874-  29 2.03  20 2.05
 149  0.487  0.269  0.375-  23 1.95  30 1.98
 150  0.495  0.261  0.875-  31 1.94  22 1.97
 151  0.480  0.761  0.382-  25 1.98  32 2.03
 152  0.486  0.757  0.873-  24 1.96  33 2.04
 153  0.245  0.491  0.125-  44 1.96  36 1.98
 154  0.752  0.994  0.127-  46 2.00  38 2.05
 155  0.751  0.990  0.623-  39 2.00  47 2.07
 156  0.249  0.003  0.375-  35 2.02  42 2.04
 157  0.240  0.996  0.874-  43 2.03  34 2.04
 158  0.244  0.513  0.375-  44 1.93  37 2.06
 159  0.259  0.501  0.874-  36 1.94  45 2.06
 160  0.743  0.517  0.375-   1 1.89  41 2.11  48 2.13
 161  0.752  0.514  0.874-  49 2.02  40 2.02
 162  0.240  0.755  0.125-  52 2.04  60 2.04
 163  0.238  0.753  0.625-  61 2.04  53 2.05
 164  0.746  0.269  0.623-  55 1.97  63 2.02
 165  0.744  0.756  0.125-  64 2.04  56 2.05
 166  0.738  0.757  0.625-  65 2.04  57 2.06
 167  0.259  0.242  0.374-  58 2.03  51 2.04
 168  0.256  0.250  0.875-  50 2.02  59 2.03
 169  0.765  0.238  0.375-  55 1.94  62 2.08
 170  0.757  0.237  0.876-  63 1.95  54 2.05
 171  0.126  0.007  0.005-   2 2.02  34 2.02
 172  0.125  0.994  0.502-  35 1.95   3 1.95
 173  0.123  0.492  0.493-   5 1.99  37 2.00
 174  0.625  0.008  0.011-   6 2.03  38 2.05
 175  0.624  0.980  0.506-   7 1.94  39 2.00
 176  0.627  0.494  0.492-   1 1.93  41 2.05   9 2.16
 177  0.127  0.999  0.743-  11 1.95  43 2.02
 178  0.123  0.515  0.247-  44 2.01  12 2.02
 179  0.123  0.490  0.762-  45 1.95  13 2.04
 180  0.624  0.994  0.736-  47 1.95  15 2.04
 181  0.627  0.512  0.256-   1 1.90  48 2.06  16 2.17
 182  0.627  0.490  0.755-  17 1.95  49 2.03
 183  0.125  0.246  0.990-  18 2.01  50 2.06
 184  0.124  0.255  0.492-  19 1.94  51 2.02
 185  0.125  0.739  0.990-  52 1.98  20 1.98
 186  0.125  0.760  0.487-  21 1.97  53 1.99
 187  0.626  0.245  0.990-  54 2.03  22 2.04
 188  0.124  0.230  0.261-  26 1.97  58 2.00
 189  0.124  0.757  0.762-  61 1.94  29 2.03
 190  0.626  0.757  0.763-  33 1.94  65 2.04
 191  0.378  0.016  0.489-   7 1.91  35 2.00
 192  0.373  0.490  0.008-   8 2.02  36 2.02
 193  0.875  0.018  0.506-  39 1.94   3 1.97
 194  0.874  0.493  0.998-   4 2.04  40 2.05
 195  0.377  0.991  0.259-  14 2.02  42 2.05
 196  0.375  0.502  0.739-  17 1.97  45 1.98
 197  0.874  0.994  0.250-  46 2.00  10 2.07
 198  0.874  0.997  0.746-  47 1.97  11 1.99
 199  0.379  0.235  0.502-  51 1.97  23 2.01
 200  0.376  0.762  0.011-  52 1.94  24 2.04
 201  0.377  0.737  0.516-  53 1.95  25 2.06
 202  0.874  0.243  0.510-  19 1.94  55 2.04
 203  0.872  0.760  0.009-  20 1.95  56 2.03
 204  0.873  0.737  0.515-  21 1.96  57 2.05
 205  0.377  0.266  0.241-  58 1.97  30 2.04
 206  0.377  0.248  0.747-  31 2.02  59 2.05
 207  0.373  0.756  0.238-  32 2.01  60 2.04
 208  0.375  0.751  0.737-  61 1.98  33 1.98
 209  0.874  0.266  0.241-  26 1.95  62 2.07
 210  0.874  0.253  0.742-  63 2.01  27 2.05
 211  0.875  0.757  0.242-  28 2.01  64 2.06
 212  0.999  0.127  0.000-  18 2.01   2 2.05
 213  0.007  0.127  0.509-  19 1.91   3 2.09
 214  0.988  0.625  0.994-   4 2.01  20 2.06
 215  0.011  0.627  0.491-   5 1.92  21 2.04
 216  0.500  0.125  0.989-   6 2.04  22 2.06
 217  0.485  0.626  0.993-  24 2.04   8 2.04
 218  0.515  0.626  0.490-  25 2.00   9 2.00
 219  0.984  0.128  0.247-  10 1.96  26 2.02
 220  0.989  0.622  0.258-  28 1.96  12 2.01
 221  0.014  0.625  0.757-  13 1.96  29 1.98
 222  0.489  0.620  0.263-  16 1.93  32 2.05
 223  0.993  0.375  0.499-  19 1.95   5 2.00
 224  0.486  0.372  0.512-   9 1.97  23 2.00
 225  0.483  0.880  0.508-  25 1.98   7 2.02
 226  0.992  0.376  0.749-  13 1.93  27 2.05
 227  0.004  0.876  0.251-  10 1.97  28 1.99
 228  0.997  0.876  0.746-  29 1.93  11 2.04
 229  0.514  0.372  0.237-  16 1.96  30 2.05
 230  0.494  0.374  0.738-  31 2.02  17 2.04
 231  0.507  0.882  0.237-  14 1.96  32 2.04
 232  0.500  0.876  0.746-  15 2.01  33 2.06
 233  0.251  0.125  0.994-  50 1.97  34 1.97
 234  0.242  0.125  0.498-  51 2.04  35 2.04
 235  0.238  0.626  0.507-  53 2.01  37 2.05
 236  0.750  0.127  0.014-  54 1.95  38 1.97
 237  0.765  0.625  0.013-  40 1.96  56 1.96
 238  0.737  0.625  0.510-  41 1.99  57 2.00
 239  0.266  0.127  0.251-  42 1.95  58 2.03
 240  0.249  0.125  0.756-  43 1.97  59 1.97
 241  0.258  0.622  0.240-  60 1.95  44 2.05
 242  0.767  0.128  0.238-  62 1.96  46 1.98
 243  0.761  0.623  0.237-  48 1.95  64 1.98
 244  0.736  0.624  0.739-  49 1.97  65 1.99
 245  0.243  0.376  0.995-  50 1.94  36 2.04
 246  0.239  0.874  0.001-  34 1.94  52 2.03
 247  0.743  0.375  0.979-  54 1.96  40 1.97
 248  0.762  0.374  0.483-  41 1.95  55 2.05
 249  0.739  0.875  0.996-  56 1.96  38 1.96
 250  0.767  0.878  0.495-  57 1.96  39 2.04
 251  0.258  0.377  0.758-  59 1.94  45 2.03
 252  0.245  0.875  0.254-  42 1.97  60 1.99
 253  0.250  0.874  0.747-  43 1.93  61 2.03
 254  0.736  0.375  0.272-  62 1.96  48 1.97
 255  0.759  0.375  0.767-  49 1.94  63 2.06
 256  0.744  0.877  0.256-  46 1.94  64 1.97
 257  0.753  0.876  0.753-  65 1.94  47 2.04
 

IMPORTANT INFORMATION: All symmetrisations will be switched off!
NOSYMM: (Re-)initialisation of all symmetry stuff for point group C_1.

 
 
 KPOINTS: Title                                   

Automatic generation of k-mesh.
Space group operators:
 irot       det(A)        alpha          n_x          n_y          n_z        tau_x        tau_y        tau_z
    1     1.000000     0.000001     1.000000     0.000000     0.000000     0.000000     0.000000     0.000000
 
 Subroutine IBZKPT returns following result:
 ===========================================
 
 Found      4 irreducible k-points:
 
 Following reciprocal coordinates:
            Coordinates               Weight
  0.250000  0.250000  0.250000      2.000000
 -0.250000  0.250000  0.250000      2.000000
  0.250000 -0.250000  0.250000      2.000000
 -0.250000 -0.250000  0.250000      2.000000
 
 Following cartesian coordinates:
            Coordinates               Weight
  0.016206  0.016206  0.016206      2.000000
 -0.016206  0.016206  0.016206      2.000000
  0.016206 -0.016206  0.016206      2.000000
 -0.016206 -0.016206  0.016206      2.000000
 


--------------------------------------------------------------------------------------------------------




 Dimension of arrays:
   k-points           NKPTS =      4   k-points in BZ     NKDIM =      4   number of bands    NBANDS=   1164
   number of dos      NEDOS =   3001   number of ions     NIONS =    257
   non local maximal  LDIM  =      6   non local SUM 2l+1 LMDIM =     18
   total plane-waves  NPLWV = ******
   max r-space proj   IRMAX =   7595   max aug-charges    IRDMAX= 146383
   dimension x,y,z NGX =   120 NGY =  120 NGZ =  120
   dimension x,y,z NGXF=   240 NGYF=  240 NGZF=  240
   support grid    NGXF=   480 NGYF=  480 NGZF=  480
   ions per type =               1  64  64 128
   NGX,Y,Z   is equivalent  to a cutoff of  12.93, 12.93, 12.93 a.u.
   NGXF,Y,Z  is equivalent  to a cutoff of  25.86, 25.86, 25.86 a.u.

 SYSTEM =  LTO                                     
 POSCAR =  config 42                               

 Startparameter for this run:
   NWRITE =      2    write-flag & timer
   PREC   = accura    normal or accurate (medium, high low for compatibility)
   ISTART =      1    job   : 0-new  1-cont  2-samecut
   ICHARG =      0    charge: 1-file 2-atom 10-const
   ISPIN  =      2    spin polarized calculation?
   LNONCOLLINEAR =      F non collinear calculations
   LSORBIT =      F    spin-orbit coupling
   INIWAV =      1    electr: 0-lowe 1-rand  2-diag
   LASPH  =      T    aspherical Exc in radial PAW
   METAGGA=      F    non-selfconsistent MetaGGA calc.

 Electronic Relaxation 1
   ENCUT  =  500.0 eV  36.75 Ry    6.06 a.u.  28.13 28.13 28.13*2*pi/ulx,y,z
   ENINI  =  500.0     initial cutoff
   ENAUG  =  628.9 eV  augmentation charge cutoff
   NELM   =     60;   NELMIN=  2; NELMDL=  0     # of ELM steps 
   EDIFF  = 0.1E-05   stopping-criterion for ELM
   LREAL  =      T    real-space projection
   NLSPLINE    = F    spline interpolate recip. space projectors
   LCOMPAT=      F    compatible to vasp.4.4
   GGA_COMPAT  = T    GGA compatible to vasp.4.4-vasp.4.6
   LMAXPAW     = -100 max onsite density
   LMAXMIX     =    4 max onsite mixed and CHGCAR
   VOSKOWN=      0    Vosko Wilk Nusair interpolation
   ROPT   =   -0.00010  -0.00010  -0.00010  -0.00010
 Ionic relaxation
   EDIFFG = -.5E-01   stopping-criterion for IOM
   NSW    =    100    number of steps for IOM
   NBLOCK =      1;   KBLOCK =    100    inner block; outer block 
   IBRION =      1    ionic relax: 0-MD 1-quasi-New 2-CG
   NFREE  =      0    steps in history (QN), initial steepest desc. (CG)
   ISIF   =      2    stress and relaxation
   IWAVPR =     11    prediction:  0-non 1-charg 2-wave 3-comb
   ISYM   =      0    0-nonsym 1-usesym 2-fastsym
   LCORR  =      T    Harris-Foulkes like correction to forces

   POTIM  = 0.5000    time-step for ionic-motion
   TEIN   =    0.0    initial temperature
   TEBEG  =    0.0;   TEEND  =   0.0 temperature during run
   SMASS  =  -3.00    Nose mass-parameter (am)
   estimated Nose-frequenzy (Omega)   =  0.10E-29 period in steps =****** mass=  -0.544E-26a.u.
   SCALEE = 1.0000    scale energy and forces
   NPACO  =    256;   APACO  = 16.0  distance and # of slots for P.C.
   PSTRESS=    0.0 pullay stress

  Mass of Ions in am
   POMASS =   7.01 47.88 16.00 19.00
  Ionic Valenz
   ZVAL   =   3.00 10.00  6.00  7.00
  Atomic Wigner-Seitz radii
   RWIGS  =  -1.00 -1.00 -1.00 -1.00
  virtual crystal weights 
   VCA    =   1.00  1.00  1.00  1.00
   NELECT =    1923.0000    total number of electrons
   NUPDOWN=       1.0000    fix difference up-down

 DOS related values:
   EMIN   =  10.00;   EMAX   =-10.00  energy-range for DOS
   EFERMI =   0.00
   ISMEAR =     0;   SIGMA  =   0.01  broadening in eV -4-tet -1-fermi 0-gaus

 Electronic relaxation 2 (details)
   IALGO  =     38    algorithm
   LDIAG  =      T    sub-space diagonalisation (order eigenvalues)
   LSUBROT=      F    optimize rotation matrix (better conditioning)
   TURBO    =      0    0=normal 1=particle mesh
   IRESTART =      0    0=no restart 2=restart with 2 vectors
   NREBOOT  =      0    no. of reboots
   NMIN     =      0    reboot dimension
   EREF     =   0.00    reference energy to select bands
   IMIX   =      4    mixing-type and parameters
     AMIX     =   0.40;   BMIX     =  1.00
     AMIX_MAG =   1.60;   BMIX_MAG =  1.00
     AMIN     =   0.10
     WC   =   100.;   INIMIX=   1;  MIXPRE=   1;  MAXMIX= -45

 Intra band minimization:
   WEIMIN = 0.0010     energy-eigenvalue tresh-hold
   EBREAK =  0.21E-09  absolut break condition
   DEPER  =   0.30     relativ break condition  

   TIME   =   0.40     timestep for ELM

  volume/ion in A,a.u.               =      14.28        96.39
  Fermi-wavevector in a.u.,A,eV,Ry     =   1.319690  2.493853 23.695660  1.741582
  Thomas-Fermi vector in A             =   2.449570
 
 Write flags
   LWAVE        =      T    write WAVECAR
   LDOWNSAMPLE  =      F    k-point downsampling of WAVECAR
   LCHARG       =      T    write CHGCAR
   LVTOT        =      F    write LOCPOT, total local potential
   LVHAR        =      F    write LOCPOT, Hartree potential only
   LELF         =      F    write electronic localiz. function (ELF)
   LORBIT       =     11    0 simple, 1 ext, 2 COOP (PROOUT), +10 PAW based schemes


 Dipole corrections
   LMONO  =      F    monopole corrections only (constant potential shift)
   LDIPOL =      F    correct potential (dipole corrections)
   IDIPOL =      0    1-x, 2-y, 3-z, 4-all directions 
   EPSILON=  1.0000000 bulk dielectric constant

 LDA+U is selected, type is set to LDAUTYPE =  2
   angular momentum for each species LDAUL =    -1    2   -1   -1
   U (eV)           for each species LDAUU =   0.0  4.2  0.0  0.0
   J (eV)           for each species LDAUJ =   0.0  0.0  0.0  0.0
 Exchange correlation treatment:
   GGA     =    PS    GGA type
   LEXCH   =    14    internal setting for exchange type
   VOSKOWN=      0    Vosko Wilk Nusair interpolation
   LHFCALC =     F    Hartree Fock is set to
   LHFONE  =     F    Hartree Fock one center treatment
   AEXX    =    0.0000 exact exchange contribution

 Linear response parameters
   LEPSILON=     F    determine dielectric tensor
   LRPA    =     F    only Hartree local field effects (RPA)
   LNABLA  =     F    use nabla operator in PAW spheres
   LVEL    =     F    velocity operator in full k-point grid
   LINTERFAST=   F  fast interpolation
   KINTER  =     0    interpolate to denser k-point grid
   CSHIFT  =0.1000    complex shift for real part using Kramers Kronig
   OMEGAMAX=  -1.0    maximum frequency
   DEG_THRESHOLD= 0.2000000E-02 threshold for treating states as degnerate
   RTIME   =   -0.100 relaxation time in fs
  (WPLASMAI=    0.000 imaginary part of plasma frequency in eV, 0.658/RTIME)
   DFIELD  = 0.0000000 0.0000000 0.0000000 field for delta impulse in time
 
 Orbital magnetization related:
   ORBITALMAG=     F  switch on orbital magnetization
   LCHIMAG   =     F  perturbation theory with respect to B field
   DQ        =  0.001000  dq finite difference perturbation B field
   LLRAUG    =     F  two centre corrections for induced B field



--------------------------------------------------------------------------------------------------------


 quasi-Newton-method for relaxation of ions
 charge density and potential will be updated during run
 spin polarized calculation
 Variant of blocked Davidson
 Davidson routine will perform the subspace rotation
 perform sub-space diagonalisation
    after iterative eigenvector-optimisation
 modified Broyden-mixing scheme, WC =      100.0
 initial mixing is a Kerker type mixing with AMIX =  0.4000 and BMIX =      1.0000
 Hartree-type preconditioning will be used
 using additional bands          202
 real space projection scheme for non local part
 use partial core corrections
 calculate Harris-corrections to forces 
   (improved forces if not selfconsistent)
 use gradient corrections 
 use of overlap-Matrix (Vanderbilt PP)
 Gauss-broadening in eV      SIGMA  =   0.01


--------------------------------------------------------------------------------------------------------


  energy-cutoff  :      500.00
  volume of cell :     3671.03
      direct lattice vectors                 reciprocal lattice vectors
    15.426331000  0.000000000  0.000000000     0.064824228  0.000000000  0.000000000
     0.000000000 15.426331000  0.000000000     0.000000000  0.064824228  0.000000000
     0.000000000  0.000000000 15.426331000     0.000000000  0.000000000  0.064824228

  length of vectors
    15.426331000 15.426331000 15.426331000     0.064824228  0.064824228  0.064824228


 
 old parameters found on file WAVECAR:
  energy-cutoff  :      500.00
  volume of cell :     3671.03
      direct lattice vectors                 reciprocal lattice vectors
    15.426331000  0.000000000  0.000000000     0.064824228  0.000000000  0.000000000
     0.000000000 15.426331000  0.000000000     0.000000000  0.064824228  0.000000000
     0.000000000  0.000000000 15.426331000     0.000000000  0.000000000  0.064824228

  length of vectors

 
 k-points in units of 2pi/SCALE and weight: Title                                   
   0.01620606  0.01620606  0.01620606       0.250
  -0.01620606  0.01620606  0.01620606       0.250
   0.01620606 -0.01620606  0.01620606       0.250
  -0.01620606 -0.01620606  0.01620606       0.250
 
 k-points in reciprocal lattice and weights: Title                                   
   0.25000000  0.25000000  0.25000000       0.250
  -0.25000000  0.25000000  0.25000000       0.250
   0.25000000 -0.25000000  0.25000000       0.250
  -0.25000000 -0.25000000  0.25000000       0.250
 
 position of ions in fractional coordinates (direct lattice) 
   0.62267546  0.54039940  0.37623008
   0.99593867  0.99491721  0.99446265
   0.99895371  0.99230724  0.49361976
   0.00579061  0.49598608  0.99803585
   0.99551162  0.50425252  0.50736850
   0.49500871  0.99347889  0.99963350
   0.50204459  0.00889833  0.49830365
   0.50383193  0.49473849  0.99573091
   0.48790073  0.49877941  0.49682991
   0.00717170  0.00386494  0.25578324
   0.00225422  0.00801956  0.75666447
   0.99426791  0.49219188  0.25160727
   0.99303894  0.50040366  0.74254791
   0.50612581  0.00859243  0.24949634
   0.49339446  0.00624364  0.75267581
   0.48722100  0.49467500  0.25560209
   0.50154451  0.50447380  0.75879221
   0.99519714  0.25796730  0.00184556
   0.99822316  0.24876538  0.49128880
   0.99890023  0.75776384  0.00632400
   0.99828975  0.75761709  0.50619969
   0.49504181  0.25796486  0.00202615
   0.50932133  0.24542939  0.49738536
   0.50759474  0.75559280  0.99831701
   0.50900116  0.75407523  0.50666573
   0.99943209  0.25824448  0.25519155
   0.00677737  0.24347750  0.74769540
   0.00516148  0.74759356  0.24369662
   0.99362543  0.75098377  0.74218787
   0.50680823  0.24000293  0.25222273
   0.50732029  0.24431603  0.75099224
   0.50218468  0.75133355  0.25227816
   0.50314352  0.74235859  0.74254877
   0.25705038  0.99791673  0.00519698
   0.25189736  0.99332158  0.50591866
   0.24388106  0.50857071  0.99836660
   0.25233732  0.49388472  0.50682923
   0.75679823  0.00100150  0.99379684
   0.74973475  0.00884158  0.49478795
   0.74132071  0.50047027  0.00410549
   0.75928228  0.49808729  0.50941767
   0.24534675  0.00244463  0.24312394
   0.25869368  0.99866653  0.74405971
   0.25078395  0.49019889  0.25257975
   0.24715374  0.50656989  0.74137979
   0.74447967  0.00256750  0.25541409
   0.74769596  0.00820542  0.75544909
   0.75849381  0.49679296  0.23958851
   0.75788953  0.49845036  0.74477610
   0.25675219  0.25200643  0.00602259
   0.25378671  0.25646626  0.50508985
   0.25302106  0.74258345  0.99402246
   0.25374154  0.75482632  0.49333479
   0.75641484  0.25256593  0.00847643
   0.74197508  0.24346630  0.49816607
   0.74233633  0.74830411  0.99231971
   0.74376815  0.75306569  0.49191020
   0.24978101  0.25717785  0.24353253
   0.24402504  0.25263714  0.74393876
   0.24238452  0.74647053  0.25691738
   0.24857759  0.74238354  0.75673236
   0.74060007  0.25156374  0.24273693
   0.74442759  0.24294018  0.75108482
   0.74256619  0.74863631  0.25651475
   0.75857232  0.75020418  0.75531239
   0.00744245  0.50412234  0.62470527
   0.99814109  0.00644610  0.37625657
   0.00342682  0.00211110  0.87268913
   0.50552710  0.49032697  0.37621502
   0.49457422  0.49077704  0.87474623
   0.00754494  0.74419687  0.12565294
   0.01209376  0.74604274  0.62405133
   0.51344765  0.74737372  0.62446285
   0.98959447  0.24797154  0.37646841
   0.25770030  0.00122302  0.12502500
   0.25997846  0.00372558  0.62493096
   0.23939960  0.49256114  0.62557882
   0.75014160  0.48233156  0.12463453
   0.74764818  0.48543511  0.62562594
   0.74814217  0.00921852  0.37643581
   0.74291718  0.00855126  0.87326435
   0.24085713  0.25161984  0.12586430
   0.24857344  0.25196934  0.62460891
   0.73762536  0.26732854  0.12683253
   0.26223674  0.74394478  0.37553646
   0.26105830  0.75044974  0.87505365
   0.76253958  0.74143004  0.37634987
   0.76029169  0.74301480  0.87444462
   0.12421637  0.50917289  0.99633962
   0.62564693  0.51098917  0.99911772
   0.12547977  0.01086875  0.24917780
   0.62537688  0.01354457  0.24708951
   0.62454314  0.26466821  0.48886665
   0.62501247  0.73733466  0.98937291
   0.62511338  0.76583462  0.48612941
   0.12489442  0.25508088  0.75344766
   0.12401257  0.74296268  0.26106895
   0.62523930  0.23666626  0.26479104
   0.62603839  0.25651881  0.75290487
   0.62714744  0.74141683  0.26213154
   0.37606851  0.99505096  0.98924253
   0.37373094  0.51136197  0.50200224
   0.87287490  0.99734766  0.99685215
   0.87663231  0.50945734  0.49866234
   0.37667499  0.99984120  0.76149561
   0.37099148  0.48410392  0.25243820
   0.87599972  0.48563828  0.25457408
   0.87529972  0.51194106  0.74709503
   0.37538311  0.25296473  0.00874690
   0.87376933  0.25442999  0.00987361
   0.87548221  0.74157292  0.73800571
   0.51695429  0.12326339  0.48845305
   0.99925209  0.12700226  0.74432026
   0.48640811  0.12577261  0.26853038
   0.50424732  0.12504985  0.75456697
   0.50447402  0.62466583  0.75446590
   0.00466568  0.37577553  0.00557580
   0.00691630  0.87483587  0.00197823
   0.98751000  0.87562785  0.49926882
   0.50739254  0.37386491  0.01275158
   0.50900523  0.87559525  0.00750550
   0.01562370  0.37374029  0.24711706
   0.26092301  0.62502813  0.00475116
   0.73436867  0.12680695  0.51101801
   0.24423318  0.62464610  0.74787945
   0.74859607  0.12606075  0.73650419
   0.25842252  0.37343735  0.49164673
   0.26088813  0.87580412  0.49898889
   0.23162761  0.37394557  0.25924680
   0.99728643  0.00341314  0.12660672
   0.00091298  0.99864590  0.62359618
   0.99675868  0.50940271  0.12560370
   0.48993702  0.01763150  0.12532426
   0.49243196  0.00586685  0.62256304
   0.50129335  0.51008140  0.12877162
   0.50964986  0.50473863  0.62291296
   0.00558660  0.49540924  0.37606585
   0.99594052  0.49635074  0.87298134
   0.50820625  0.98386497  0.37653344
   0.51979878  0.99390525  0.87470507
   0.01137906  0.24476235  0.12754970
   0.00465809  0.25902247  0.62118598
   0.51195192  0.23222062  0.12692648
   0.50390467  0.24137021  0.62218273
   0.50742816  0.73772312  0.12161155
   0.99056409  0.25236104  0.87427695
   0.98653399  0.75056973  0.37614169
   0.99123903  0.75192802  0.87362676
   0.48709430  0.26874356  0.37544458
   0.49460529  0.26127076  0.87463254
   0.48030676  0.76104423  0.38186652
   0.48646591  0.75742334  0.87316378
   0.24527597  0.49084133  0.12548231
   0.75183787  0.99365618  0.12651019
   0.75077991  0.98974400  0.62281353
   0.24945379  0.00310486  0.37547188
   0.23981277  0.99553932  0.87401452
   0.24415860  0.51324706  0.37522607
   0.25931436  0.50070079  0.87392596
   0.74269688  0.51669054  0.37510271
   0.75162011  0.51423282  0.87430129
   0.24039245  0.75464699  0.12494088
   0.23843129  0.75263457  0.62527234
   0.74636373  0.26917325  0.62295431
   0.74360478  0.75645874  0.12479031
   0.73798177  0.75689183  0.62494997
   0.25853102  0.24233200  0.37394664
   0.25641409  0.25049610  0.87521157
   0.76537580  0.23756690  0.37452223
   0.75725185  0.23653354  0.87646893
   0.12611526  0.00688370  0.00501154
   0.12531662  0.99440677  0.50206470
   0.12314419  0.49201053  0.49289592
   0.62504208  0.00784807  0.01117131
   0.62414492  0.97973789  0.50601538
   0.62749256  0.49356244  0.49215340
   0.12744933  0.99865904  0.74279016
   0.12285905  0.51514488  0.24678634
   0.12342708  0.49001013  0.76210041
   0.62382113  0.99376603  0.73642975
   0.62673831  0.51190047  0.25626361
   0.62715041  0.48965462  0.75528910
   0.12450596  0.24619898  0.99049098
   0.12365825  0.25508507  0.49216370
   0.12497668  0.73878042  0.98953904
   0.12467594  0.75962919  0.48677662
   0.62612885  0.24486137  0.99036355
   0.12388839  0.23027556  0.26138196
   0.12369282  0.75736658  0.76222000
   0.62643699  0.75657556  0.76309832
   0.37844876  0.01593744  0.48949573
   0.37337033  0.49001988  0.00832165
   0.87453189  0.01794372  0.50581942
   0.87375684  0.49315947  0.99770726
   0.37681982  0.99057535  0.25888684
   0.37512269  0.50219405  0.73941222
   0.87376026  0.99362170  0.24972040
   0.87433574  0.99739458  0.74639399
   0.37946281  0.23523470  0.50238153
   0.37593261  0.76221671  0.01138328
   0.37687257  0.73673631  0.51555951
   0.87391835  0.24291129  0.51027687
   0.87239196  0.76011887  0.00862367
   0.87349622  0.73702649  0.51523688
   0.37732723  0.26602151  0.24089612
   0.37655350  0.24769302  0.74687291
   0.37300918  0.75591335  0.23774018
   0.37507141  0.75111659  0.73702557
   0.87375935  0.26615693  0.24125347
   0.87434114  0.25280749  0.74203051
   0.87498303  0.75680984  0.24154747
   0.99856049  0.12748615  0.00040749
   0.00728228  0.12665839  0.50893896
   0.98789885  0.62511886  0.99353611
   0.01070352  0.62691100  0.49136907
   0.49960174  0.12540579  0.98881155
   0.48510307  0.62570434  0.99273346
   0.51501515  0.62551704  0.49005039
   0.98400948  0.12837549  0.24667163
   0.98868266  0.62226048  0.25808187
   0.01408004  0.62488850  0.75703931
   0.48942326  0.61975770  0.26334716
   0.99333359  0.37487332  0.49901154
   0.48638108  0.37204379  0.51244965
   0.48349643  0.87982893  0.50826933
   0.99212991  0.37568934  0.74917381
   0.00423673  0.87633804  0.25079461
   0.99746673  0.87620579  0.74639612
   0.51385283  0.37176000  0.23700216
   0.49429205  0.37407347  0.73751331
   0.50676319  0.88232136  0.23678951
   0.50024462  0.87606465  0.74634407
   0.25109205  0.12502019  0.99443261
   0.24203709  0.12500337  0.49793442
   0.23808378  0.62595798  0.50682393
   0.74976158  0.12675183  0.01421412
   0.76454622  0.62488222  0.01341187
   0.73720735  0.62494064  0.51030795
   0.26627216  0.12685662  0.25075483
   0.24891749  0.12536168  0.75638615
   0.25805137  0.62210362  0.23975441
   0.76694052  0.12768485  0.23788760
   0.76116281  0.62303009  0.23689795
   0.73638041  0.62448881  0.73893450
   0.24322640  0.37632459  0.99521921
   0.23942555  0.87358008  0.00131841
   0.74252807  0.37525723  0.97928153
   0.76172149  0.37422300  0.48277707
   0.73862020  0.87510927  0.99599430
   0.76733218  0.87787447  0.49492857
   0.25774255  0.37654641  0.75810313
   0.24486047  0.87532162  0.25351276
   0.24989348  0.87388168  0.74657424
   0.73620197  0.37517369  0.27232373
   0.75903696  0.37497024  0.76700031
   0.74445964  0.87650915  0.25586173
   0.75347089  0.87578915  0.75329469
 
 position of ions in cartesian coordinates  (Angst):
   9.60559777  8.33638006  5.80384972
  15.36367966 15.34792214 15.34090998
  15.41019061 15.30765987  7.61474177
   0.08932781  7.65124548 15.39603134
  15.35709178  7.77876624  7.82683445
   7.63616827 15.32573413 15.42067721
   7.74470608  0.13726857  7.68699705
   7.77227815  7.63199966 15.36047460
   7.52651813  7.69433622  7.66426269
   0.11063299  0.05962189  3.94579688
   0.03477435  0.12371232 11.67255662
  15.33790594  7.59271478  3.88137702
  15.31894736  7.71939250 11.45478980
   7.80766422  0.13254970  3.84881315
   7.61126626  0.09631647 11.61102621
   7.51603243  7.63102030  3.94300250
   7.73699170  7.78217986 11.70537983
  15.35224046  3.97948895  0.02847022
  15.39892094  3.83753707  7.57878364
  15.40936555 11.68951584  0.09755615
  15.39994817 11.68725208  7.80880394
   7.63667876  3.97945129  0.03125607
   7.85695944  3.78607497  7.67283124
   7.83032455 11.65602456 15.40036865
   7.85202045 11.63261414  7.81599326
  15.41757018  3.98376488  3.93666931
   0.10454999  3.75596453 11.53419678
   0.07962264 11.53262563  3.75934475
  15.32799475 11.58492427 11.44923575
   7.81819148  3.70236464  3.89087128
   7.82609066  3.76889988 11.58505487
   7.74686714 11.59032003  3.89172634
   7.76165851 11.45186928 11.45480310
   3.96534429 15.39419377  0.08017028
   3.88585211 15.32330742  7.80446864
   3.76218996  7.84538015 15.40113369
   3.89263906  7.61882921  7.81851551
  11.67461993  0.01544950 15.33063896
  11.56565644  0.13639311  7.63276275
  11.43585859  7.72042010  0.06333268
  11.71293970  7.68365937  7.85844552
   3.78480023  0.03771170  3.75051040
   3.99069439 15.40576047 11.47811140
   3.86867625  7.56197038  3.89637879
   3.81267544  7.81451484 11.43677007
  11.48458974  0.03960710  3.94010233
  11.53420540  0.12657953 11.65380774
  11.70077664  7.66369260  3.69597162
  11.69145480  7.68926022 11.48916272
   3.96074426  3.88753458  0.09290641
   3.91499786  3.95633346  7.79168328
   3.90318667 11.45533816 15.33411953
   3.91430092 11.64420067  7.61034578
  11.66870574  3.89616570  0.13076017
  11.44595325  3.75579178  7.68487468
  11.45152589 11.54358691 15.30785224
  11.47361368 11.61704065  7.58836955
   3.85320456  3.96731061  3.75681342
   3.76441107  3.89726421 11.47624549
   3.73910389 11.51530150  3.96329248
   3.83464017 11.45225427 11.67360393
  11.42474176  3.88070549  3.74454016
  11.48378636  3.74767565 11.58648304
  11.45507182 11.54871147  3.95708143
  11.70198766 11.57289799 11.65169887
   0.11480974  7.77675801  9.63691028
  15.39765484  0.09943973  5.80425839
   0.05286323  0.03256657 13.46239138
   7.79842840  7.56394606  5.80361747
   7.62946558  7.57088906 13.49412491
   0.11639079 11.48022729  1.93836380
   0.18656242 11.50870226  9.62682230
   7.92061337 11.52923431  9.63317063
  15.26581185  3.82529105  5.80752624
   3.97537010  0.01886671  1.92867699
   4.01051371  0.05747210  9.64039187
   3.69305745  7.59841117  9.65038593
  11.57193263  7.44060623  1.92265351
  11.53346832  7.48848271  9.65111287
  11.54108878  0.14220796  5.80702344
  11.46048626  0.13191462 13.47126497
   3.71554186  3.88157094  1.94162435
   3.83457621  3.88696243  9.63542373
  11.37885296  4.12389849  1.95656063
   4.04535078 11.47633844  5.79314979
   4.02717171 11.57668603 13.49886722
  11.76318798 11.43754528  5.80569770
  11.72851123 11.46199221 13.48947211
   1.91620287  7.85466957 15.36986473
   9.65143662  7.88268802 15.41272073
   1.93569243  0.16766493  3.84389922
   9.64727078  0.20894298  3.81168452
   9.63440926  4.08285934  7.54141869
   9.64164924 11.37436854 15.26239405
   9.64320588 11.81401827  7.49919317
   1.92666263  3.93496206 11.62293305
   1.91305900 11.46118822  4.02733607
   9.64514842  3.65089204  4.08475429
   9.65747536  3.95714408 11.61455979
   9.67458403 11.43734150  4.04372785
   5.80135727 15.34998546 15.26038268
   5.76529722  7.88843900  7.74405276
  13.46525709 15.38541510 15.37777122
  13.52322011  7.85905762  7.69253032
   5.81071312 15.42388130 11.74708339
   5.72303735  7.46794732  3.89419522
  13.51346159  7.49161687  3.92714401
  13.50266319  7.89737223 11.52493522
   5.79078412  3.90231765  0.13493253
  13.47905491  3.92492122  0.15231364
  13.50547840 11.43974927 11.38472029
   7.97470798  1.90150193  7.53503835
  15.41479349  1.95917895 11.48213069
   7.50349244  1.94020990  4.14243846
   7.77868599  1.92906036 11.64019985
   7.78218325  9.63630189 11.63864075
   0.07197427  5.79683767  0.08601411
   0.10669307 13.49550765  0.03051691
  15.23365613 13.50772511  7.70188600
   7.82720526  5.76736380  0.19671012
   7.85208311 13.50722211  0.11578231
   0.24101632  5.76544147  3.81210962
   4.02508471  9.64189079  0.07329291
  11.32861411  1.95616601  7.88313302
   3.76762189  9.63599746 11.53703588
  11.54809073  1.94465488 11.36155745
   3.98651135  5.76076821  7.58430524
   4.02454659 13.51044428  7.69756780
   3.57316425  5.76860814  3.99922699
  15.38447062  0.05265223  1.95307719
   0.01408392 15.40544214  9.61980112
  15.37632936  7.85821483  1.93760427
   7.55793071  0.27198931  1.93329354
   7.59641834  0.09050398  9.60386346
   7.73311716  7.86868445  1.98647371
   7.86202739  7.78626518  9.60926151
   0.08618067  7.64234691  5.80131621
  15.36370817  7.65687087 13.46689915
   7.83975790 15.17742669  5.80852948
   8.01858797 15.33231139 13.49349000
   0.17553719  3.77578502  1.96762383
   0.07185728  3.99576636  9.58262058
   7.89753973  3.58231213  1.95800986
   7.77340018  3.72345670  9.59799672
   7.82775475 11.38036108  1.87601999
  15.28076951  3.89300500 13.48688568
  15.21859985 11.57853704  5.80248627
  15.29118139 11.59949046 13.47685561
   7.51407789  4.14572708  5.79173240
   7.62994486  4.03044929 13.49237104
   7.40937102 11.74012015  5.89079928
   7.50438417 11.68426309 13.46971353
   3.78370825  7.57188090  1.93573157
  11.59809990 15.32846911  1.95158800
  11.58177935 15.26811854  9.60772767
   3.84815681  0.04789656  5.79215355
   3.69943123 15.35751906 13.48283731
   3.76647131  7.91751898  5.78836159
   4.00026912  7.72397610 13.48147118
  11.45708795  7.97063933  5.78645858
  11.59474060  7.93272565 13.48726102
   3.70837349 11.64143427  1.92737934
   3.67812006 11.61038995  9.64565815
  11.51365401  4.15235559  9.60989945
  11.47109340 11.66938284  1.92505667
  11.38435103 11.67606394  9.64068515
   3.98818508  3.73829360  5.76862461
   3.95552859  3.86423578 13.50130340
  11.80694045  3.66478563  5.77750392
  11.68161765  3.64884466 13.52069982
   1.94549569  0.10619022  0.07730966
   1.93317573 15.34004792  7.74501626
   1.89966306  7.58991724  7.60357559
   9.64210603  0.12106685  0.17233230
   9.62826607 15.11376103  7.80596067
   9.67990796  7.61385757  7.59212121
   1.96607551 15.40564498 11.45852683
   1.89526431  7.94679542  3.80700769
   1.90402702  7.55905838 11.75641312
   9.62327125 15.33016367 11.36040903
   9.66827267  7.89674606  3.95320720
   9.67462988  7.55357430 11.65133968
   1.92067018  3.79794691 15.27964166
   1.90759305  3.93502680  7.59228010
   1.92793169 11.39667125 15.26495682
   1.92329230 11.71829127  7.50917734
   9.65887094  3.77731260 15.27767590
   1.91114336  3.55230708  4.03216465
   1.90812640 11.68338752 11.75825796
   9.66362434 11.67118498 11.77180728
   5.83807588  0.24585628  7.55112314
   5.75973425  7.55920888  0.12837249
  13.49081834  0.27680569  7.80293773
  13.47886219  7.60764125 15.39096243
   5.81294723 15.28094320  3.99367404
   5.78676678  7.74701165 11.40641767
  13.47891500 15.32793727  3.85226956
  13.48779247 15.38613891 11.51412070
   5.85371894  3.62880837  7.74990380
   5.79926087 11.75820725  0.17560223
   5.81376101 11.36513825  7.95319158
  13.48135366  3.74722996  7.87169995
  13.45780707 11.72584524  0.13303161
  13.47484185 11.36961462  7.94821459
   5.82077476  4.10373579  3.71614327
   5.80883886  3.82099453 11.52150867
   5.75416309 11.66096947  3.66745870
   5.78597566 11.58697311 11.36960044
  13.47890087  4.10582489  3.72165583
  13.48787579  3.89989201 11.44680824
  13.49777780 11.67479903  3.72619130
  15.40412471  1.96664354  0.00628611
   0.11233892  1.95387426  7.85106089
  15.23965465  9.64329040 15.32661683
   0.16511607  9.67093664  7.58002192
   7.70702183  1.93455125 15.25373429
   7.48336049  9.65232223 15.31423490
   7.94479423  9.64943285  7.55967954
  15.17965600  1.98036283  3.80523815
  15.25174594  9.59919612  3.98125634
   0.21720341  9.63973686 11.67833894
   7.55000527  9.56058736  4.06248049
  15.32349271  5.78291993  7.69791723
   7.50307555  5.73927069  7.90521791
   7.45857600 13.57253224  7.84073091
  15.30492437  5.79550805 11.55700320
   0.06535715 13.51868066  3.86884060
  15.38725201 13.51664050 11.51415358
   7.92686391  5.73489284  3.65607380
   7.62511278  5.77058120 11.37712442
   7.81749674 13.61098135  3.65279335
   7.71693906 13.51446329 11.51335063
   3.87342903  1.92860287 15.34044667
   3.73374421  1.92834334  7.68130112
   3.67275927  9.65623503  7.81843368
  11.56607033  1.95531573  0.21927169
  11.79414303  9.63963997  0.20689593
  11.37240461  9.64054111  7.87217928
   4.10760242  1.95693225  3.86822699
   3.83988360  1.93387081 11.66826317
   3.98078577  9.59677638  3.69853083
  11.83107827  1.96970882  3.66973287
  11.74194942  9.61106835  3.65446618
  11.35964789  9.63357107 11.39904817
   3.75209094  5.80530768 15.35258090
   3.69345781 13.47613549  0.02033816
  11.45448378  5.78884222 15.10672108
  11.75056787  5.77288787  7.44747883
  11.39419969 13.49972525 15.36453775
  11.83712024 13.54238221  7.63493188
   3.97602185  5.80872952 11.69474976
   3.77729859 13.50300101  3.91077179
   3.85493949 13.48078808 11.51690130
  11.35689523  5.78755348  4.20095603
  11.70915542  5.78441498 11.83200073
  11.48428077 13.52132032  3.94700775
  11.62329138 13.51021328 11.62057322
 


--------------------------------------------------------------------------------------------------------


 k-point  1 :   0.2500 0.2500 0.2500  plane waves:   93161
 k-point  2 :  -0.2500 0.2500 0.2500  plane waves:   93161
 k-point  3 :   0.2500-0.2500 0.2500  plane waves:   93161
 k-point  4 :  -0.2500-0.2500 0.2500  plane waves:   93161

 maximum and minimum number of plane-waves per node :     11686    11606

 maximum number of plane-waves:     93161
 maximum index in each direction: 
   IXMAX=   28   IYMAX=   28   IZMAX=   27
   IXMIN=  -28   IYMIN=  -28   IZMIN=  -28


 real space projection operators:
  total allocation   :     105606.55 KBytes
  max/ min on nodes  :      13235.97      13164.43


 parallel 3D FFT for wavefunctions:
    minimum data exchange during FFTs selected (reduces bandwidth)
 parallel 3D FFT for charge:
    minimum data exchange during FFTs selected (reduces bandwidth)


 total amount of memory used by VASP MPI-rank0   291499. kBytes
=======================================================================

   base      :      30000. kBytes
   nonlr-proj:      49464. kBytes
   fftplans  :      27976. kBytes
   grid      :      34041. kBytes
   one-center:       1026. kBytes
   wavefun   :     148992. kBytes
 
     INWAV:  cpu time   60.6942: real time   63.1939
 Broyden mixing: mesh for mixing (old mesh)
   NGX = 57   NGY = 57   NGZ = 57
  (NGX  =240   NGY  =240   NGZ  =240)
  gives a total of 185193 points

 charge density for first step will be calculated from the start-wavefunctions


--------------------------------------------------------------------------------------------------------


 Maximum index for non-local projection operator          968
 Maximum index for augmentation-charges         3290 (set IRDMAX)


--------------------------------------------------------------------------------------------------------


 initial charge from wavefunction
 First call to EWALD:  gamma=   0.115
 Maximum number of real-space cells 3x 3x 3
 Maximum number of reciprocal cells 3x 3x 3

    FEWALD:  cpu time    0.0169: real time    0.0169


--------------------------------------- Iteration      1(   1)  ---------------------------------------


    POTLOK:  cpu time    0.2712: real time    0.2859
    SETDIJ:  cpu time    1.4023: real time    1.4036
     EDDAV:  cpu time  150.5733: real time  151.2895
       DOS:  cpu time    0.0021: real time    0.0021
    CHARGE:  cpu time    5.2364: real time    5.2407
    MIXING:  cpu time    0.0077: real time    0.0078
    --------------------------------------------
      LOOP:  cpu time  157.4931: real time  158.2297

 eigenvalue-minimisations  : 24972
 total energy-change (2. order) :-0.1758294E+04  (-0.1495728E-05)
 number of electron    1923.0000026 magnetization       1.0000000
 augmentation part      496.7650939 magnetization       0.5802658

 Broyden mixing:
  rms(total) = 0.96165E-03    rms(broyden)= 0.94915E-03
  rms(prec ) = 0.10737E-02
  weight for this iteration     100.00

 Free energy of the ion-electron system (eV)
  ---------------------------------------------------
  alpha Z        PSCENC =      6118.73324990
  Ewald energy   TEWEN  =   -103790.44469065
  -Hartree energ DENC   =    -64847.71188896
  -exchange      EXHF   =         0.00000000
  -V(xc)+E(xc)   XCENC  =      8966.56955333
  PAW double counting   =    196638.02644282  -197641.59578161
  entropy T*S    EENTRO =        -0.00000000
  eigenvalues    EBANDS =    -25779.12300905
  atomic energy  EATOM  =    178577.25249613
  Solvation  Ediel_sol  =         0.00000000
  ---------------------------------------------------
  free energy    TOTEN  =     -1758.29362810 eV

  energy without entropy =    -1758.29362810  energy(sigma->0) =    -1758.29362810


--------------------------------------------------------------------------------------------------------




--------------------------------------- Iteration      1(   2)  ---------------------------------------


    POTLOK:  cpu time    0.2603: real time    0.2622
    SETDIJ:  cpu time    1.4052: real time    1.4198
     EDDAV:  cpu time  145.6893: real time  146.4829
       DOS:  cpu time    0.0020: real time    0.0020
    CHARGE:  cpu time    5.3026: real time    5.3063
    MIXING:  cpu time    0.0178: real time    0.0178
    --------------------------------------------
      LOOP:  cpu time  152.6771: real time  153.4910

 eigenvalue-minimisations  : 25728
 total energy-change (2. order) : 0.1190609E-05  (-0.1337138E-05)
 number of electron    1923.0000026 magnetization       1.0000000
 augmentation part      496.7645105 magnetization       0.5802672

 Broyden mixing:
  rms(total) = 0.59224E-03    rms(broyden)= 0.57194E-03
  rms(prec ) = 0.64067E-03
  weight for this iteration     100.00

 eigenvalues of (default mixing * dielectric matrix)
  average eigenvalue GAMMA=   0.6547
  0.6547

 Free energy of the ion-electron system (eV)
  ---------------------------------------------------
  alpha Z        PSCENC =      6118.73324990
  Ewald energy   TEWEN  =   -103790.44469065
  -Hartree energ DENC   =    -64847.71648024
  -exchange      EXHF   =         0.00000000
  -V(xc)+E(xc)   XCENC  =      8966.56878972
  PAW double counting   =    196637.92479528  -197641.49226559
  entropy T*S    EENTRO =        -0.00000000
  eigenvalues    EBANDS =    -25779.11952147
  atomic energy  EATOM  =    178577.25249613
  Solvation  Ediel_sol  =         0.00000000
  ---------------------------------------------------
  free energy    TOTEN  =     -1758.29362691 eV

  energy without entropy =    -1758.29362691  energy(sigma->0) =    -1758.29362691


--------------------------------------------------------------------------------------------------------




--------------------------------------- Iteration      1(   3)  ---------------------------------------


    POTLOK:  cpu time    0.2827: real time    0.2833
    SETDIJ:  cpu time    1.4357: real time    1.4365
     EDDAV:  cpu time  100.4443: real time  101.0497
       DOS:  cpu time    0.0023: real time    0.0023
    --------------------------------------------
      LOOP:  cpu time  102.1650: real time  102.7718

 eigenvalue-minimisations  : 15504
 total energy-change (2. order) : 0.3297755E-06  (-0.2281510E-06)
 number of electron    1923.0000026 magnetization       1.0000000
 augmentation part      496.7645105 magnetization       0.5802672

 Free energy of the ion-electron system (eV)
  ---------------------------------------------------
  alpha Z        PSCENC =      6118.73324990
  Ewald energy   TEWEN  =   -103790.44469065
  -Hartree energ DENC   =    -64847.71735494
  -exchange      EXHF   =         0.00000000
  -V(xc)+E(xc)   XCENC  =      8966.56930756
  PAW double counting   =    196637.96108756  -197641.52973517
  entropy T*S    EENTRO =        -0.00000000
  eigenvalues    EBANDS =    -25779.11798697
  atomic energy  EATOM  =    178577.25249613
  Solvation  Ediel_sol  =         0.00000000
  ---------------------------------------------------
  free energy    TOTEN  =     -1758.29362658 eV

  energy without entropy =    -1758.29362658  energy(sigma->0) =    -1758.29362658


--------------------------------------------------------------------------------------------------------




 average (electrostatic) potential at core
  the test charge radii are     0.7079  1.0397  0.7215  0.7167
  (the norm of the test charge is              1.0000)
       1 -62.5928       2 -58.4627       3 -58.8234       4 -58.8247       5 -58.9911
       6 -58.7702       7 -59.8256       8 -58.5494       9 -58.7939      10 -58.8662
      11 -58.6259      12 -59.0446      13 -58.9774      14 -59.0864      15 -58.9134
      16 -58.8492      17 -58.7048      18 -58.8894      19 -59.5798      20 -58.6000
      21 -58.8709      22 -58.6898      23 -59.4750      24 -58.7709      25 -58.8210
      26 -59.2039      27 -58.7323      28 -58.6913      29 -58.8494      30 -59.0624
      31 -58.9784      32 -56.9084      33 -58.7504      34 -58.7950      35 -58.8424
      36 -58.7376      37 -58.5442      38 -58.7101      39 -59.1697      40 -58.8200
      41 -58.9244      42 -58.8283      43 -58.8707      44 -58.9190      45 -58.6929
      46 -59.1519      47 -58.8363      48 -58.8494      49 -59.0403      50 -58.7998
      51 -58.7671      52 -58.7266      53 -58.8051      54 -58.9597      55 -59.2501
      56 -58.8125      57 -58.8329      58 -58.8614      59 -58.8123      60 -58.7201
      61 -58.7547      62 -59.0315      63 -58.9192      64 -58.6555      65 -58.8693
      66 -74.2738      67 -73.9819      68 -73.8243      69 -73.9429      70 -73.8913
      71 -73.8197      72 -73.9577      73 -74.0427      74 -74.6087      75 -73.9294
      76 -73.9929      77 -73.9911      78 -74.1699      79 -74.2175      80 -74.2430
      81 -74.0020      82 -73.9782      83 -73.9431      84 -74.3230      85 -73.8692
      86 -73.8694      87 -73.9232      88 -73.9809      89 -73.9103      90 -73.9098
      91 -73.9802      92 -74.1901      93 -74.6249      94 -74.0487      95 -74.1085
      96 -73.9820      97 -73.8448      98 -74.3484      99 -74.0772     100 -73.6811
     101 -73.8924     102 -74.1190     103 -73.8235     104 -74.2026     105 -74.2017
     106 -74.1915     107 -74.2056     108 -74.2525     109 -73.9232     110 -74.0444
     111 -74.1226     112 -74.8224     113 -74.0642     114 -74.3081     115 -74.0790
     116 -73.9330     117 -73.9413     118 -73.7519     119 -74.2158     120 -73.8268
     121 -73.8895     122 -74.3579     123 -74.0217     124 -74.4749     125 -74.0449
     126 -74.1752     127 -73.8781     128 -73.9472     129 -74.1529     130 -78.3653
     131 -78.3739     132 -79.2162     133 -79.4663     134 -79.7643     135 -78.5126
     136 -78.5158     137 -79.0782     138 -79.0183     139 -79.7772     140 -79.4257
     141 -79.1538     142 -79.1023     143 -79.4716     144 -79.6381     145 -78.7409
     146 -79.1739     147 -78.2835     148 -78.2961     149 -79.7041     150 -79.3856
     151 -78.5426     152 -78.8108     153 -79.0954     154 -78.5315     155 -78.5375
     156 -78.4012     157 -78.3627     158 -78.9136     159 -78.8423     160 -78.8082
     161 -78.6695     162 -78.2770     163 -78.2349     164 -79.3069     165 -78.3650
     166 -78.3664     167 -78.4153     168 -78.3763     169 -79.1861     170 -79.0275
     171 -78.2634     172 -79.4468     173 -78.7020     174 -78.2566     175 -79.8021
     176 -78.7685     177 -78.9164     178 -78.6899     179 -78.9484     180 -78.9866
     181 -78.7839     182 -78.9375     183 -78.3662     184 -79.4328     185 -78.9214
     186 -79.0052     187 -78.3983     188 -79.2193     189 -78.8849     190 -78.8820
     191 -79.7325     192 -78.3529     193 -79.5521     194 -78.2582     195 -78.4653
     196 -79.0708     197 -78.4516     198 -79.0864     199 -79.1641     200 -78.8006
     201 -78.8227     202 -79.4265     203 -78.7486     204 -78.9053     205 -79.0109
     206 -78.4562     207 -78.3701     208 -79.0572     209 -79.1336     210 -78.5179
     211 -78.2372     212 -78.2768     213 -79.3028     214 -78.2965     215 -79.1459
     216 -78.2336     217 -78.2706     218 -79.2200     219 -78.9917     220 -78.9340
     221 -79.2251     222 -78.8598     223 -79.4683     224 -79.2762     225 -79.1593
     226 -79.0411     227 -79.0320     228 -78.9604     229 -79.0347     230 -78.4845
     231 -78.7248     232 -78.4421     233 -79.0236     234 -78.3376     235 -78.3385
     236 -79.3052     237 -79.3068     238 -79.2255     239 -78.9251     240 -79.1052
     241 -78.8191     242 -79.4838     243 -79.3694     244 -79.2049     245 -78.8312
     246 -78.8452     247 -79.3506     248 -79.1608     249 -79.2613     250 -79.0856
     251 -78.9120     252 -79.0022     253 -78.9239     254 -79.5334     255 -79.0306
     256 -79.3541     257 -78.9730
 
 
 
 E-fermi :  -0.7523     XC(G=0):  -9.0602     alpha+bet : -7.7421


 spin component 1

 k-point     1 :       0.2500    0.2500    0.2500
  band No.  band energies     occupation 
      1     -43.2864      1.00000
      2     -35.8225      1.00000
      3     -35.8066      1.00000
      4     -35.6282      1.00000
      5     -35.5543      1.00000
      6     -35.5438      1.00000
      7     -35.4944      1.00000
      8     -35.3994      1.00000
      9     -35.3465      1.00000
     10     -35.3260      1.00000
     11     -35.2267      1.00000
     12     -35.1929      1.00000
     13     -35.1769      1.00000
     14     -35.1540      1.00000
     15     -35.1475      1.00000
     16     -35.1203      1.00000
     17     -35.1198      1.00000
     18     -35.1071      1.00000
     19     -35.1022      1.00000
     20     -35.0638      1.00000
     21     -35.0542      1.00000
     22     -35.0438      1.00000
     23     -35.0406      1.00000
     24     -35.0375      1.00000
     25     -35.0196      1.00000
     26     -35.0131      1.00000
     27     -35.0050      1.00000
     28     -34.9961      1.00000
     29     -34.9890      1.00000
     30     -34.9875      1.00000
     31     -34.9746      1.00000
     32     -34.9671      1.00000
     33     -34.9626      1.00000
     34     -34.9505      1.00000
     35     -34.9432      1.00000
     36     -34.9383      1.00000
     37     -34.9252      1.00000
     38     -34.9223      1.00000
     39     -34.9210      1.00000
     40     -34.9157      1.00000
     41     -34.9127      1.00000
     42     -34.9093      1.00000
     43     -34.9066      1.00000
     44     -34.9028      1.00000
     45     -34.8968      1.00000
     46     -34.8937      1.00000
     47     -34.8928      1.00000
     48     -34.8918      1.00000
     49     -34.8843      1.00000
     50     -34.8786      1.00000
     51     -34.8757      1.00000
     52     -34.8687      1.00000
     53     -34.8666      1.00000
     54     -34.8663      1.00000
     55     -34.8558      1.00000
     56     -34.8554      1.00000
     57     -34.8533      1.00000
     58     -34.8495      1.00000
     59     -34.8466      1.00000
     60     -34.8445      1.00000
     61     -34.8441      1.00000
     62     -34.8435      1.00000
     63     -34.8427      1.00000
     64     -34.8397      1.00000
     65     -34.8373      1.00000
     66     -34.8357      1.00000
     67     -34.8306      1.00000
     68     -34.8222      1.00000
     69     -34.8138      1.00000
     70     -34.8123      1.00000
     71     -34.8104      1.00000
     72     -34.8074      1.00000
     73     -34.8067      1.00000
     74     -34.8060      1.00000
     75     -34.8026      1.00000
     76     -34.8015      1.00000
     77     -34.8005      1.00000
     78     -34.7942      1.00000
     79     -34.7938      1.00000
     80     -34.7937      1.00000
     81     -34.7920      1.00000
     82     -34.7836      1.00000
     83     -34.7796      1.00000
     84     -34.7790      1.00000
     85     -34.7692      1.00000
     86     -34.7656      1.00000
     87     -34.7636      1.00000
     88     -34.7602      1.00000
     89     -34.7594      1.00000
     90     -34.7593      1.00000
     91     -34.7495      1.00000
     92     -34.7412      1.00000
     93     -34.7389      1.00000
     94     -34.7372      1.00000
     95     -34.7368      1.00000
     96     -34.7364      1.00000
     97     -34.7351      1.00000
     98     -34.7344      1.00000
     99     -34.7328      1.00000
    100     -34.7318      1.00000
    101     -34.7311      1.00000
    102     -34.7287      1.00000
    103     -34.7284      1.00000
    104     -34.7221      1.00000
    105     -34.7213      1.00000
    106     -34.7194      1.00000
    107     -34.7178      1.00000
    108     -34.7155      1.00000
    109     -34.7140      1.00000
    110     -34.7125      1.00000
    111     -34.7041      1.00000
[...]
   81        1.573   3.457   0.000   5.031
   82        1.575   3.458   0.000   5.033
   83        1.574   3.458   0.000   5.032
   84        1.576   3.464   0.000   5.039
   85        1.575   3.456   0.000   5.031
   86        1.574   3.460   0.000   5.035
   87        1.575   3.458   0.000   5.032
   88        1.575   3.460   0.000   5.034
   89        1.574   3.459   0.000   5.034
   90        1.576   3.455   0.000   5.030
   91        1.574   3.457   0.000   5.031
   92        1.575   3.456   0.000   5.031
   93        1.577   3.466   0.000   5.043
   94        1.576   3.466   0.000   5.042
   95        1.575   3.465   0.000   5.040
   96        1.575   3.462   0.000   5.036
   97        1.575   3.459   0.000   5.034
   98        1.575   3.466   0.000   5.042
   99        1.575   3.462   0.000   5.037
  100        1.573   3.462   0.000   5.036
  101        1.574   3.455   0.000   5.029
  102        1.577   3.463   0.000   5.040
  103        1.575   3.455   0.000   5.031
  104        1.575   3.467   0.000   5.042
  105        1.577   3.469   0.000   5.046
  106        1.576   3.467   0.000   5.043
  107        1.575   3.467   0.000   5.042
  108        1.576   3.470   0.000   5.046
  109        1.574   3.460   0.000   5.034
  110        1.575   3.457   0.000   5.032
  111        1.576   3.467   0.000   5.042
  112        1.576   3.459   0.000   5.035
  113        1.576   3.472   0.000   5.048
  114        1.577   3.465   0.000   5.042
  115        1.574   3.463   0.000   5.037
  116        1.574   3.461   0.000   5.035
  117        1.575   3.459   0.000   5.034
  118        1.575   3.460   0.000   5.035
  119        1.576   3.473   0.000   5.049
  120        1.575   3.456   0.000   5.031
  121        1.574   3.457   0.000   5.031
  122        1.577   3.464   0.000   5.041
  123        1.577   3.470   0.000   5.047
  124        1.576   3.463   0.000   5.039
  125        1.576   3.473   0.000   5.048
  126        1.576   3.466   0.000   5.042
  127        1.574   3.457   0.000   5.031
  128        1.574   3.457   0.000   5.031
  129        1.577   3.464   0.000   5.041
  130        1.737   4.369   0.000   6.105
  131        1.737   4.371   0.000   6.107
  132        1.737   4.378   0.000   6.116
  133        1.738   4.381   0.000   6.119
  134        1.738   4.381   0.000   6.119
  135        1.737   4.367   0.000   6.104
  136        1.737   4.366   0.000   6.103
  137        1.739   4.379   0.000   6.118
  138        1.738   4.381   0.000   6.119
  139        1.739   4.380   0.000   6.120
  140        1.739   4.382   0.000   6.121
  141        1.738   4.378   0.000   6.116
  142        1.738   4.379   0.000   6.116
  143        1.738   4.381   0.000   6.119
  144        1.738   4.383   0.000   6.121
  145        1.737   4.380   0.000   6.118
  146        1.737   4.379   0.000   6.116
  147        1.736   4.365   0.000   6.102
  148        1.736   4.365   0.000   6.101
  149        1.739   4.379   0.000   6.119
  150        1.738   4.384   0.000   6.122
  151        1.737   4.376   0.000   6.112
  152        1.737   4.373   0.000   6.110
  153        1.737   4.380   0.000   6.118
  154        1.737   4.369   0.000   6.106
  155        1.737   4.369   0.000   6.106
  156        1.737   4.369   0.000   6.105
  157        1.737   4.366   0.000   6.103
  158        1.738   4.374   0.000   6.112
  159        1.738   4.375   0.000   6.113
  160        1.735   4.380   0.000   6.115
  161        1.737   4.371   0.000   6.108
  162        1.736   4.366   0.000   6.102
  163        1.736   4.364   0.000   6.100
  164        1.737   4.372   0.000   6.109
  165        1.736   4.366   0.000   6.102
  166        1.736   4.364   0.000   6.100
  167        1.737   4.368   0.000   6.105
  168        1.737   4.369   0.000   6.106
  169        1.738   4.370   0.000   6.108
  170        1.737   4.373   0.000   6.110
  171        1.737   4.368   0.000   6.104
  172        1.737   4.385   0.000   6.122
  173        1.738   4.377   0.000   6.115
  174        1.737   4.367   0.000   6.104
  175        1.739   4.377   0.000   6.116
  176        1.736   4.379   0.000   6.114
  177        1.737   4.378   0.000   6.115
  178        1.738   4.371   0.000   6.109
  179        1.738   4.375   0.000   6.112
  180        1.738   4.377   0.000   6.115
  181        1.735   4.378   0.000   6.113
  182        1.738   4.376   0.000   6.114
  183        1.737   4.366   0.000   6.102
  184        1.737   4.377   0.000   6.114
  185        1.737   4.376   0.000   6.113
  186        1.737   4.375   0.000   6.112
  187        1.737   4.367   0.000   6.104
  188        1.738   4.372   0.000   6.110
  189        1.738   4.377   0.000   6.115
  190        1.738   4.375   0.000   6.113
  191        1.739   4.381   0.000   6.120
  192        1.737   4.368   0.000   6.105
  193        1.738   4.384   0.000   6.122
  194        1.736   4.366   0.000   6.103
  195        1.737   4.366   0.000   6.103
  196        1.737   4.380   0.000   6.117
  197        1.737   4.366   0.000   6.103
  198        1.737   4.380   0.000   6.117
  199        1.738   4.377   0.000   6.114
  200        1.738   4.374   0.000   6.112
  201        1.738   4.370   0.000   6.108
  202        1.738   4.375   0.000   6.113
  203        1.738   4.376   0.000   6.114
  204        1.738   4.371   0.000   6.109
  205        1.737   4.370   0.000   6.107
  206        1.736   4.368   0.000   6.104
  207        1.736   4.375   0.000   6.111
  208        1.737   4.377   0.000   6.114
  209        1.737   4.370   0.000   6.107
  210        1.737   4.369   0.000   6.106
  211        1.737   4.367   0.000   6.104
  212        1.737   4.367   0.000   6.104
  213        1.739   4.372   0.000   6.111
  214        1.736   4.366   0.000   6.102
  215        1.739   4.377   0.000   6.115
  216        1.736   4.365   0.000   6.101
  217        1.736   4.363   0.000   6.100
  218        1.736   4.375   0.000   6.111
  219        1.738   4.375   0.000   6.114
  220        1.738   4.376   0.000   6.114
  221        1.738   4.378   0.000   6.116
  222        1.737   4.379   0.000   6.116
  223        1.737   4.380   0.000   6.117
  224        1.738   4.377   0.000   6.114
  225        1.738   4.374   0.000   6.112
  226        1.738   4.377   0.000   6.116
  227        1.737   4.377   0.000   6.113
  228        1.738   4.377   0.000   6.115
  229        1.738   4.372   0.000   6.110
  230        1.737   4.367   0.000   6.104
  231        1.737   4.376   0.000   6.113
  232        1.736   4.367   0.000   6.104
  233        1.738   4.379   0.000   6.117
  234        1.737   4.367   0.000   6.104
  235        1.737   4.366   0.000   6.103
  236        1.738   4.383   0.000   6.121
  237        1.739   4.380   0.000   6.119
  238        1.737   4.375   0.000   6.112
  239        1.738   4.375   0.000   6.113
  240        1.737   4.380   0.000   6.117
  241        1.738   4.373   0.000   6.110
  242        1.738   4.379   0.000   6.117
  243        1.738   4.382   0.000   6.119
  244        1.738   4.376   0.000   6.113
  245        1.738   4.377   0.000   6.115
  246        1.738   4.376   0.000   6.114
  247        1.738   4.379   0.000   6.118
  248        1.737   4.372   0.000   6.110
  249        1.737   4.382   0.000   6.120
  250        1.737   4.373   0.000   6.110
  251        1.738   4.379   0.000   6.117
  252        1.737   4.377   0.000   6.114
  253        1.738   4.378   0.000   6.117
  254        1.739   4.379   0.000   6.117
  255        1.738   4.372   0.000   6.110
  256        1.737   4.382   0.000   6.120
  257        1.737   4.376   0.000   6.113
--------------------------------------------------
tot        345.3261194.376 111.8781651.580
 


 magnetization (x)
 
# of ion       s       p       d       tot
------------------------------------------
    1       -0.000  -0.000   0.000  -0.000
    2       -0.000  -0.000  -0.000  -0.000
    3        0.000   0.000   0.000   0.000
    4        0.000  -0.000  -0.000  -0.000
    5       -0.000  -0.000  -0.000  -0.000
    6        0.000   0.000   0.002   0.002
    7        0.000   0.000   0.001   0.001
    8        0.000   0.000   0.000   0.000
    9        0.000   0.000   0.001   0.001
   10       -0.000  -0.000  -0.000  -0.000
   11        0.000   0.000   0.000   0.000
   12       -0.000  -0.000  -0.000  -0.000
   13        0.000   0.000   0.000   0.000
   14        0.000  -0.000   0.009   0.009
   15        0.000   0.000   0.000   0.000
   16       -0.000  -0.000   0.005   0.005
   17        0.000   0.000   0.000   0.000
   18        0.000  -0.000  -0.000  -0.000
   19       -0.000   0.000  -0.000   0.000
   20       -0.000  -0.000  -0.000  -0.000
   21       -0.000   0.000  -0.000  -0.000
   22        0.000   0.000   0.000   0.000
   23        0.000   0.000   0.000   0.000
   24       -0.000   0.000   0.006   0.006
   25       -0.000  -0.000   0.006   0.006
   26       -0.000  -0.000  -0.000  -0.000
   27       -0.000  -0.000  -0.000  -0.000
   28       -0.000  -0.000  -0.000  -0.000
   29        0.000   0.000  -0.000  -0.000
   30       -0.000  -0.000   0.001   0.001
   31        0.000   0.000   0.000   0.000
   32        0.005   0.006   0.923   0.935
   33       -0.000  -0.000   0.000   0.000
   34       -0.000  -0.000  -0.000  -0.000
   35       -0.000  -0.000   0.000   0.000
   36        0.000   0.000   0.000   0.000
   37       -0.000  -0.000  -0.000  -0.000
   38       -0.000  -0.000   0.000   0.000
   39       -0.000  -0.000   0.000   0.000
   40       -0.000  -0.000  -0.000  -0.000
   41        0.000  -0.000   0.000   0.000
   42       -0.000  -0.000   0.000   0.000
   43       -0.000  -0.000  -0.000  -0.000
   44       -0.000  -0.000  -0.000  -0.000
   45        0.000  -0.000   0.000   0.000
   46       -0.000  -0.000  -0.000  -0.000
   47       -0.000   0.000   0.000   0.000
   48        0.000   0.000   0.000   0.000
   49        0.000   0.000   0.000   0.000
   50       -0.000  -0.000  -0.000  -0.000
   51        0.000   0.000  -0.000  -0.000
   52       -0.000  -0.000   0.000   0.000
   53       -0.000  -0.000   0.000   0.000
   54        0.000   0.000   0.000   0.000
   55       -0.000  -0.000  -0.000  -0.000
   56       -0.000  -0.000  -0.000  -0.000
   57       -0.000  -0.000  -0.000  -0.000
   58        0.000  -0.000  -0.000  -0.000
   59       -0.000  -0.000   0.000   0.000
   60       -0.000  -0.000   0.000  -0.000
   61       -0.000  -0.000   0.000   0.000
   62       -0.000  -0.000  -0.000  -0.000
   63       -0.000  -0.000  -0.000  -0.000
   64       -0.000  -0.000  -0.003  -0.004
   65        0.000  -0.000  -0.000  -0.000
   66       -0.000   0.000   0.000   0.000
   67       -0.000  -0.000   0.000  -0.000
   68        0.000  -0.000   0.000  -0.000
   69       -0.000  -0.000   0.000  -0.000
   70        0.000  -0.000   0.000  -0.000
   71        0.000  -0.000   0.000  -0.000
   72       -0.000  -0.000   0.000  -0.000
   73       -0.000  -0.001   0.000  -0.001
   74       -0.000   0.000   0.000   0.000
   75       -0.000  -0.000   0.000  -0.000
   76        0.000  -0.000   0.000  -0.000
   77       -0.000  -0.000   0.000  -0.000
   78       -0.000   0.000   0.000   0.000
   79       -0.000  -0.000   0.000  -0.000
   80       -0.000  -0.000   0.000  -0.000
   81       -0.000  -0.000   0.000  -0.000
   82        0.000  -0.000   0.000  -0.000
   83        0.000  -0.000   0.000  -0.000
   84       -0.000  -0.000   0.000  -0.000
   85       -0.000  -0.000   0.000  -0.000
   86       -0.000  -0.000   0.000  -0.000
   87        0.000  -0.000   0.000  -0.000
   88       -0.000  -0.000   0.000  -0.000
   89       -0.000  -0.000   0.000  -0.000
   90       -0.000  -0.000   0.000  -0.000
   91       -0.000  -0.000   0.000  -0.000
   92       -0.000  -0.000   0.000  -0.000
   93       -0.000  -0.000   0.000  -0.000
   94       -0.000  -0.000   0.000  -0.000
   95       -0.000  -0.000   0.000  -0.000
   96       -0.000  -0.000   0.000  -0.000
   97       -0.000  -0.000   0.000  -0.000
   98       -0.000  -0.000   0.000  -0.000
   99       -0.000  -0.000   0.000  -0.000
  100       -0.001  -0.015   0.000  -0.016
  101       -0.000  -0.000   0.000  -0.000
  102       -0.000  -0.000   0.000  -0.000
  103       -0.000  -0.000   0.000  -0.000
  104       -0.000  -0.000   0.000  -0.000
  105       -0.000  -0.000   0.000  -0.000
  106       -0.000  -0.000   0.000  -0.000
  107       -0.000  -0.000   0.000  -0.000
  108       -0.000  -0.000   0.000  -0.000
  109       -0.000  -0.000   0.000  -0.000
  110       -0.000  -0.000   0.000  -0.000
  111       -0.000  -0.000   0.000  -0.000
  112       -0.000  -0.000   0.000  -0.000
  113       -0.000   0.000   0.000   0.000
  114       -0.000  -0.001   0.000  -0.001
  115       -0.000  -0.000   0.000  -0.000
  116       -0.000  -0.000   0.000  -0.000
  117        0.000  -0.000   0.000  -0.000
  118        0.000  -0.000   0.000  -0.000
  119        0.000   0.000   0.000   0.000
  120        0.000  -0.000   0.000  -0.000
  121       -0.000  -0.001   0.000  -0.001
  122       -0.000  -0.000   0.000  -0.000
  123       -0.000  -0.000   0.000  -0.000
  124       -0.000  -0.000   0.000  -0.000
  125       -0.000  -0.000   0.000  -0.000
  126       -0.000  -0.000   0.000  -0.000
  127       -0.000  -0.000   0.000  -0.000
  128       -0.000  -0.000   0.000  -0.000
  129       -0.000  -0.000   0.000  -0.000
  130       -0.000  -0.000   0.000  -0.000
  131        0.000  -0.000   0.000  -0.000
  132       -0.000   0.000   0.000   0.000
  133        0.000  -0.000   0.000  -0.000
  134        0.000   0.000   0.000   0.000
  135        0.000   0.000   0.000   0.000
  136       -0.000  -0.000   0.000  -0.000
  137        0.000  -0.000   0.000  -0.000
  138       -0.000   0.000   0.000   0.000
  139        0.000  -0.000   0.000  -0.000
  140       -0.000   0.000   0.000   0.000
  141        0.000   0.000   0.000   0.000
  142       -0.000  -0.000   0.000  -0.000
  143       -0.000  -0.000   0.000  -0.000
  144       -0.000  -0.000   0.000  -0.000
  145       -0.000   0.002   0.000   0.002
  146       -0.000   0.000   0.000   0.000
  147        0.000  -0.000   0.000  -0.000
  148        0.000  -0.000   0.000  -0.000
  149       -0.000  -0.000   0.000  -0.000
  150        0.000  -0.000   0.000  -0.000
  151       -0.000   0.002   0.000   0.002
  152        0.000  -0.000   0.000  -0.000
  153       -0.000  -0.000   0.000  -0.000
  154       -0.000  -0.000   0.000  -0.000
  155       -0.000  -0.000   0.000  -0.000
  156        0.000  -0.000   0.000  -0.000
  157       -0.000  -0.000   0.000  -0.000
  158       -0.000  -0.000   0.000  -0.000
  159        0.000   0.000   0.000   0.000
  160       -0.000  -0.000   0.000  -0.000
  161       -0.000  -0.000   0.000  -0.000
  162       -0.000  -0.000   0.000  -0.000
  163       -0.000  -0.000   0.000  -0.000
  164       -0.000  -0.000   0.000  -0.000
  165       -0.000  -0.000   0.000  -0.000
  166        0.000  -0.000   0.000  -0.000
  167        0.000  -0.000   0.000  -0.000
  168       -0.000  -0.000   0.000  -0.000
  169       -0.000  -0.000   0.000  -0.000
  170        0.000   0.000   0.000   0.000
  171       -0.000  -0.000   0.000  -0.000
  172       -0.000  -0.000   0.000  -0.000
  173       -0.000  -0.000   0.000  -0.000
  174       -0.000  -0.000   0.000  -0.000
  175       -0.000  -0.000   0.000  -0.000
  176        0.000  -0.000   0.000  -0.000
  177       -0.000  -0.000   0.000  -0.000
  178       -0.000  -0.000   0.000  -0.000
  179       -0.000  -0.000   0.000  -0.000
  180       -0.000  -0.000   0.000  -0.000
  181       -0.000  -0.000   0.000  -0.000
  182       -0.000  -0.000   0.000  -0.000
  183       -0.000  -0.000   0.000  -0.000
  184       -0.000  -0.000   0.000  -0.000
  185       -0.000  -0.000   0.000  -0.000
  186       -0.000  -0.000   0.000  -0.000
  187       -0.000  -0.000   0.000  -0.000
  188       -0.000  -0.000   0.000  -0.000
  189       -0.000  -0.000   0.000  -0.000
  190       -0.000  -0.000   0.000  -0.000
  191       -0.000  -0.000   0.000  -0.000
  192       -0.000  -0.000   0.000  -0.000
  193       -0.000  -0.000   0.000  -0.000
  194       -0.000  -0.000   0.000  -0.000
  195       -0.000  -0.000   0.000  -0.000
  196       -0.000  -0.000   0.000  -0.000
  197       -0.000  -0.000   0.000  -0.000
  198       -0.000  -0.000   0.000  -0.000
  199       -0.000  -0.000   0.000  -0.000
  200       -0.000  -0.000   0.000  -0.000
  201       -0.000  -0.000   0.000  -0.000
  202       -0.000  -0.000   0.000  -0.000
  203       -0.000  -0.000   0.000  -0.000
  204       -0.000  -0.000   0.000  -0.000
  205       -0.000  -0.000   0.000  -0.000
  206        0.000  -0.000   0.000  -0.000
  207       -0.000  -0.007   0.000  -0.007
  208       -0.000  -0.000   0.000  -0.000
  209       -0.000  -0.000   0.000  -0.000
  210       -0.000  -0.000   0.000  -0.000
  211       -0.000  -0.000   0.000  -0.000
  212       -0.000  -0.000   0.000  -0.000
  213       -0.000   0.000   0.000   0.000
  214       -0.000  -0.000   0.000  -0.000
  215       -0.000   0.000   0.000   0.000
  216       -0.000   0.000   0.000   0.000
  217        0.000   0.000   0.000   0.000
  218        0.000  -0.000   0.000  -0.000
  219       -0.000  -0.000   0.000  -0.000
  220        0.000   0.000   0.000   0.000
  221        0.000   0.000   0.000   0.000
  222       -0.000   0.002   0.000   0.001
  223        0.000   0.000   0.000   0.000
  224        0.000   0.000   0.000   0.000
  225        0.000   0.000   0.000   0.000
  226        0.000  -0.000   0.000  -0.000
  227        0.000  -0.000   0.000  -0.000
  228       -0.000  -0.000   0.000  -0.000
  229       -0.000  -0.000   0.000  -0.000
  230        0.000   0.000   0.000   0.000
  231       -0.000   0.000   0.000   0.000
  232       -0.000  -0.000   0.000  -0.000
  233       -0.000  -0.000   0.000  -0.000
  234       -0.000  -0.000   0.000  -0.000
  235       -0.000  -0.000   0.000  -0.000
  236       -0.000  -0.000   0.000  -0.000
  237       -0.000  -0.000   0.000  -0.000
  238        0.000   0.000   0.000   0.000
  239       -0.000  -0.000   0.000  -0.000
  240        0.000   0.000   0.000   0.000
  241       -0.000  -0.000   0.000  -0.000
  242       -0.000  -0.000   0.000  -0.000
  243        0.000  -0.000   0.000  -0.000
  244        0.000  -0.000   0.000  -0.000
  245        0.000   0.000   0.000   0.000
  246       -0.000  -0.000   0.000  -0.000
  247        0.000  -0.000   0.000  -0.000
  248       -0.000  -0.000   0.000  -0.000
  249       -0.000  -0.000   0.000  -0.000
  250        0.000  -0.000   0.000  -0.000
  251        0.000   0.000   0.000   0.000
  252       -0.000  -0.000   0.000  -0.000
  253       -0.000  -0.000   0.000  -0.000
  254       -0.000  -0.000   0.000  -0.000
  255        0.000  -0.000   0.000  -0.000
  256        0.000  -0.000   0.000  -0.000
  257       -0.000  -0.000   0.000  -0.000
--------------------------------------------------
tot          0.002  -0.016   0.951   0.938
 

 total amount of memory used by VASP MPI-rank0   291499. kBytes
=======================================================================

   base      :      30000. kBytes
   nonlr-proj:      49464. kBytes
   fftplans  :      27976. kBytes
   grid      :      34041. kBytes
   one-center:       1026. kBytes
   wavefun   :     148992. kBytes
 
  
  
 General timing and accounting informations for this job:
 ========================================================
  
                  Total CPU time used (sec):     1039.979
                            User time (sec):      705.727
                          System time (sec):      334.252
                         Elapsed time (sec):     1068.491
  
                   Maximum memory used (kb):      624428.
                   Average memory used (kb):           0.
  
                          Minor page faults:       100849
                          Major page faults:            0
                 Voluntary context switches:        17161
