 vasp.5.4.4.18Apr17-6-g9f103f2a35 (build Apr 30 2017 20:10:35) complex          
  
 executed on             LinuxIFC date 2017.08.20  08:28:49
 running on  128 total cores
 distrk:  each k-point on  128 cores,    1 groups
 distr:  one band on NCORES_PER_BAND=   8 cores,   16 groups


--------------------------------------------------------------------------------------------------------


 INCAR:
 POTCAR:   PAW_PBE Ti_pv 07Sep2000                
 POTCAR:   PAW_PBE O 08Apr2002                    
 POTCAR:    PAW_PBE F 08Apr2002                   
 POTCAR:   PAW_PBE Ti_pv 07Sep2000                
   VRHFIN =Ti: d3 s1                                                            
   LEXCH  = PE                                                                  
   EATOM  =  1042.3781 eV,   76.6126 Ry                                         
                                                                                
   TITEL  = PAW_PBE Ti_pv 07Sep2000                                             
   LULTRA =        F    use ultrasoft PP ?                                      
   IUNSCR =        1    unscreen: 0-lin 1-nonlin 2-no                           
   RPACOR =    2.200    partial core radius                                     
   POMASS =   47.880; ZVAL   =   10.000    mass and valenz                      
   RCORE  =    2.500    outmost cutoff radius                                   
   RWIGS  =    2.500; RWIGS  =    1.323    wigner-seitz radius (au A)           
   ENMAX  =  222.338; ENMIN  =  166.753 eV                                      
   RCLOC  =    1.701    cutoff for local pot                                    
   LCOR   =        T    correct aug charges                                     
   LPAW   =        T    paw PP                                                  
   EAUG   =  482.848                                                            
   DEXC   =    -.008                                                            
   RMAX   =    3.092    core radius for proj-oper                               
   RAUG   =    1.300    factor for augmentation sphere                          
   RDEP   =    2.538    radius for radial grids                                 
   QCUT   =   -4.042; QGAM   =    8.085    optimization parameters              
                                                                                
   Description                                                                  
     l     E      TYP  RCUT    TYP  RCUT                                        
     1   .000     23  2.300                                                     
     1  -.100     23  2.300                                                     
     2   .000     23  2.500                                                     
     2   .000     23  2.500                                                     
     0   .000     23  2.500                                                     
     0  1.500     23  2.500                                                     
     3   .000      7   .000                                                     
  local pseudopotential read in
  partial core-charges read in
  atomic valenz-charges read in
  non local Contribution for L=           1  read in
    real space projection operators read in
  non local Contribution for L=           1  read in
    real space projection operators read in
  non local Contribution for L=           2  read in
    real space projection operators read in
  non local Contribution for L=           2  read in
    real space projection operators read in
  non local Contribution for L=           0  read in
    real space projection operators read in
  non local Contribution for L=           0  read in
    real space projection operators read in
    PAW grid and wavefunctions read in
 
   number of l-projection  operators is LMAX  =           6
   number of lm-projection operators is LMMAX =          18
 
 POTCAR:   PAW_PBE O 08Apr2002                    
   VRHFIN =O: s2p4                                                              
   LEXCH  = PE                                                                  
   EATOM  =   432.3788 eV,   31.7789 Ry                                         
                                                                                
   TITEL  = PAW_PBE O 08Apr2002                                                 
   LULTRA =        F    use ultrasoft PP ?                                      
   IUNSCR =        0    unscreen: 0-lin 1-nonlin 2-no                           
   RPACOR =     .000    partial core radius                                     
   POMASS =   16.000; ZVAL   =    6.000    mass and valenz                      
   RCORE  =    1.520    outmost cutoff radius                                   
   RWIGS  =    1.550; RWIGS  =     .820    wigner-seitz radius (au A)           
   ENMAX  =  400.000; ENMIN  =  300.000 eV                                      
   ICORE  =        2    local potential                                         
   LCOR   =        T    correct aug charges                                     
   LPAW   =        T    paw PP                                                  
   EAUG   =  605.392                                                            
   DEXC   =     .000                                                            
   RMAX   =    2.264    core radius for proj-oper                               
   RAUG   =    1.300    factor for augmentation sphere                          
   RDEP   =    1.550    radius for radial grids                                 
   QCUT   =   -5.520; QGAM   =   11.041    optimization parameters              
                                                                                
   Description                                                                  
     l     E      TYP  RCUT    TYP  RCUT                                        
     0   .000     23  1.200                                                     
     0  -.700     23  1.200                                                     
     1   .000     23  1.520                                                     
     1   .600     23  1.520                                                     
     2   .000      7  1.500                                                     
  local pseudopotential read in
  atomic valenz-charges read in
  non local Contribution for L=           0  read in
    real space projection operators read in
  non local Contribution for L=           0  read in
    real space projection operators read in
  non local Contribution for L=           1  read in
    real space projection operators read in
  non local Contribution for L=           1  read in
    real space projection operators read in
    PAW grid and wavefunctions read in
 
   number of l-projection  operators is LMAX  =           4
   number of lm-projection operators is LMMAX =           8
 
 POTCAR:    PAW_PBE F 08Apr2002                   
   VRHFIN =F: s2p5                                                              
   LEXCH  = PE                                                                  
   EATOM  =   659.6475 eV,   48.4827 Ry                                         
                                                                                
   TITEL  = PAW_PBE F 08Apr2002                                                 
   LULTRA =        F    use ultrasoft PP ?                                      
   IUNSCR =        1    unscreen: 0-lin 1-nonlin 2-no                           
   RPACOR =    1.200    partial core radius                                     
   POMASS =   18.998; ZVAL   =    7.000    mass and valenz                      
   RCORE  =    1.520    outmost cutoff radius                                   
   RWIGS  =    1.500; RWIGS  =    0.794    wigner-seitz radius (au A)           
   ENMAX  =  400.000; ENMIN  =  300.000 eV                                      
   ICORE  =        2    local potential                                         
   LCOR   =        T    correct aug charges                                     
   LPAW   =        T    paw PP                                                  
   EAUG   =  613.614                                                            
   RMAX   =    1.555    core radius for proj-oper                               
   RAUG   =    1.300    factor for augmentation sphere                          
   RDEP   =    1.539    radius for radial grids                                 
   RDEPT  =    1.299    core radius for aug-charge                              
                                                                                
   Atomic configuration                                                         
    4 entries                                                                   
     n  l   j            E        occ.                                          
     1  0  0.50      -663.3661   2.0000                                         
     2  0  0.50       -29.8995   2.0000                                         
     2  1  0.50       -11.1114   5.0000                                         
     3  2  1.50       -10.8847   0.0000                                         
   Description                                                                  
     l       E           TYP  RCUT    TYP  RCUT                                 
     0    -29.8995018     23  1.200                                             
     0     -9.5240782     23  1.200                                             
     1    -11.1113914     23  1.520                                             
     1      1.3605826     23  1.520                                             
     2    -10.8846608      7  1.500                                             
  local pseudopotential read in
  partial core-charges read in
  partial kinetic energy density read in
  atomic valenz-charges read in
  non local Contribution for L=           0  read in
    real space projection operators read in
  non local Contribution for L=           0  read in
    real space projection operators read in
  non local Contribution for L=           1  read in
    real space projection operators read in
  non local Contribution for L=           1  read in
    real space projection operators read in
    PAW grid and wavefunctions read in
 
   number of l-projection  operators is LMAX  =           4
   number of lm-projection operators is LMMAX =           8
 
 Optimization of the real space projectors (new method)

 maximal supplied QI-value         = 15.12
 optimisation between [QCUT,QGAM] = [ 13.45, 27.06] = [ 50.69,205.06] Ry 
 Optimized for a Real-space Cutoff    1.49 Angstroem

   l    n(q)    QCUT    max X(q) W(low)/X(q) W(high)/X(q)  e(spline) 
   1     12    13.455     4.841    0.13E-05    0.83E-06    0.56E-07
   1     12    13.455     5.701    0.32E-04    0.25E-04    0.17E-06
   2     11    13.455     4.569    0.64E-05    0.34E-05    0.50E-07
   2     11    13.455    32.276    0.49E-04    0.38E-04    0.46E-06
   0     12    13.455    30.046    0.17E-04    0.41E-05    0.51E-07
   0     12    13.455    45.433    0.12E-04    0.27E-04    0.38E-06
 Optimization of the real space projectors (new method)

 maximal supplied QI-value         = 24.76
 optimisation between [QCUT,QGAM] = [ 13.37, 26.98] = [ 50.04,203.89] Ry 
 Optimized for a Real-space Cutoff    1.17 Angstroem

   l    n(q)    QCUT    max X(q) W(low)/X(q) W(high)/X(q)  e(spline) 
   0      9    13.368     4.192    0.20E-04    0.58E-05    0.56E-07
   0      9    13.368     8.473    0.60E-04    0.52E-04    0.21E-06
   1      9    13.368     2.474    0.22E-04    0.17E-04    0.28E-07
   1      9    13.368     3.912    0.94E-04    0.97E-04    0.20E-06
 Optimization of the real space projectors (new method)

 maximal supplied QI-value         = 24.76
 optimisation between [QCUT,QGAM] = [ 13.37, 26.98] = [ 50.04,203.89] Ry 
 Optimized for a Real-space Cutoff    1.17 Angstroem

   l    n(q)    QCUT    max X(q) W(low)/X(q) W(high)/X(q)  e(spline) 
   0      9    13.368    14.049    0.39E-04    0.34E-04    0.16E-06
   0      9    13.368     8.945    0.54E-04    0.47E-04    0.20E-06
   1      9    13.368     7.086    0.99E-04    0.10E-03    0.23E-06
   1      9    13.368     6.747    0.86E-04    0.89E-04    0.21E-06

 ----------------------------------------------------------------------------- 
|                                                                             |
|  ADVICE TO THIS USER RUNNING 'VASP/VAMP'   (HEAR YOUR MASTER'S VOICE ...):  |
|                                                                             |
|      You enforced a specific xc-type in the INCAR file,                     |
|      a different type was found on the POTCAR file                          |
|          I HOPE YOU KNOW, WHAT YOU ARE  DOING                               |
|                                                                             |
 ----------------------------------------------------------------------------- 

 PAW_PBE Ti_pv 07Sep2000                :
 energy of atom  1       EATOM=-1042.3781
 kinetic energy error for atom=    0.0006 (will be added to EATOM!!)
 PAW_PBE O 08Apr2002                    :
 energy of atom  2       EATOM= -432.3788
 kinetic energy error for atom=    0.0091 (will be added to EATOM!!)
  PAW_PBE F 08Apr2002                   :
 energy of atom  3       EATOM= -659.6475
 kinetic energy error for atom=    0.0140 (will be added to EATOM!!)
 
 
 POSCAR: Ti64 O64 F128                           
  positions in direct lattice
  velocities in cartesian coordinates
 exchange correlation table for  LEXCH =       14
   RHO(1)=    0.500       N(1)  =     2000
   RHO(2)=  100.500       N(2)  =     4000

 VTST: version 3.1, (03/28/14)

 CHAIN: initializing optimizer
 
 OPT: Using VASP QUASI-newton optimizer
 CHAIN: Read ICHAIN            0
 
 POSCAR: Ti64 O64 F128                           
  positions in direct lattice
  velocities in cartesian coordinates
 


--------------------------------------------------------------------------------------------------------


 ion  position               nearest neighbor table
   1  1.000  0.008  0.007-  65 1.81 102 1.82 172 1.94 200 1.95 231 2.01 135 2.03
   2  0.993  0.992  0.499- 109 1.79  94 1.83 134 1.95 129 1.98 173 2.05 220 2.05
   3  0.993  0.498  0.993-  68 1.82  95 1.83 230 1.94 221 1.97 130 2.02 174 2.05
   4  0.994  0.493  0.502-  96 1.84 108 1.84 131 1.94 136 1.97 222 2.01 175 2.04
   5  0.499  0.992  0.006- 111 1.80  66 1.84 198 1.94 176 1.95 138 2.00 223 2.08
   6  0.502  0.993  0.506- 112 1.82  67 1.85 177 1.93 199 1.99 137 2.04 224 2.04
   7  0.494  0.502  0.992-  69 1.80  92 1.84 225 1.93 232 2.00 178 2.01 132 2.04
   8  0.494  0.494  0.501- 110 1.84  93 1.85 133 1.93 139 1.97 179 2.02 226 2.02
   9  1.000  0.007  0.243- 103 1.83  65 1.83 180 1.94 204 1.95 235 2.01 134 2.01
  10  0.992  0.007  0.752-  98 1.80 104 1.82 135 1.95 129 1.97 236 2.03 181 2.04
  11  0.994  0.507  0.248- 105 1.82  99 1.85 130 1.94 136 1.96 182 2.04 233 2.06
  12  0.007  0.499  0.758-  68 1.82  86 1.82 234 1.94 227 1.95 205 2.02 131 2.02
  13  0.499  0.995  0.244- 114 1.84  66 1.85 201 1.94 183 1.95 137 2.01 228 2.02
  14  0.502  0.007  0.744-  67 1.83 106 1.85 184 1.93 202 1.97 238 2.03 138 2.05
  15  0.494  0.496  0.248-  97 1.83 113 1.89 132 1.93 139 1.96 229 2.00 185 2.01
  16  0.498  0.507  0.757- 107 1.82  69 1.84 203 1.94 186 1.96 133 2.02 237 2.04
  17  1.000  0.243  0.006- 102 1.83  70 1.83 187 1.94 210 1.95 145 2.02 230 2.02
  18  0.999  0.256  0.506- 108 1.83  71 1.85 211 1.94 188 1.97 220 2.03 144 2.04
  19  0.007  0.752  0.994-  75 1.81  87 1.84 231 1.94 221 1.98 140 2.03 212 2.03
  20  0.006  0.755  0.495- 109 1.88  88 1.88  74 1.88 141 2.03 213 2.03 222 2.03
  21  0.500  0.248  0.009-  72 1.77 223 1.91 206 1.92 189 1.92 232 1.94 147 2.02
  22  0.507  0.256  0.499-  89 1.82 110 1.83 146 1.96 142 1.96 224 2.02 207 2.03
  23  0.498  0.757  0.008-  73 1.82 111 1.83 208 1.92 190 1.95 149 2.01 225 2.02
  24  0.506  0.756  0.498-  90 1.81 112 1.85 148 1.95 143 1.98 226 2.03 209 2.04
  25  1.000  0.244  0.244- 103 1.84  70 1.85 191 1.94 217 1.95 233 2.00 144 2.01
  26  0.998  0.242  0.744- 104 1.81  71 1.83 218 1.93 192 1.97 145 2.04 234 2.05
  27  0.000  0.744  0.256-  74 1.80 105 1.85 219 1.95 193 1.97 140 2.04 235 2.05
  28  0.993  0.752  0.755- 101 1.80  75 1.87 236 1.95 227 1.97 141 2.00 194 2.07
  29  0.500  0.257  0.245- 113 1.80  72 1.89 214 1.94 195 1.94 146 1.98 228 2.03
  30  0.507  0.244  0.752-  91 1.82 106 1.82 147 1.96 142 1.97 215 2.02 237 2.03
  31  0.500  0.757  0.243-  73 1.82 114 1.84 196 1.93 216 1.94 148 2.01 229 2.04
  32  0.494  0.744  0.752- 100 1.84 107 1.85 149 1.94 143 1.96 197 2.00 238 2.04
  33  0.251  0.994  0.007- 122 1.83  76 1.83 198 1.95 172 1.96 155 2.03 239 2.04
  34  0.249  0.002  0.508-  77 1.78 173 1.91 240 1.91 199 1.94 250 1.95 154 2.04
  35  0.257  0.494  0.000-  92 1.83 120 1.85 150 1.94 157 1.95 241 2.02 174 2.02
  36  0.257  0.493  0.499-  93 1.82 121 1.83 151 1.94 156 1.95 242 2.01 175 2.03
  37  0.750  0.006  0.007-  78 1.82 115 1.85 200 1.94 176 1.95 253 2.00 159 2.01
  38  0.758  0.007  0.498-  94 1.80 116 1.83 158 1.94 152 1.96 254 2.01 177 2.04
  39  0.756  0.506  0.999- 117 1.83  95 1.84 161 1.93 153 1.97 178 2.04 251 2.05
  40  0.757  0.499  0.507-  79 1.82  96 1.83 252 1.95 243 1.95 160 2.03 179 2.04
  41  0.251  0.994  0.245- 125 1.83  76 1.84 201 1.95 180 1.95 154 2.03 244 2.04
  42  0.248  0.993  0.747- 126 1.81  77 1.90 181 1.92 202 1.96 155 2.00 245 2.04
  43  0.256  0.494  0.250- 123 1.84  97 1.85 150 1.94 156 1.94 182 2.01 246 2.03
  44  0.242  0.493  0.750-  86 1.81 124 1.83 151 1.94 157 1.95 203 2.02 247 2.03
  45  0.751  0.005  0.243-  78 1.82 118 1.85 183 1.94 204 1.94 256 2.00 158 2.02
  46  0.756  0.992  0.751- 128 1.79  98 1.84 159 1.95 152 1.98 184 2.02 248 2.07
  47  0.757  0.505  0.251-  99 1.83 119 1.85 160 1.93 153 1.97 185 2.04 255 2.04
  48  0.752  0.494  0.742-  79 1.82 127 1.84 205 1.94 186 1.97 249 2.01 161 2.04
  49  0.249  0.256  0.006- 120 1.83  80 1.84 187 1.94 206 1.98 166 2.01 239 2.02
  50  0.251  0.258  0.506- 121 1.82  81 1.84 207 1.94 188 1.96 165 2.04 240 2.04
  51  0.242  0.756  0.003-  87 1.80 122 1.86 162 1.93 167 1.97 241 2.03 208 2.06
  52  0.243  0.748  0.493-  88 1.79  85 1.85 242 1.93 250 2.00 163 2.02 209 2.04
  53  0.751  0.244  0.007-  82 1.82 115 1.84 210 1.94 189 1.96 251 2.01 169 2.02
  54  0.742  0.242  0.498- 116 1.81  89 1.82 168 1.94 164 1.96 252 2.03 211 2.03
  55  0.751  0.744  0.007-  83 1.84 117 1.84 212 1.93 190 1.98 171 2.00 253 2.06
  56  0.743  0.751  0.507-  84 1.81  90 1.86 254 1.95 243 1.97 213 2.02 170 2.06
  57  0.250  0.256  0.244- 123 1.84  80 1.84 191 1.94 214 1.96 165 2.01 244 2.03
  58  0.252  0.256  0.744-  81 1.84 124 1.84 215 1.93 192 1.97 245 2.02 166 2.04
  59  0.250  0.756  0.258-  85 1.79 125 1.85 193 1.94 216 1.95 246 2.02 162 2.04
  60  0.256  0.755  0.749- 100 1.83 126 1.86 163 1.93 167 1.97 194 2.00 247 2.02
  61  0.750  0.244  0.243-  82 1.82 118 1.84 217 1.94 195 1.95 255 2.01 168 2.02
  62  0.743  0.257  0.751-  91 1.82 127 1.83 169 1.94 164 1.97 248 2.02 218 2.02
  63  0.750  0.744  0.244- 119 1.83  83 1.84 219 1.94 196 1.96 170 2.00 256 2.06
  64  0.755  0.754  0.745-  84 1.87 101 1.87 128 1.88 249 2.04 197 2.04 171 2.05
  65  0.999  0.001  0.124-   1 1.81   9 1.83
  66  0.499  0.005  0.125-   5 1.84  13 1.85
  67  0.500  0.999  0.625-  14 1.83   6 1.85
  68  1.000  0.503  0.876-  12 1.82   3 1.82
  69  0.498  0.496  0.875-   7 1.80  16 1.84
  70  0.000  0.250  0.124-  17 1.83  25 1.85
  71  0.000  0.246  0.626-  26 1.83  18 1.85
  72  0.502  0.244  0.123-  21 1.77  29 1.89
  73  0.503  0.748  0.125-  23 1.82  31 1.82
  74  0.002  0.748  0.373-  27 1.80  20 1.88
  75  0.004  0.748  0.876-  19 1.81  28 1.87
  76  0.251  0.004  0.126-  33 1.83  41 1.84
  77  0.250  0.003  0.624-  34 1.78  42 1.90
  78  0.751  0.997  0.125-  37 1.82  45 1.82
  79  0.750  0.505  0.624-  48 1.82  40 1.82
  80  0.250  0.248  0.125-  49 1.84  57 1.84
  81  0.250  0.248  0.625-  50 1.84  58 1.84
  82  0.748  0.253  0.125-  53 1.82  61 1.82
  83  0.745  0.755  0.126-  63 1.84  55 1.84
  84  0.748  0.745  0.624-  56 1.81  64 1.87
  85  0.250  0.748  0.374-  59 1.79  52 1.85
  86  0.125  0.497  0.749-  44 1.81  12 1.82
  87  0.126  0.752  0.007-  51 1.80  19 1.84
  88  0.127  0.750  0.502-  52 1.79  20 1.88
  89  0.625  0.250  0.503-  22 1.82  54 1.82
  90  0.624  0.751  0.495-  24 1.81  56 1.86
  91  0.625  0.252  0.748-  30 1.82  62 1.82
  92  0.375  0.501  0.005-  35 1.83   7 1.84
  93  0.375  0.501  0.497-  36 1.82   8 1.85
  94  0.875  0.001  0.503-  38 1.80   2 1.83
  95  0.875  0.495  0.003-   3 1.83  39 1.84
  96  0.875  0.498  0.496-  40 1.83   4 1.84
  97  0.375  0.504  0.249-  15 1.83  43 1.85
  98  0.876  0.998  0.747-  10 1.80  46 1.84
  99  0.875  0.495  0.250-  47 1.83  11 1.85
 100  0.375  0.752  0.752-  60 1.83  32 1.84
 101  0.876  0.752  0.752-  28 1.80  64 1.87
 102  0.994  0.125  0.994-   1 1.82  17 1.83
 103  0.994  0.125  0.252-   9 1.83  25 1.84
 104  0.001  0.125  0.759-  26 1.81  10 1.82
 105  0.998  0.625  0.244-  11 1.82  27 1.85
 106  0.499  0.126  0.754-  30 1.82  14 1.85
 107  0.500  0.624  0.750-  16 1.82  32 1.85
 108  0.004  0.374  0.500-  18 1.83   4 1.84
 109  0.001  0.876  0.502-   2 1.79  20 1.88
 110  0.498  0.374  0.497-  22 1.83   8 1.84
 111  0.492  0.875  0.000-   5 1.80  23 1.83
 112  0.496  0.876  0.495-   6 1.82  24 1.85
 113  0.498  0.374  0.248-  29 1.80  15 1.89
 114  0.495  0.876  0.252-  31 1.84  13 1.84
 115  0.754  0.125  0.001-  53 1.84  37 1.85
 116  0.750  0.125  0.494-  54 1.81  38 1.83
 117  0.750  0.624  0.003-  39 1.83  55 1.84
 118  0.755  0.125  0.252-  61 1.84  45 1.85
 119  0.752  0.625  0.249-  63 1.83  47 1.85
 120  0.250  0.375  0.999-  49 1.83  35 1.85
 121  0.248  0.375  0.498-  50 1.82  36 1.83
 122  0.256  0.876  0.000-  33 1.83  51 1.86
 123  0.253  0.375  0.252-  57 1.84  43 1.84
 124  0.252  0.375  0.752-  44 1.83  58 1.84
 125  0.255  0.876  0.249-  41 1.83  59 1.85
 126  0.247  0.876  0.751-  42 1.81  60 1.86
 127  0.754  0.375  0.749-  62 1.83  48 1.84
 128  0.747  0.876  0.750-  46 1.79  64 1.88
 129  0.008  0.006  0.625-  10 1.97   2 1.98
 130  0.006  0.492  0.124-  11 1.94   3 2.02
 131  0.997  0.499  0.627-   4 1.94  12 2.02
 132  0.505  0.503  0.123-  15 1.93   7 2.04
 133  0.501  0.497  0.626-   8 1.93  16 2.02
 134  0.001  0.998  0.373-   2 1.95   9 2.01
 135  0.001  0.991  0.877-  10 1.95   1 2.03
 136  0.007  0.502  0.375-  11 1.96   4 1.97
 137  0.501  0.006  0.374-  13 2.01   6 2.04
 138  0.501  0.999  0.876-   5 2.00  14 2.05
 139  0.504  0.505  0.374-  15 1.96   8 1.97
 140  0.995  0.756  0.124-  19 2.03  27 2.04
 141  1.000  0.749  0.626-  28 2.00  20 2.03
 142  0.492  0.249  0.625-  22 1.96  30 1.97
 143  0.501  0.754  0.626-  32 1.96  24 1.98
 144  0.998  0.250  0.374-  25 2.01  18 2.04
 145  0.999  0.258  0.876-  17 2.02  26 2.04
 146  0.499  0.246  0.373-  22 1.96  29 1.98
 147  0.499  0.258  0.878-  30 1.96  21 2.02
 148  0.492  0.742  0.372-  24 1.95  31 2.01
 149  0.500  0.748  0.878-  32 1.94  23 2.01
 150  0.244  0.503  0.125-  43 1.94  35 1.94
 151  0.252  0.502  0.625-  36 1.94  44 1.94
 152  0.742  0.003  0.624-  38 1.96  46 1.98
 153  0.744  0.491  0.125-  47 1.97  39 1.97
 154  0.249  0.999  0.376-  41 2.03  34 2.04
 155  0.249  0.003  0.876-  42 2.00  33 2.03
 156  0.244  0.508  0.375-  43 1.94  36 1.95
 157  0.253  0.507  0.875-  35 1.95  44 1.95
 158  0.749  0.995  0.373-  38 1.94  45 2.02
 159  0.749  0.003  0.877-  46 1.95  37 2.01
 160  0.744  0.495  0.376-  47 1.93  40 2.03
 161  0.748  0.499  0.874-  39 1.93  48 2.04
 162  0.259  0.746  0.126-  51 1.93  59 2.04
 163  0.254  0.751  0.624-  60 1.93  52 2.02
 164  0.757  0.247  0.624-  54 1.96  62 1.97
 165  0.252  0.248  0.375-  57 2.01  50 2.04
 166  0.251  0.247  0.876-  49 2.01  58 2.04
 167  0.247  0.745  0.876-  51 1.97  60 1.97
 168  0.750  0.256  0.373-  54 1.94  61 2.02
 169  0.750  0.249  0.877-  62 1.94  53 2.02
 170  0.755  0.754  0.374-  63 2.00  56 2.06
 171  0.749  0.749  0.877-  55 2.00  64 2.05
 172  0.125  0.001  0.997-   1 1.94  33 1.96
 173  0.126  0.002  0.497-  34 1.91   2 2.05
 174  0.126  0.503  0.999-  35 2.02   3 2.05
 175  0.126  0.504  0.504-  36 2.03   4 2.04
 176  0.625  1.000  0.997-  37 1.95   5 1.95
 177  0.627  0.999  0.497-   6 1.93  38 2.04
 178  0.624  0.496  1.000-   7 2.01  39 2.04
 179  0.625  0.500  0.499-   8 2.02  40 2.04
 180  0.125  0.001  0.253-   9 1.94  41 1.95
 181  0.124  0.003  0.753-  42 1.92  10 2.04
 182  0.126  0.499  0.250-  43 2.01  11 2.04
 183  0.625  0.002  0.253-  45 1.94  13 1.95
 184  0.626  0.004  0.754-  14 1.93  46 2.02
 185  0.624  0.499  0.250-  15 2.01  47 2.04
 186  0.624  0.495  0.750-  16 1.96  48 1.97
 187  0.125  0.246  0.995-  17 1.94  49 1.94
 188  0.126  0.243  0.495-  50 1.96  18 1.97
 189  0.624  0.250  0.994-  21 1.92  53 1.96
 190  0.624  0.754  0.996-  23 1.95  55 1.98
 191  0.125  0.247  0.254-  25 1.94  57 1.94
 192  0.125  0.253  0.755-  58 1.97  26 1.97
 193  0.126  0.753  0.239-  59 1.94  27 1.97
 194  0.127  0.746  0.747-  60 2.00  28 2.07
 195  0.625  0.247  0.255-  29 1.94  61 1.95
 196  0.624  0.753  0.260-  31 1.93  63 1.96
 197  0.623  0.749  0.754-  32 2.00  64 2.04
 198  0.375  0.012  0.995-   5 1.94  33 1.95
 199  0.374  0.005  0.495-  34 1.94   6 1.99
 200  0.875  0.993  0.994-  37 1.94   1 1.95
 201  0.375  0.010  0.255-  13 1.94  41 1.95
 202  0.375  0.998  0.755-  42 1.96  14 1.97
 203  0.373  0.502  0.746-  16 1.94  44 2.02
 204  0.875  0.991  0.255-  45 1.94   9 1.95
 205  0.876  0.505  0.751-  48 1.94  12 2.02
 206  0.377  0.245  0.997-  21 1.92  49 1.98
 207  0.376  0.245  0.497-  50 1.94  22 2.03
 208  0.375  0.741  0.997-  23 1.92  51 2.06
 209  0.375  0.747  0.502-  24 2.04  52 2.04
 210  0.875  0.261  0.997-  53 1.94  17 1.95
 211  0.874  0.252  0.497-  18 1.94  54 2.03
 212  0.876  0.753  0.001-  55 1.93  19 2.03
 213  0.874  0.749  0.499-  56 2.02  20 2.03
 214  0.376  0.241  0.252-  29 1.94  57 1.96
 215  0.376  0.249  0.754-  58 1.93  30 2.02
 216  0.376  0.740  0.248-  31 1.94  59 1.95
 217  0.875  0.260  0.252-  61 1.94  25 1.95
 218  0.873  0.247  0.754-  26 1.93  62 2.02
 219  0.875  0.760  0.248-  63 1.94  27 1.95
 220  0.000  0.125  0.495-  18 2.03   2 2.05
 221  0.998  0.625  0.009-   3 1.97  19 1.98
 222  0.000  0.623  0.503-   4 2.01  20 2.03
 223  0.505  0.125  0.991-  21 1.91   5 2.08
 224  0.500  0.125  0.500-  22 2.02   6 2.04
 225  0.506  0.626  0.998-   7 1.93  23 2.02
 226  0.501  0.624  0.504-   8 2.02  24 2.03
 227  0.001  0.624  0.745-  12 1.95  28 1.97
 228  0.504  0.126  0.252-  13 2.02  29 2.03
 229  0.506  0.625  0.249-  15 2.00  31 2.04
 230  0.008  0.373  0.998-   3 1.94  17 2.02
 231  1.000  0.878  1.000-  19 1.94   1 2.01
 232  0.500  0.373  0.006-  21 1.94   7 2.00
 233  0.006  0.374  0.253-  25 2.00  11 2.06
 234  0.994  0.374  0.750-  12 1.94  26 2.05
 235  0.005  0.877  0.250-   9 2.01  27 2.05
 236  0.009  0.877  0.746-  28 1.95  10 2.03
 237  0.495  0.375  0.746-  30 2.03  16 2.04
 238  0.503  0.876  0.754-  14 2.03  32 2.04
 239  0.248  0.126  0.996-  49 2.02  33 2.04
 240  0.250  0.126  0.494-  34 1.91  50 2.04
 241  0.249  0.625  0.001-  35 2.02  51 2.03
 242  0.250  0.623  0.504-  52 1.93  36 2.01
 243  0.750  0.624  0.489-  40 1.95  56 1.97
 244  0.247  0.125  0.256-  57 2.03  41 2.04
 245  0.250  0.125  0.753-  58 2.02  42 2.04
 246  0.245  0.625  0.247-  59 2.02  43 2.03
 247  0.250  0.624  0.748-  60 2.02  44 2.03
 248  0.750  0.126  0.750-  62 2.02  46 2.07
 249  0.747  0.623  0.756-  48 2.01  64 2.04
 250  0.255  0.877  0.500-  34 1.95  52 2.00
 251  0.745  0.373  0.995-  53 2.01  39 2.05
 252  0.750  0.373  0.502-  40 1.95  54 2.03
 253  0.748  0.877  0.994-  37 2.00  55 2.06
 254  0.749  0.877  0.502-  56 1.95  38 2.01
 255  0.744  0.373  0.252-  61 2.01  47 2.04
 256  0.745  0.876  0.254-  45 2.00  63 2.06
 

IMPORTANT INFORMATION: All symmetrisations will be switched off!
NOSYMM: (Re-)initialisation of all symmetry stuff for point group C_1.

 
 
 KPOINTS: Title                                   

Automatic generation of k-mesh.
Space group operators:
 irot       det(A)        alpha          n_x          n_y          n_z        tau_x        tau_y        tau_z
    1     1.000000     0.000000     1.000000     0.000000     0.000000     0.000000     0.000000     0.000000
 
 Subroutine IBZKPT returns following result:
 ===========================================
 
 Found      4 irreducible k-points:
 
 Following reciprocal coordinates:
            Coordinates               Weight
  0.250000  0.250000  0.250000      2.000000
 -0.250000  0.250000  0.250000      2.000000
  0.250000 -0.250000  0.250000      2.000000
 -0.250000 -0.250000  0.250000      2.000000
 
 Following cartesian coordinates:
            Coordinates               Weight
  0.016206  0.016206  0.016206      2.000000
 -0.016206  0.016206  0.016206      2.000000
  0.016206 -0.016206  0.016206      2.000000
 -0.016206 -0.016206  0.016206      2.000000
 


--------------------------------------------------------------------------------------------------------




 Dimension of arrays:
   k-points           NKPTS =      4   k-points in BZ     NKDIM =      4   number of bands    NBANDS=   1280
   number of dos      NEDOS =   3001   number of ions     NIONS =    256
   non local maximal  LDIM  =      6   non local SUM 2l+1 LMDIM =     18
   total plane-waves  NPLWV = ******
   max r-space proj   IRMAX =  10364   max aug-charges    IRDMAX= 232345
   dimension x,y,z NGX =   140 NGY =  140 NGZ =  140
   dimension x,y,z NGXF=   280 NGYF=  280 NGZF=  280
   support grid    NGXF=   560 NGYF=  560 NGZF=  560
   ions per type =              64  64 128
   NGX,Y,Z   is equivalent  to a cutoff of  15.09, 15.09, 15.09 a.u.
   NGXF,Y,Z  is equivalent  to a cutoff of  30.18, 30.18, 30.18 a.u.

 SYSTEM =  LTO                                     
 POSCAR =  Ti64 O64 F128                           

 Startparameter for this run:
   NWRITE =      2    write-flag & timer
   PREC   = accura    normal or accurate (medium, high low for compatibility)
   ISTART =      1    job   : 0-new  1-cont  2-samecut
   ICHARG =      0    charge: 1-file 2-atom 10-const
   ISPIN  =      2    spin polarized calculation?
   LNONCOLLINEAR =      F non collinear calculations
   LSORBIT =      F    spin-orbit coupling
   INIWAV =      1    electr: 0-lowe 1-rand  2-diag
   LASPH  =      T    aspherical Exc in radial PAW
   METAGGA=      F    non-selfconsistent MetaGGA calc.

 Electronic Relaxation 1
   ENCUT  =  700.0 eV  51.45 Ry    7.17 a.u.  33.28 33.28 33.28*2*pi/ulx,y,z
   ENINI  =  700.0     initial cutoff
   ENAUG  =  613.6 eV  augmentation charge cutoff
   NELM   =     60;   NELMIN=  2; NELMDL=  0     # of ELM steps 
   EDIFF  = 0.1E-05   stopping-criterion for ELM
   LREAL  =      T    real-space projection
   NLSPLINE    = F    spline interpolate recip. space projectors
   LCOMPAT=      F    compatible to vasp.4.4
   GGA_COMPAT  = T    GGA compatible to vasp.4.4-vasp.4.6
   LMAXPAW     = -100 max onsite density
   LMAXMIX     =    4 max onsite mixed and CHGCAR
   VOSKOWN=      0    Vosko Wilk Nusair interpolation
   ROPT   =   -0.00010  -0.00010  -0.00010
 Ionic relaxation
   EDIFFG = -.1E-01   stopping-criterion for IOM
   NSW    =    100    number of steps for IOM
   NBLOCK =      1;   KBLOCK =    100    inner block; outer block 
   IBRION =      1    ionic relax: 0-MD 1-quasi-New 2-CG
   NFREE  =      0    steps in history (QN), initial steepest desc. (CG)
   ISIF   =      2    stress and relaxation
   IWAVPR =     11    prediction:  0-non 1-charg 2-wave 3-comb
   ISYM   =      0    0-nonsym 1-usesym 2-fastsym
   LCORR  =      T    Harris-Foulkes like correction to forces

   POTIM  = 0.5000    time-step for ionic-motion
   TEIN   =    0.0    initial temperature
   TEBEG  =    0.0;   TEEND  =   0.0 temperature during run
   SMASS  =  -3.00    Nose mass-parameter (am)
   estimated Nose-frequenzy (Omega)   =  0.10E-29 period in steps =****** mass=  -0.544E-26a.u.
   SCALEE = 1.0000    scale energy and forces
   NPACO  =    256;   APACO  = 16.0  distance and # of slots for P.C.
   PSTRESS=    0.0 pullay stress

  Mass of Ions in am
   POMASS =  47.88 16.00 19.00
  Ionic Valenz
   ZVAL   =  10.00  6.00  7.00
  Atomic Wigner-Seitz radii
   RWIGS  =  -1.00 -1.00 -1.00
  virtual crystal weights 
   VCA    =   1.00  1.00  1.00
   NELECT =    1920.0000    total number of electrons
   NUPDOWN=      -1.0000    fix difference up-down

 DOS related values:
   EMIN   =  10.00;   EMAX   =-10.00  energy-range for DOS
   EFERMI =   0.00
   ISMEAR =     0;   SIGMA  =   0.01  broadening in eV -4-tet -1-fermi 0-gaus

 Electronic relaxation 2 (details)
   IALGO  =     38    algorithm
   LDIAG  =      T    sub-space diagonalisation (order eigenvalues)
   LSUBROT=      F    optimize rotation matrix (better conditioning)
   TURBO    =      0    0=normal 1=particle mesh
   IRESTART =      0    0=no restart 2=restart with 2 vectors
   NREBOOT  =      0    no. of reboots
   NMIN     =      0    reboot dimension
   EREF     =   0.00    reference energy to select bands
   IMIX   =      4    mixing-type and parameters
     AMIX     =   0.40;   BMIX     =  1.00
     AMIX_MAG =   1.60;   BMIX_MAG =  1.00
     AMIN     =   0.10
     WC   =   100.;   INIMIX=   1;  MIXPRE=   1;  MAXMIX= -45

 Intra band minimization:
   WEIMIN = 0.0010     energy-eigenvalue tresh-hold
   EBREAK =  0.20E-09  absolut break condition
   DEPER  =   0.30     relativ break condition  

   TIME   =   0.40     timestep for ELM

  volume/ion in A,a.u.               =      14.34        96.77
  Fermi-wavevector in a.u.,A,eV,Ry     =   1.319026  2.492598 23.671826  1.739830
  Thomas-Fermi vector in A             =   2.448954
 
 Write flags
   LWAVE        =      T    write WAVECAR
   LDOWNSAMPLE  =      F    k-point downsampling of WAVECAR
   LCHARG       =      T    write CHGCAR
   LVTOT        =      F    write LOCPOT, total local potential
   LVHAR        =      F    write LOCPOT, Hartree potential only
   LELF         =      F    write electronic localiz. function (ELF)
   LORBIT       =     11    0 simple, 1 ext, 2 COOP (PROOUT), +10 PAW based schemes


 Dipole corrections
   LMONO  =      F    monopole corrections only (constant potential shift)
   LDIPOL =      F    correct potential (dipole corrections)
   IDIPOL =      0    1-x, 2-y, 3-z, 4-all directions 
   EPSILON=  1.0000000 bulk dielectric constant

 LDA+U is selected, type is set to LDAUTYPE =  2
   angular momentum for each species LDAUL =     2   -1   -1
   U (eV)           for each species LDAUU =   4.2  0.0  0.0
   J (eV)           for each species LDAUJ =   0.0  0.0  0.0
 Exchange correlation treatment:
   GGA     =    PS    GGA type
   LEXCH   =    14    internal setting for exchange type
   VOSKOWN=      0    Vosko Wilk Nusair interpolation
   LHFCALC =     F    Hartree Fock is set to
   LHFONE  =     F    Hartree Fock one center treatment
   AEXX    =    0.0000 exact exchange contribution

 Linear response parameters
   LEPSILON=     F    determine dielectric tensor
   LRPA    =     F    only Hartree local field effects (RPA)
   LNABLA  =     F    use nabla operator in PAW spheres
   LVEL    =     F    velocity operator in full k-point grid
   LINTERFAST=   F  fast interpolation
   KINTER  =     0    interpolate to denser k-point grid
   CSHIFT  =0.1000    complex shift for real part using Kramers Kronig
   OMEGAMAX=  -1.0    maximum frequency
   DEG_THRESHOLD= 0.2000000E-02 threshold for treating states as degnerate
   RTIME   =   -0.100 relaxation time in fs
  (WPLASMAI=    0.000 imaginary part of plasma frequency in eV, 0.658/RTIME)
   DFIELD  = 0.0000000 0.0000000 0.0000000 field for delta impulse in time
 
 Orbital magnetization related:
   ORBITALMAG=     F  switch on orbital magnetization
   LCHIMAG   =     F  perturbation theory with respect to B field
   DQ        =  0.001000  dq finite difference perturbation B field
   LLRAUG    =     F  two centre corrections for induced B field



--------------------------------------------------------------------------------------------------------


 quasi-Newton-method for relaxation of ions
 charge density and potential will be updated during run
 spin polarized calculation
 Variant of blocked Davidson
 Davidson routine will perform the subspace rotation
 perform sub-space diagonalisation
    after iterative eigenvector-optimisation
 modified Broyden-mixing scheme, WC =      100.0
 initial mixing is a Kerker type mixing with AMIX =  0.4000 and BMIX =      1.0000
 Hartree-type preconditioning will be used
 using additional bands          320
 real space projection scheme for non local part
 use partial core corrections
 calculate Harris-corrections to forces 
   (improved forces if not selfconsistent)
 use gradient corrections 
 use of overlap-Matrix (Vanderbilt PP)
 Gauss-broadening in eV      SIGMA  =   0.01


--------------------------------------------------------------------------------------------------------


  energy-cutoff  :      700.00
  volume of cell :     3670.84
      direct lattice vectors                 reciprocal lattice vectors
    15.426064816  0.000000000  0.000000000     0.064825347  0.000000000  0.000000000
     0.000000000 15.426064816  0.000000000     0.000000000  0.064825347  0.000000000
     0.000000000  0.000000000 15.426064816     0.000000000  0.000000000  0.064825347

  length of vectors
    15.426064816 15.426064816 15.426064816     0.064825347  0.064825347  0.064825347


 
 old parameters found on file WAVECAR:
  energy-cutoff  :      700.00
  volume of cell :     3670.84
      direct lattice vectors                 reciprocal lattice vectors
    15.426064816  0.000000000  0.000000000     0.064825347  0.000000000  0.000000000
     0.000000000 15.426064816  0.000000000     0.000000000  0.064825347  0.000000000
     0.000000000  0.000000000 15.426064816     0.000000000  0.000000000  0.064825347

  length of vectors

 
 k-points in units of 2pi/SCALE and weight: Title                                   
   0.01620634  0.01620634  0.01620634       0.250
  -0.01620634  0.01620634  0.01620634       0.250
   0.01620634 -0.01620634  0.01620634       0.250
  -0.01620634 -0.01620634  0.01620634       0.250
 
 k-points in reciprocal lattice and weights: Title                                   
   0.25000000  0.25000000  0.25000000       0.250
  -0.25000000  0.25000000  0.25000000       0.250
   0.25000000 -0.25000000  0.25000000       0.250
  -0.25000000 -0.25000000  0.25000000       0.250
 
 position of ions in fractional coordinates (direct lattice) 
   0.99950989  0.00788804  0.00675878
   0.99296808  0.99189803  0.49890435
   0.99325527  0.49847656  0.99344437
   0.99445988  0.49302289  0.50158073
   0.49885195  0.99164295  0.00592971
   0.50194392  0.99285730  0.50559509
   0.49390215  0.50191842  0.99165697
   0.49429975  0.49357453  0.50084467
   0.99970173  0.00676862  0.24285509
   0.99195525  0.00720610  0.75185271
   0.99399024  0.50663794  0.24812944
   0.00702525  0.49882618  0.75818898
   0.49940915  0.99502326  0.24401862
   0.50161021  0.00667690  0.74354295
   0.49402902  0.49615682  0.24780284
   0.49789497  0.50667584  0.75659342
   0.99952018  0.24299964  0.00582626
   0.99891678  0.25558887  0.50649322
   0.00744098  0.75185476  0.99371967
   0.00551733  0.75453883  0.49453405
   0.50038576  0.24757288  0.00870567
   0.50710229  0.25607402  0.49937136
   0.49791232  0.75685785  0.00795388
   0.50623384  0.75586381  0.49761426
   0.99963202  0.24436362  0.24433630
   0.99813190  0.24155011  0.74442597
   0.00009485  0.74396948  0.25625100
   0.99275340  0.75168088  0.75544734
   0.49989505  0.25717710  0.24503050
   0.50706946  0.24382002  0.75218608
   0.49992224  0.75713573  0.24332244
   0.49376471  0.74399164  0.75205758
   0.25081079  0.99386390  0.00723828
   0.24915929  0.00236681  0.50802838
   0.25661040  0.49437986  0.00027057
   0.25695841  0.49295189  0.49947530
   0.75022436  0.00576724  0.00709739
   0.75820815  0.00712236  0.49829305
   0.75595115  0.50583618  0.99877821
   0.75731981  0.49884743  0.50654456
   0.25057511  0.99367919  0.24461845
   0.24795105  0.99273641  0.74655911
   0.25597548  0.49410008  0.25008684
   0.24200467  0.49289096  0.74987600
   0.75059166  0.00549097  0.24280378
   0.75644017  0.99161676  0.75111784
   0.75655260  0.50523961  0.25146150
   0.75158129  0.49396775  0.74165420
   0.24926487  0.25622194  0.00597933
   0.25128094  0.25758326  0.50624072
   0.24228986  0.75604981  0.00269471
   0.24264874  0.74762731  0.49348137
   0.75073542  0.24409260  0.00732141
   0.74228988  0.24199746  0.49808032
   0.75097967  0.74355348  0.00686131
   0.74349187  0.75075666  0.50713008
   0.25006607  0.25586267  0.24421141
   0.25170268  0.25578604  0.74405462
   0.25020294  0.75579613  0.25791071
   0.25614015  0.75532538  0.74882556
   0.75041470  0.24388302  0.24282464
   0.74266087  0.25658612  0.75114910
   0.75009839  0.74350071  0.24439294
   0.75489387  0.75449357  0.74474414
   0.99917056  0.00094695  0.12417445
   0.49933707  0.00474970  0.12460434
   0.49969992  0.99935485  0.62521946
   0.99953719  0.50335802  0.87576785
   0.49757855  0.49579921  0.87506893
   0.00009272  0.25038462  0.12440582
   0.00012466  0.24637558  0.62575421
   0.50174082  0.24428343  0.12332623
   0.50286353  0.74786888  0.12542445
   0.00242108  0.74807038  0.37280083
   0.00367091  0.74818591  0.87641244
   0.25050063  0.00414265  0.12551380
   0.25045832  0.00292083  0.62363029
   0.75121504  0.99650220  0.12492860
   0.75024158  0.50460315  0.62431844
   0.25008245  0.24795906  0.12501341
   0.25003572  0.24796128  0.62488692
   0.74784933  0.25322639  0.12495698
   0.74541599  0.75459645  0.12561547
   0.74759334  0.74509827  0.62403540
   0.24990933  0.74814705  0.37386371
   0.12469966  0.49744059  0.74928391
   0.12595522  0.75223647  0.00698170
   0.12700168  0.75039982  0.50188881
   0.62459735  0.25001890  0.50261052
   0.62369392  0.75072162  0.49457739
   0.62461737  0.25228267  0.74817363
   0.37526196  0.50120949  0.00456158
   0.37486426  0.50083116  0.49692442
   0.87464342  0.00054984  0.50311848
   0.87480981  0.49525130  0.00293101
   0.87544041  0.49802581  0.49627047
   0.37542393  0.50405837  0.24909371
   0.87577830  0.99833951  0.74703796
   0.87488329  0.49468850  0.24993360
   0.37488833  0.75162091  0.75248383
   0.87610619  0.75166047  0.75187985
   0.99373377  0.12516785  0.99356271
   0.99413427  0.12513162  0.25154188
   0.00108465  0.12491952  0.75867382
   0.99811018  0.62469563  0.24395549
   0.49870347  0.12597258  0.75382095
   0.50024188  0.62423664  0.74965583
   0.00444865  0.37406743  0.50036208
   0.00066429  0.87598471  0.50182312
   0.49845241  0.37437012  0.49691052
   0.49230474  0.87523017  0.00035840
   0.49649401  0.87561676  0.49471244
   0.49783714  0.37356772  0.24829980
   0.49512432  0.87602876  0.25190084
   0.75365224  0.12532552  0.00110897
   0.74960304  0.12520496  0.49437481
   0.74972790  0.62420943  0.00326940
   0.75545986  0.12492711  0.25174845
   0.75154554  0.62474860  0.24928425
   0.24995532  0.37480260  0.99861089
   0.24819906  0.37493716  0.49758159
   0.25620903  0.87573996  0.00043432
   0.25300891  0.37474734  0.25157261
   0.25219912  0.37495972  0.75203305
   0.25525778  0.87551962  0.24878325
   0.24677538  0.87567954  0.75103329
   0.75415511  0.37487338  0.74863191
   0.74656493  0.87606922  0.74961438
   0.00807893  0.00586560  0.62532151
   0.00598808  0.49177512  0.12361654
   0.99724468  0.49872222  0.62743492
   0.50507956  0.50282239  0.12344097
   0.50146089  0.49718168  0.62594250
   0.00109086  0.99831206  0.37312887
   0.00099906  0.99072662  0.87658807
   0.00683517  0.50246035  0.37477380
   0.50130872  0.00577783  0.37398579
   0.50081986  0.99917305  0.87623988
   0.50434067  0.50452570  0.37390212
   0.99461986  0.75616876  0.12443017
   0.99966387  0.74862328  0.62571136
   0.49236342  0.24938077  0.62529055
   0.50096038  0.75387043  0.62552484
   0.99845511  0.25019603  0.37434666
   0.99865390  0.25751034  0.87595216
   0.49870445  0.24616429  0.37318638
   0.49936760  0.25818427  0.87835393
   0.49225449  0.74230511  0.37249190
   0.50041309  0.74849497  0.87788146
   0.24369109  0.50308927  0.12529972
   0.25172333  0.50233879  0.62474788
   0.74240345  0.00339943  0.62436423
   0.74442808  0.49092077  0.12521163
   0.24893584  0.99850732  0.37607575
   0.24921002  0.00254577  0.87566028
   0.24422378  0.50803434  0.37472814
   0.25267327  0.50717419  0.87489597
   0.74947149  0.99538462  0.37338004
   0.74932560  0.00256957  0.87662604
   0.74435354  0.49462206  0.37573230
   0.74845759  0.49938280  0.87378328
   0.25886682  0.74603428  0.12629128
   0.25361194  0.75056833  0.62381311
   0.75667897  0.24734131  0.62440284
   0.25202711  0.24843339  0.37453244
   0.25141347  0.24749346  0.87580935
   0.24741590  0.74491175  0.87587950
   0.75039678  0.25563205  0.37334795
   0.75015541  0.24888301  0.87660496
   0.75467880  0.75359932  0.37381398
   0.74891764  0.74934054  0.87725233
   0.12465662  0.00070220  0.99650519
   0.12563757  0.00239876  0.49682425
   0.12580419  0.50317642  0.99878395
   0.12609003  0.50389819  0.50383114
   0.62464615  0.99996237  0.99731937
   0.62651169  0.99891585  0.49650997
   0.62402239  0.49643522  0.99973830
   0.62495175  0.50023482  0.49947415
   0.12491145  0.00148019  0.25346164
   0.12413946  0.00295825  0.75295570
   0.12584316  0.49886785  0.24984756
   0.62516282  0.00156638  0.25260839
   0.62620951  0.00443778  0.75365298
   0.62424392  0.49884338  0.24953876
   0.62427255  0.49539644  0.75014605
   0.12452265  0.24596033  0.99515051
   0.12572879  0.24304274  0.49494446
   0.62424458  0.24982972  0.99421710
   0.62373370  0.75407026  0.99575222
   0.12491784  0.24746406  0.25447430
   0.12479517  0.25276839  0.75537773
   0.12596859  0.75267395  0.23869429
   0.12652889  0.74580883  0.74712012
   0.62481212  0.24694984  0.25523944
   0.62410517  0.75262240  0.25981270
   0.62314942  0.74946884  0.75357972
   0.37542936  0.01248978  0.99534904
   0.37413237  0.00514423  0.49479073
   0.87480104  0.99325986  0.99446816
   0.37511483  0.01041116  0.25537137
   0.37460266  0.99844404  0.75468304
   0.37291690  0.50161078  0.74641719
   0.87510794  0.99079157  0.25491227
   0.87637599  0.50496516  0.75059275
   0.37653736  0.24524945  0.99694268
   0.37573046  0.24471712  0.49688548
   0.37465286  0.74096828  0.99739176
   0.37468308  0.74660730  0.50217911
   0.87478346  0.26065416  0.99712926
   0.87352194  0.25161562  0.49700020
   0.87577759  0.75347143  0.00069280
   0.87428023  0.74851200  0.49921688
   0.37571598  0.24066596  0.25171316
   0.37611685  0.24928533  0.75441326
   0.37559434  0.74024300  0.24818240
   0.87456434  0.26020728  0.25241890
   0.87342086  0.24707684  0.75378275
   0.87468659  0.75999082  0.24819195
   0.00048181  0.12474814  0.49522796
   0.99778196  0.62501062  0.00932529
   0.00011515  0.62334119  0.50311462
   0.50465183  0.12534021  0.99095184
   0.49973076  0.12522244  0.49970903
   0.50593351  0.62631097  0.99765352
   0.50064555  0.62425457  0.50403803
   0.00099139  0.62443807  0.74543490
   0.50388645  0.12594816  0.25221686
   0.50604007  0.62503180  0.24934001
   0.00779766  0.37346258  0.99835591
   0.99985428  0.87754405  0.99963677
   0.49969171  0.37301886  0.00601311
   0.00570508  0.37377536  0.25345267
   0.99428248  0.37404701  0.75028127
   0.00453426  0.87688716  0.25005018
   0.00864193  0.87683807  0.74597399
   0.49488191  0.37475645  0.74635490
   0.50314384  0.87581384  0.75438034
   0.24770819  0.12567385  0.99632621
   0.24997865  0.12559482  0.49393736
   0.24897922  0.62492747  0.00136605
   0.24989431  0.62312799  0.50372355
   0.74957709  0.62417867  0.48947173
   0.24663408  0.12508572  0.25555767
   0.25016171  0.12500263  0.75321119
   0.24492260  0.62510190  0.24722625
   0.25048073  0.62431186  0.74777976
   0.75044458  0.12584750  0.75012609
   0.74654066  0.62324426  0.75644837
   0.25454068  0.87663968  0.50005955
   0.74459515  0.37335398  0.99493736
   0.74962341  0.37307009  0.50220745
   0.74814184  0.87652552  0.99445878
   0.74931534  0.87703930  0.50163751
   0.74353605  0.37335672  0.25236589
   0.74518824  0.87649948  0.25365334
 
 position of ions in cartesian coordinates  (Angst):
  15.41850440  0.12168137  0.10426139
  15.31759003 15.30108332  7.69613087
  15.32202024  7.68953170 15.32493732
  15.34060259  7.60540309  7.73741684
   7.69532256 15.29714841  0.09147203
   7.74301942 15.31588106  7.79934265
   7.61896651  7.74262613 15.29736476
   7.62509996  7.61391273  7.72606241
  15.42146371  0.10441312  3.74629836
  15.30196596  0.11116176 11.59812856
  15.33335792  7.81542968  3.82766076
   0.10837204  7.69492496 11.69587232
   7.70391786 15.34929324  3.76424712
   7.73787168  0.10299823 11.46994171
   7.62092368  7.65374732  3.82262272
   7.68056006  7.81601434 11.67125920
  15.41866304  3.74852816  0.08987630
  15.40935499  3.94273051  7.81319726
   0.11478503 11.59816022 15.32918404
   0.08511068 11.63956488  7.62871424
   7.71898322  3.81907537  0.13429427
   7.82259278  3.95021445  7.70333500
   7.68082769 11.67533822  0.12269714
   7.80919598 11.66000410  7.67622986
  15.42038828  3.76956899  3.76914753
  15.39724739  3.72616758 11.48356324
   0.00146318 11.47652141  3.95294458
  15.31427831 11.59547799 11.65357960
   7.71141337  3.96723066  3.77985642
   7.82208637  3.76118343 11.60327126
   7.71183282 11.67962481  3.75350779
   7.61684640 11.47686330 11.60128894
   3.86902346 15.33140899  0.11165825
   3.84354743  0.03651052  7.83687872
   3.95848861  7.62633584  0.00417388
   3.96385702  7.60430776  7.70493835
  11.57300966  0.08896579  0.10948473
  11.69616812  0.10987001  7.68670094
  11.66135147  7.80306176 15.40721746
  11.68246447  7.69525286  7.81398923
   3.86538783 15.32855952  3.77350009
   3.82490903 15.31401623 11.51646917
   3.94869439  7.62201987  3.85785585
   3.73317974  7.60336797 11.56763572
  11.57867553  0.08470412  3.74550678
  11.66889515 15.29674437 11.58679252
  11.67062946  7.79385892  3.87906135
  11.59394174  7.61997860 11.44080583
   3.84517598  3.95249630  0.09223748
   3.87627604  3.97349602  7.80930215
   3.73757909 11.66287338  0.04156876
   3.74311521 11.53294735  7.61247554
  11.58089325  3.76538828  0.11294058
  11.45061173  3.73306858  7.68341934
  11.58466110 11.47010424  0.10584302
  11.46915379 11.58122097  7.82302156
   3.85753540  3.94695417  3.76722108
   3.88278190  3.94577205 11.47783480
   3.85964675 11.65896015  3.97854731
   3.95123459 11.65169821 11.55143162
  11.57594576  3.76215524  3.74582868
  11.45633476  3.95811405 11.58727475
  11.57106639 11.46929011  3.77002135
  11.64504177 11.63886665 11.48847131
  15.41326983  0.01460775  1.91552312
   7.70280595  0.07326920  1.92215466
   7.70840339 15.41611271  9.64467591
  15.41892548  7.76483342 13.50965158
   7.67567896  7.64823074 13.49887009
   0.00143024  3.86244939  1.91909222
   0.00192303  3.80060571  9.65292493
   7.73988640  3.76833200  1.90243849
   7.75720540 11.53667380  1.93480563
   0.03734773 11.53978216  5.75084984
   0.05662764 11.54156437 13.51959506
   3.86423895  0.06390484  1.93618394
   3.86358629  0.04505687  9.62016135
  11.58829187 15.37210759  1.92715669
  11.57327531  7.78404086  9.63077673
   3.85778803  3.82503248  1.92846499
   3.85706727  3.82506672  9.63954621
  11.53637231  3.90628678  1.92759441
  11.49883535 11.64045373  1.93775244
  11.53242329 11.49393425  9.62641059
   3.85511754 11.54096485  5.76724585
   1.92362506  7.67355072 11.55850223
   1.94299337 11.60404854  0.10770011
   1.95913617 11.57571623  7.74216935
   9.63507918  3.85680778  7.75330248
   9.62114279 11.58068035  7.62938295
   9.63538803  3.89172884 11.54137494
   5.78881531  7.73169001  0.07036719
   5.78268037  7.72585392  7.66558831
  13.49230615  0.00848186  7.76113829
  13.49487280  7.63977871  0.04521402
  13.50460047  7.68257845  7.65550047
   5.79131392  7.77563712  3.84253565
  13.50981276 15.40045005 11.52385602
  13.49600635  7.63109686  3.85549187
   5.78305174 11.59455287 11.60786434
  13.51487092 11.59516317 11.59854729
  15.32940150  1.93084742 15.32676280
  15.33557971  1.93028851  3.88030137
   0.01673186  1.92701667 11.70335147
  15.39691238  9.63659523  3.76327317
   7.69303211  1.94326120 11.62849077
   7.71676363  9.62951482 11.56423941
   0.06862515  5.77038841  7.71861786
   0.01024732 13.51299689  7.74115595
   7.68915924  5.77505780  7.66537388
   7.59432486 13.50135736  0.00552876
   7.65894882 13.50732089  7.63146623
   7.67966803  5.76267993  3.83028880
   7.63781982 13.51367651  3.88583867
  11.62588832  1.93327953  0.01710710
  11.56342513  1.93141978  7.62625782
  11.56535112  9.62909505  0.05043402
  11.65377283  1.92713377  3.88348788
  11.59339019  9.63741242  3.84547493
   3.85582691  5.78172923 15.40463637
   3.82873475  5.78380490  7.67572588
   3.95229714 13.50922138  0.00669984
   3.90293185  5.78087672  3.88077540
   3.89044002  5.78415292 11.60091054
   3.93762309 13.50582247  3.83774661
   3.80677299 13.50828928 11.58548827
  11.63364564  5.78282112 11.54844440
  11.51655907 13.51430057 11.56360009
   0.12462608  0.09048310  9.64625011
   0.09237254  7.58615488  1.90691683
  15.38356109  7.69332128  9.67885173
   7.79139010  7.75657085  1.90420842
   7.73556819  7.66955688  9.65582961
   0.01682764 15.40002653  5.75591013
   0.01541161 15.28301298 13.52230434
   0.10543984  7.75098595  5.78128494
   7.73322074  0.08912911  5.76912910
   7.72567960 15.41330822 13.51693315
   7.77999191  7.78284609  5.76783829
  15.34307044 11.66470837  1.91946785
  15.42087966 11.54831117  9.65226392
   7.59522999  3.84696398  9.64577251
   7.72784729 11.62925405  9.64938676
  15.40223323  3.85954023  5.77469580
  15.40529986  3.97237120 13.51249478
   7.69304721  3.79734632  5.75679729
   7.70327699  3.98276726 13.54954459
   7.59354970 11.45084682  5.74608423
   7.71940468 11.54633193 13.54225628
   3.75919448  7.76068767  1.93288159
   3.88310041  7.74911070  9.63740136
  11.45236380  0.05243980  9.63148303
  11.48359579  7.57297557  1.93152273
   3.84010042 15.40303871  5.80136895
   3.84432988  0.03927119 13.50799229
   3.76741188  7.83697063  5.78058063
   3.89775420  7.82370192 13.49620190
  11.56139574 15.35486762  5.75978468
  11.55914528  0.03963837 13.52289018
  11.48244588  7.63007199  5.79607089
  11.54575524  7.70351138 13.47903746
   3.99329635 11.50837322  1.94817749
   3.91223430 11.57831568  9.62298151
  11.67257891  3.81550304  9.63207872
   3.88778659  3.83234956  5.77756171
   3.87832053  3.81785020 13.51029175
   3.81665373 11.49105687 13.51137393
  11.57566935  3.94339654  5.75928971
  11.57194605  3.83928545 13.52256498
  11.64172408 11.62507200  5.76647876
  11.55285204 11.55937574 13.53255135
   1.92296103  0.01083222 15.37215366
   1.93809333  0.03700345  7.66404305
   1.94066363  7.76203205 15.40730596
   1.94507302  7.77316612  7.77213177
   9.63583199 15.42548432 15.38471324
   9.66460997 15.40934072  7.65919499
   9.62620976  7.65804190 15.42202785
   9.64054624  7.71665470  7.70492057
   1.92689210  0.02283345  3.90991575
   1.91498333  0.04563411 11.61514339
   1.94126480  7.69556777  3.85416469
   9.64380224  0.02416310  3.89675345
   9.65994845  0.06845747 11.62589970
   9.62962724  7.69519029  3.84940101
   9.63006885  7.64201760 11.57180166
   1.92089452  3.79419997 15.35125626
   1.93950048  3.74919305  7.63504527
   9.62963739  3.85388949 15.33685742
   9.62175654 11.63233677 15.36053831
   1.92699066  3.81739660  3.92553708
   1.92509841  3.89922150 11.65250583
   1.94319970 11.61079717  3.68211366
   1.95184286 11.50489536 11.52512333
   9.63839233  3.80946422  3.93734014
   9.62748685 11.61000188  4.00788762
   9.61274331 11.56135490 11.62476955
   5.79139770  0.19266816 15.35431878
   5.77139019  0.07935525  7.63267393
  13.49473749 15.32209100 15.34073029
   5.78654571  0.16060317  3.93937526
   5.77864490 15.40206253 11.64178955
   5.75264019  7.73788044 11.51427996
  13.49947176 15.28401494  3.93229322
  13.51903277  7.78962531 11.57869244
   5.80848979  3.78323396 15.37890245
   5.79604244  3.77502212  7.66498760
   5.77941934 11.43022474 15.38582998
   5.77988544 11.51721262  7.74664747
  13.49446636  4.02086797 15.38178064
  13.47500614  3.88143893  7.66675737
  13.50980187 11.62309917  0.01068712
  13.48670346 11.54659469  7.70095193
   5.79581907  3.71252868  3.88294345
   5.80200294  3.84549169 11.63762787
   5.79394265 11.41903644  3.82847784
  13.49108624  4.01397439  3.89383032
  13.47344681  3.81142333 11.62790148
  13.49297204 11.72366769  3.82862507
   0.00743251  1.92437287  7.63941861
  15.39184914  9.64145427  0.14385254
   0.00177628  9.61570154  7.76107879
   7.78479178  1.93350616 15.28648727
   7.70887906  1.93168946  7.70854390
   7.80456307  9.66151356 15.38986792
   7.72299074  9.62979143  7.77532332
   0.01529329  9.63262209 11.49912709
   7.77298504  1.94288446  3.89071356
   7.80620696  9.64178102  3.84633510
   0.12028725  5.76105791 15.40070290
  15.42381693 13.53705142 15.42046156
   7.70827670  5.75421316  0.09275864
   0.08800696  5.76588294  3.90977725
  15.33786600  5.77007342 11.57388744
   0.06994573 13.52691810  3.85729022
   0.13331101 13.52616095 11.50744314
   7.63408036  5.78101732 11.51331911
   7.76152948 13.51036103 11.63712005
   3.82116264  1.93865302 15.36939266
   3.85618691  1.93743386  7.61950970
   3.84076957  9.64017169  0.02107284
   3.85488581  9.61241273  7.77047219
  11.56302475  9.62862069  7.55062263
   3.80459338  1.92958042  3.94224920
   3.85901080  1.92829864 11.61908469
   3.77819196  9.64286238  3.81372810
   3.86393203  9.63067515 11.53529910
  11.57640674  1.94133175 11.57149368
  11.51618455  9.61420641 11.66902161
   3.92656100 13.52310047  7.71395097
  11.48617297  5.75938267 15.34796827
  11.56373930  5.75500337  7.74708466
  11.54088446 13.52133947 15.34058565
  11.55898703 13.52926515  7.73829269
  11.46983535  5.75942492  3.89301264
  11.49532210 13.52093773  3.91287286
 


--------------------------------------------------------------------------------------------------------


 k-point  1 :   0.2500 0.2500 0.2500  plane waves:  154316
 k-point  2 :  -0.2500 0.2500 0.2500  plane waves:  154316
 k-point  3 :   0.2500-0.2500 0.2500  plane waves:  154316
 k-point  4 :  -0.2500-0.2500 0.2500  plane waves:  154316

 maximum and minimum number of plane-waves per node :     19350    19216

 maximum number of plane-waves:    154316
 maximum index in each direction: 
   IXMAX=   33   IYMAX=   33   IZMAX=   33
   IXMIN=  -33   IYMIN=  -33   IZMIN=  -33


 real space projection operators:
  total allocation   :     149127.16 KBytes
  max/ min on nodes  :      19755.95      17537.12


 parallel 3D FFT for wavefunctions:
    minimum data exchange during FFTs selected (reduces bandwidth)
 parallel 3D FFT for charge:
    minimum data exchange during FFTs selected (reduces bandwidth)


 total amount of memory used by VASP MPI-rank0   389184. kBytes
=======================================================================

   base      :      30000. kBytes
   nonlr-proj:      69299. kBytes
   fftplans  :      38736. kBytes
   grid      :      49123. kBytes
   one-center:        995. kBytes
   wavefun   :     201031. kBytes
 
     INWAV:  cpu time  121.9995: real time  171.9555
 Broyden mixing: mesh for mixing (old mesh)
   NGX = 67   NGY = 67   NGZ = 67
  (NGX  =280   NGY  =280   NGZ  =280)
  gives a total of 300763 points

 charge density for first step will be calculated from the start-wavefunctions


--------------------------------------------------------------------------------------------------------


 Maximum index for non-local projection operator         1586
 Maximum index for augmentation-charges         4480 (set IRDMAX)


--------------------------------------------------------------------------------------------------------


 initial charge from wavefunction
 First call to EWALD:  gamma=   0.115
 Maximum number of real-space cells 3x 3x 3
 Maximum number of reciprocal cells 3x 3x 3

    FEWALD:  cpu time    0.0240: real time    0.0235


--------------------------------------- Iteration      1(   1)  ---------------------------------------


    POTLOK:  cpu time    0.7019: real time    0.7262
    SETDIJ:  cpu time    2.3306: real time    2.3496
     EDDAV:  cpu time  212.1787: real time  211.7451
       DOS:  cpu time    0.0060: real time    0.0059
    CHARGE:  cpu time    8.2657: real time    8.2644
    MIXING:  cpu time    0.0060: real time    0.0067
    --------------------------------------------
      LOOP:  cpu time  223.4890: real time  223.0978

 eigenvalue-minimisations  : 25216
 total energy-change (2. order) :-0.1708893E+04  (-0.5838040E-06)
 number of electron    1920.0000027 magnetization       0.0000000
 augmentation part      495.6046565 magnetization       0.0000000

 Broyden mixing:
  rms(total) = 0.63596E-03    rms(broyden)= 0.63064E-03
  rms(prec ) = 0.79965E-03
  weight for this iteration     100.00

 Free energy of the ion-electron system (eV)
  ---------------------------------------------------
  alpha Z        PSCENC =      6105.04152606
  Ewald energy   TEWEN  =   -102825.60802468
  -Hartree energ DENC   =    -65583.94002794
  -exchange      EXHF   =         0.00000000
  -V(xc)+E(xc)   XCENC  =      8958.83060115
  PAW double counting   =    144198.19755067  -145187.62765548
  entropy T*S    EENTRO =        -0.00000000
  eigenvalues    EBANDS =    -25792.61301584
  atomic energy  EATOM  =    178418.82573015
  Solvation  Ediel_sol  =         0.00000000
  ---------------------------------------------------
  free energy    TOTEN  =     -1708.89331589 eV

  energy without entropy =    -1708.89331589  energy(sigma->0) =    -1708.89331589


--------------------------------------------------------------------------------------------------------




--------------------------------------- Iteration      1(   2)  ---------------------------------------


    POTLOK:  cpu time    0.7099: real time    0.7125
    SETDIJ:  cpu time    2.3666: real time    2.3655
     EDDAV:  cpu time  182.0613: real time  181.2993
       DOS:  cpu time    0.0020: real time    0.0024
    --------------------------------------------
      LOOP:  cpu time  185.1399: real time  184.3797

 eigenvalue-minimisations  : 20576
 total energy-change (2. order) : 0.9910727E-06  (-0.3612278E-06)
 number of electron    1920.0000027 magnetization       0.0000000
 augmentation part      495.6046565 magnetization       0.0000000

 Free energy of the ion-electron system (eV)
  ---------------------------------------------------
  alpha Z        PSCENC =      6105.04152606
  Ewald energy   TEWEN  =   -102825.60802468
  -Hartree energ DENC   =    -65583.93478922
  -exchange      EXHF   =         0.00000000
  -V(xc)+E(xc)   XCENC  =      8958.83167379
  PAW double counting   =    144198.17450669  -145187.60765769
  entropy T*S    EENTRO =        -0.00000000
  eigenvalues    EBANDS =    -25792.61628001
  atomic energy  EATOM  =    178418.82573015
  Solvation  Ediel_sol  =         0.00000000
  ---------------------------------------------------
  free energy    TOTEN  =     -1708.89331490 eV

  energy without entropy =    -1708.89331490  energy(sigma->0) =    -1708.89331490


--------------------------------------------------------------------------------------------------------




 average (electrostatic) potential at core
  the test charge radii are     1.0397  0.7215  0.7167
  (the norm of the test charge is              1.0000)
       1 -59.0450       2 -58.6253       3 -58.8429       4 -58.7643       5 -59.0089
       6 -58.7700       7 -58.8798       8 -58.8924       9 -59.0511      10 -58.7340
      11 -58.7586      12 -58.8239      13 -59.0763      14 -58.8160      15 -59.1095
      16 -58.8037      17 -59.0545      18 -58.7952      19 -58.7347      20 -58.4398
      21 -59.6496      22 -58.8500      23 -59.0103      24 -58.6731      25 -59.0757
      26 -58.7632      27 -58.6200      28 -58.6168      29 -59.2051      30 -58.8056
      31 -59.0230      32 -58.8132      33 -58.9208      34 -59.3397      35 -58.9666
      36 -58.8474      37 -59.1150      38 -58.7879      39 -58.8183      40 -58.7359
      41 -58.9614      42 -58.9791      43 -59.0119      44 -58.8133      45 -59.0979
      46 -58.6311      47 -58.8104      48 -58.7654      49 -59.0151      50 -58.8594
      51 -58.8111      52 -58.6219      53 -59.0962      54 -58.8260      55 -58.8286
      56 -58.5697      57 -59.0206      58 -58.8997      59 -58.8227      60 -58.8582
      61 -59.0938      62 -58.8207      63 -58.8074      64 -58.3906      65 -74.3484
      66 -74.1793      67 -74.0087      68 -74.1698      69 -74.2239      70 -74.1884
      71 -74.0023      72 -74.7294      73 -74.2963      74 -73.8054      75 -73.8757
      76 -74.1388      77 -74.3156      78 -74.3777      79 -74.0999      80 -74.1768
      81 -74.0793      82 -74.3954      83 -73.9406      84 -73.7534      85 -74.1383
      86 -74.1982      87 -74.1568      88 -73.8227      89 -74.1988      90 -73.8262
      91 -74.1753      92 -74.1189      93 -74.0351      94 -74.1375      95 -74.0392
      96 -73.9525      97 -74.1684      98 -74.1022      99 -73.9814     100 -73.9485
     101 -73.7741     102 -74.3470     103 -74.1705     104 -74.1049     105 -73.9439
     106 -73.9953     107 -74.0026     108 -73.9271     109 -73.8313     110 -74.0254
     111 -74.3936     112 -73.9346     113 -74.3230     114 -74.2192     115 -74.2348
     116 -74.1571     117 -74.0338     118 -74.2122     119 -74.0197     120 -74.1672
     121 -74.2149     122 -74.0874     123 -74.1736     124 -74.0517     125 -74.1038
     126 -74.0820     127 -73.9634     128 -73.8295     129 -79.1727     130 -78.9755
     131 -78.9250     132 -79.1183     133 -79.0718     134 -79.0232     135 -79.0611
     136 -79.0915     137 -78.5315     138 -78.5373     139 -79.2745     140 -78.2663
     141 -78.3015     142 -79.2839     143 -79.0856     144 -78.5158     145 -78.5225
     146 -79.2816     147 -79.2035     148 -78.9765     149 -78.9936     150 -79.4918
     151 -79.4562     152 -79.1940     153 -79.1173     154 -78.5635     155 -78.6637
     156 -79.5036     157 -79.4791     158 -79.0940     159 -79.0451     160 -78.9530
     161 -78.9267     162 -78.9732     163 -78.9916     164 -79.2570     165 -78.5581
     166 -78.5532     167 -79.1760     168 -79.1418     169 -79.1135     170 -78.2851
     171 -78.3050     172 -79.6259     173 -79.2222     174 -78.4815     175 -78.4202
     176 -79.6810     177 -79.0022     178 -78.5590     179 -78.4239     180 -79.6098
     181 -79.0353     182 -78.4981     183 -79.6403     184 -79.0056     185 -78.4750
     186 -79.1716     187 -79.6727     188 -79.1972     189 -79.8873     190 -79.2522
     191 -79.6094     192 -79.2181     193 -79.3580     194 -78.2713     195 -79.7080
     196 -79.4608     197 -78.3342     198 -79.6146     199 -79.3530     200 -79.6629
     201 -79.6015     202 -79.2242     203 -79.0118     204 -79.6409     205 -78.9936
     206 -79.8636     207 -79.0450     208 -79.1000     209 -78.2696     210 -79.7206
     211 -78.9968     212 -78.9983     213 -78.2873     214 -79.6608     215 -79.0540
     216 -79.4745     217 -79.6472     218 -79.0151     219 -79.3129     220 -78.3142
     221 -79.1911     222 -78.3364     223 -79.4388     224 -78.4207     225 -79.1869
     226 -78.4301     227 -79.0947     228 -78.6083     229 -78.6444     230 -79.0665
     231 -79.0339     232 -79.5690     233 -78.4756     234 -78.9718     235 -78.4700
     236 -78.8876     237 -78.4304     238 -78.4220     239 -78.5300     240 -79.1838
     241 -78.5497     242 -78.9892     243 -79.0521     244 -78.5272     245 -78.4704
     246 -78.5367     247 -78.4852     248 -78.2981     249 -78.3767     250 -79.2968
     251 -78.5625     252 -78.9442     253 -78.5358     254 -78.8919     255 -78.5196
     256 -78.4939
 
 
 
 E-fermi :  -0.6639     XC(G=0):  -9.0207     alpha+bet : -7.7008


 spin component 1

 k-point     1 :       0.2500    0.2500    0.2500
  band No.  band energies     occupation 
      1     -35.6712      1.00000
      2     -35.6078      1.00000
      3     -35.4649      1.00000
      4     -35.3168      1.00000
      5     -35.2950      1.00000
      6     -35.2438      1.00000
      7     -35.1770      1.00000
      8     -35.1674      1.00000
      9     -35.1666      1.00000
     10     -35.1539      1.00000
     11     -35.1131      1.00000
     12     -35.1121      1.00000
     13     -35.1099      1.00000
     14     -35.1047      1.00000
     15     -35.0983      1.00000
     16     -35.0944      1.00000
     17     -35.0897      1.00000
     18     -35.0781      1.00000
     19     -35.0615      1.00000
     20     -35.0576      1.00000
     21     -35.0484      1.00000
     22     -35.0387      1.00000
     23     -35.0332      1.00000
     24     -35.0166      1.00000
     25     -35.0139      1.00000
     26     -35.0032      1.00000
     27     -35.0002      1.00000
     28     -34.9909      1.00000
     29     -34.9736      1.00000
     30     -34.9649      1.00000
     31     -34.9570      1.00000
     32     -34.9532      1.00000
     33     -34.9474      1.00000
     34     -34.9451      1.00000
     35     -34.9419      1.00000
     36     -34.9410      1.00000
     37     -34.9382      1.00000
     38     -34.9294      1.00000
     39     -34.9233      1.00000
     40     -34.9152      1.00000
     41     -34.9116      1.00000
     42     -34.9114      1.00000
     43     -34.9073      1.00000
     44     -34.8992      1.00000
     45     -34.8981      1.00000
     46     -34.8965      1.00000
     47     -34.8954      1.00000
     48     -34.8922      1.00000
     49     -34.8913      1.00000
     50     -34.8902      1.00000
     51     -34.8886      1.00000
     52     -34.8804      1.00000
     53     -34.8793      1.00000
     54     -34.8775      1.00000
     55     -34.8749      1.00000
     56     -34.8670      1.00000
     57     -34.8615      1.00000
     58     -34.8597      1.00000
     59     -34.8591      1.00000
     60     -34.8590      1.00000
     61     -34.8562      1.00000
     62     -34.8503      1.00000
     63     -34.8501      1.00000
     64     -34.8489      1.00000
     65     -34.8387      1.00000
     66     -34.8368      1.00000
     67     -34.8338      1.00000
     68     -34.8321      1.00000
     69     -34.8312      1.00000
     70     -34.8295      1.00000
     71     -34.8283      1.00000
     72     -34.8229      1.00000
     73     -34.8214      1.00000
     74     -34.8201      1.00000
     75     -34.8198      1.00000
     76     -34.8197      1.00000
     77     -34.8126      1.00000
     78     -34.8115      1.00000
     79     -34.8096      1.00000
     80     -34.8095      1.00000
     81     -34.8074      1.00000
     82     -34.8058      1.00000
     83     -34.8008      1.00000
     84     -34.7998      1.00000
     85     -34.7957      1.00000
     86     -34.7919      1.00000
     87     -34.7890      1.00000
     88     -34.7869      1.00000
     89     -34.7848      1.00000
     90     -34.7803      1.00000
     91     -34.7792      1.00000
     92     -34.7767      1.00000
     93     -34.7766      1.00000
     94     -34.7757      1.00000
     95     -34.7712      1.00000
     96     -34.7698      1.00000
     97     -34.7607      1.00000
     98     -34.7542      1.00000
     99     -34.7502      1.00000
    100     -34.7501      1.00000
    101     -34.7499      1.00000
    102     -34.7487      1.00000
    103     -34.7425      1.00000
    104     -34.7341      1.00000
    105     -34.7340      1.00000
    106     -34.7330      1.00000
    107     -34.7294      1.00000
    108     -34.7286      1.00000
    109     -34.7235      1.00000
    110     -34.7197      1.00000
    111     -34.7190      1.00000
    112     -34.7154      1.00000
    113     -34.7111      1.00000
    114     -34.7098      1.00000
    115     -34.7090      1.00000
    116     -34.7016      1.00000
    117     -34.6944      1.00000
    118     -34.6918      1.00000
    119     -34.6902      1.00000
    120     -34.6893      1.00000
    121     -34.6848      1.00000
    122     -34.6809      1.00000
    123     -34.6792      1.00000
    124     -34.6777      1.00000
    125     -34.6770      1.00000
    126     -34.6747      1.00000
    127     -34.6714      1.00000
    128     -34.6691      1.00000
    129     -34.6676      1.00000
    130     -34.6670      1.00000
    131     -34.6654      1.00000
    132     -34.6651      1.00000
    133     -34.6642      1.00000
    134     -34.6625      1.00000
    135     -34.6617      1.00000
    136     -34.6547      1.00000
    137     -34.6535      1.00000
    138     -34.6523      1.00000
    139     -34.6513      1.00000
    140     -34.6493      1.00000
    141     -34.6491      1.00000
    142     -34.6465      1.00000
    143     -34.6439      1.00000
    144     -34.6439      1.00000
    145     -34.6434      1.00000
    146     -34.6417      1.00000
    147     -34.6390      1.00000
    148     -34.6377      1.00000
    149     -34.6368      1.00000
    150     -34.6297      1.00000
    151     -34.6270      1.00000
    152     -34.6203      1.00000
    153     -34.6196      1.00000
    154     -34.6195      1.00000
    155     -34.6148      1.00000
    156     -34.6139      1.00000
    157     -34.6125      1.00000
    158     -34.6100      1.00000
    159     -34.6041      1.00000
    160     -34.6021      1.00000
    161     -34.5994      1.00000
    162     -34.5956      1.00000
    163     -34.5915      1.00000
    164     -34.5900      1.00000
    165     -34.5830      1.00000
    166     -34.5788      1.00000
    167     -34.5749      1.00000
    168     -34.5737      1.00000
    169     -34.5657      1.00000
    170     -34.5591      1.00000
    171     -34.5566      1.00000
    172     -34.5465      1.00000
    173     -34.5423      1.00000
    174     -34.5312      1.00000
    175     -34.5304      1.00000
    176     -34.5213      1.00000
    177     -34.4949      1.00000
    178     -34.4806      1.00000
    179     -34.4616      1.00000
    180     -34.4597      1.00000
    181     -34.4574      1.00000
    182     -34.4557      1.00000
    183     -34.4435      1.00000
    184     -34.4282      1.00000
    185     -34.4189      1.00000
    186     -34.3872      1.00000
    187     -34.3064      1.00000
    188     -34.2821      1.00000
    189     -34.2779      1.00000
    190     -34.2679      1.00000
    191     -34.2401      1.00000
    192     -34.2260      1.00000
    193     -23.7403      1.00000
    194     -23.5587      1.00000
    195     -23.5452      1.00000
    196     -23.5223      1.00000
    197     -23.5121      1.00000
    198     -23.4078      1.00000
    199     -23.4064      1.00000
    200     -23.3766      1.00000
    201     -23.3726      1.00000
    202     -23.3578      1.00000
    203     -23.3195      1.00000
    204     -23.3033      1.00000
    205     -23.2407      1.00000
    206     -23.2151      1.00000
    207     -23.2075      1.00000
    208     -23.2013      1.00000
    209     -23.1775      1.00000
    210     -23.1579      1.00000
    211     -23.1418      1.00000
    212     -23.1076      1.00000
    213     -23.0773      1.00000
    214     -23.0708      1.00000
    215     -23.0589      1.00000
    216     -23.0553      1.00000
    217     -23.0534      1.00000
    218     -23.0443      1.00000
    219     -23.0338      1.00000
    220     -23.0292      1.00000
    221     -23.0111      1.00000
    222     -23.0018      1.00000
    223     -22.9959      1.00000
    224     -22.9913      1.00000
    225     -22.9793      1.00000
    226     -22.9684      1.00000
    227     -22.9645      1.00000
    228     -22.9585      1.00000
    229     -22.9433      1.00000
    230     -22.9305      1.00000
    231     -22.9062      1.00000
    232     -22.9021      1.00000
    233     -22.8925      1.00000
    234     -22.8873      1.00000
    235     -22.8628      1.00000
    236     -22.8451      1.00000
    237     -22.8365      1.00000
    238     -22.8114      1.00000
    239     -22.8044      1.00000
    240     -22.7982      1.00000
    241     -22.7974      1.00000
    242     -22.7644      1.00000
    243     -22.7545      1.00000
    244     -22.7483      1.00000
    245     -22.7434      1.00000
    246     -22.7348      1.00000
    247     -22.7067      1.00000
    248     -22.6955      1.00000
    249     -22.6893      1.00000
    250     -22.6738      1.00000
    251     -22.6658      1.00000
    252     -22.6580      1.00000
    253     -22.6519      1.00000
    254     -22.6379      1.00000
    255     -22.6205      1.00000
    256     -22.6181      1.00000
    257     -22.6162      1.00000
    258     -22.6075      1.00000
    259     -22.6002      1.00000
    260     -22.5989      1.00000
    261     -22.5869      1.00000
    262     -22.5837      1.00000
    263     -22.5775      1.00000
    264     -22.5715      1.00000
    265     -22.5675      1.00000
    266     -22.5616      1.00000
    267     -22.5483      1.00000
    268     -22.5434      1.00000
    269     -22.5304      1.00000
    270     -22.5259      1.00000
    271     -22.5226      1.00000
    272     -22.5048      1.00000
    273     -22.4746      1.00000
    274     -22.4625      1.00000
    275     -22.4442      1.00000
    276     -22.4343      1.00000
    277     -22.3579      1.00000
    278     -22.3117      1.00000
    279     -22.3034      1.00000
    280     -22.2823      1.00000
    281     -22.2614      1.00000
    282     -22.2513      1.00000
    283     -22.2471      1.00000
    284     -22.2273      1.00000
    285     -22.2196      1.00000
    286     -22.2146      1.00000
    287     -22.2088      1.00000
    288     -22.1987      1.00000
    289     -22.1969      1.00000
    290     -22.1779      1.00000
    291     -22.1684      1.00000
    292     -22.1666      1.00000
    293     -22.1613      1.00000
    294     -22.1537      1.00000
    295     -22.1474      1.00000
    296     -22.1400      1.00000
    297     -22.1339      1.00000
    298     -22.1294      1.00000
    299     -22.1217      1.00000
    300     -22.1119      1.00000
    301     -22.1099      1.00000
    302     -22.0986      1.00000
    303     -22.0833      1.00000
    304     -22.0773      1.00000
    305     -22.0737      1.00000
    306     -22.0622      1.00000
    307     -22.0498      1.00000
    308     -22.0486      1.00000
    309     -22.0477      1.00000
    310     -22.0324      1.00000
    311     -21.9605      1.00000
    312     -21.9540      1.00000
    313     -21.9456      1.00000
    314     -21.9399      1.00000
    315     -21.9357      1.00000
    316     -21.9139      1.00000
    317     -21.9073      1.00000
    318     -21.9019      1.00000
    319     -21.8747      1.00000
    320     -21.8525      1.00000
    321     -17.2018      1.00000
    322     -16.9781      1.00000
    323     -16.9529      1.00000
    324     -16.9489      1.00000
    325     -16.8778      1.00000
    326     -16.8252      1.00000
    327     -16.7980      1.00000
    328     -16.7947      1.00000
    329     -16.7921      1.00000
    330     -16.7863      1.00000
    331     -16.7801      1.00000
    332     -16.7759      1.00000
    333     -16.7590      1.00000
    334     -16.7552      1.00000
    335     -16.7426      1.00000
    336     -16.7275      1.00000
    337     -16.7249      1.00000
    338     -16.7170      1.00000
[...]
   79        1.570   3.476   0.000   5.046
   80        1.568   3.465   0.000   5.033
   81        1.568   3.465   0.000   5.033
   82        1.570   3.477   0.000   5.047
   83        1.568   3.464   0.000   5.032
   84        1.569   3.462   0.000   5.031
   85        1.570   3.477   0.000   5.047
   86        1.571   3.480   0.000   5.051
   87        1.571   3.477   0.000   5.047
   88        1.570   3.466   0.000   5.036
   89        1.570   3.479   0.000   5.049
   90        1.569   3.466   0.000   5.035
   91        1.570   3.477   0.000   5.047
   92        1.569   3.467   0.000   5.035
   93        1.569   3.468   0.000   5.037
   94        1.570   3.481   0.000   5.051
   95        1.568   3.465   0.000   5.034
   96        1.569   3.467   0.000   5.036
   97        1.569   3.462   0.000   5.030
   98        1.570   3.478   0.000   5.048
   99        1.568   3.464   0.000   5.032
  100        1.569   3.466   0.000   5.035
  101        1.569   3.463   0.000   5.032
  102        1.569   3.475   0.000   5.044
  103        1.569   3.466   0.000   5.035
  104        1.571   3.477   0.000   5.048
  105        1.568   3.465   0.000   5.034
  106        1.569   3.467   0.000   5.036
  107        1.569   3.466   0.000   5.036
  108        1.569   3.465   0.000   5.034
  109        1.570   3.465   0.000   5.035
  110        1.569   3.468   0.000   5.036
  111        1.570   3.479   0.000   5.050
  112        1.569   3.466   0.000   5.034
  113        1.569   3.460   0.000   5.029
  114        1.568   3.464   0.000   5.032
  115        1.568   3.466   0.000   5.034
  116        1.571   3.480   0.000   5.051
  117        1.568   3.465   0.000   5.033
  118        1.567   3.464   0.000   5.031
  119        1.568   3.463   0.000   5.031
  120        1.568   3.464   0.000   5.032
  121        1.570   3.476   0.000   5.046
  122        1.568   3.463   0.000   5.031
  123        1.568   3.463   0.000   5.031
  124        1.569   3.468   0.000   5.037
  125        1.568   3.466   0.000   5.034
  126        1.570   3.465   0.000   5.034
  127        1.569   3.467   0.000   5.036
  128        1.570   3.465   0.000   5.035
  129        1.729   4.385   0.000   6.114
  130        1.730   4.383   0.000   6.113
  131        1.730   4.383   0.000   6.113
  132        1.730   4.382   0.000   6.112
  133        1.730   4.384   0.000   6.114
  134        1.730   4.385   0.000   6.114
  135        1.730   4.383   0.000   6.113
  136        1.730   4.384   0.000   6.114
  137        1.729   4.374   0.000   6.102
  138        1.729   4.374   0.000   6.103
  139        1.730   4.385   0.000   6.115
  140        1.729   4.373   0.000   6.102
  141        1.729   4.375   0.000   6.104
  142        1.730   4.386   0.000   6.115
  143        1.729   4.384   0.000   6.114
  144        1.729   4.374   0.000   6.103
  145        1.729   4.374   0.000   6.103
  146        1.730   4.386   0.000   6.116
  147        1.730   4.382   0.000   6.112
  148        1.730   4.383   0.000   6.113
  149        1.730   4.385   0.000   6.115
  150        1.731   4.392   0.000   6.123
  151        1.731   4.394   0.000   6.125
  152        1.729   4.386   0.000   6.115
  153        1.730   4.384   0.000   6.114
  154        1.729   4.373   0.000   6.102
  155        1.729   4.376   0.000   6.105
  156        1.731   4.390   0.000   6.121
  157        1.730   4.391   0.000   6.122
  158        1.730   4.384   0.000   6.114
  159        1.730   4.385   0.000   6.114
  160        1.730   4.383   0.000   6.113
  161        1.730   4.381   0.000   6.111
  162        1.730   4.384   0.000   6.114
  163        1.730   4.385   0.000   6.115
  164        1.730   4.386   0.000   6.115
  165        1.729   4.375   0.000   6.104
  166        1.729   4.374   0.000   6.103
  167        1.729   4.385   0.000   6.114
  168        1.730   4.384   0.000   6.114
  169        1.730   4.384   0.000   6.114
  170        1.729   4.372   0.000   6.101
  171        1.729   4.372   0.000   6.101
  172        1.730   4.391   0.000   6.121
  173        1.730   4.382   0.000   6.112
  174        1.728   4.372   0.000   6.100
  175        1.729   4.372   0.000   6.101
  176        1.730   4.392   0.000   6.122
  177        1.730   4.384   0.000   6.114
  178        1.729   4.374   0.000   6.103
  179        1.728   4.372   0.000   6.101
  180        1.731   4.392   0.000   6.123
  181        1.731   4.384   0.000   6.115
  182        1.729   4.375   0.000   6.104
  183        1.731   4.392   0.000   6.122
  184        1.730   4.385   0.000   6.115
  185        1.729   4.373   0.000   6.102
  186        1.730   4.387   0.000   6.116
  187        1.731   4.394   0.000   6.124
  188        1.730   4.385   0.000   6.115
  189        1.731   4.392   0.000   6.123
  190        1.730   4.386   0.000   6.116
  191        1.731   4.392   0.000   6.123
  192        1.729   4.386   0.000   6.115
  193        1.730   4.389   0.000   6.119
  194        1.729   4.370   0.000   6.099
  195        1.731   4.392   0.000   6.123
  196        1.731   4.389   0.000   6.120
  197        1.729   4.374   0.000   6.103
  198        1.731   4.391   0.000   6.122
  199        1.730   4.386   0.000   6.116
  200        1.731   4.392   0.000   6.123
  201        1.731   4.391   0.000   6.122
  202        1.730   4.386   0.000   6.115
  203        1.730   4.385   0.000   6.115
  204        1.731   4.391   0.000   6.122
  205        1.730   4.384   0.000   6.114
  206        1.731   4.390   0.000   6.121
  207        1.730   4.383   0.000   6.113
  208        1.730   4.380   0.000   6.111
  209        1.728   4.372   0.000   6.100
  210        1.731   4.391   0.000   6.122
  211        1.730   4.383   0.000   6.112
  212        1.730   4.382   0.000   6.112
  213        1.728   4.372   0.000   6.101
  214        1.731   4.391   0.000   6.122
  215        1.730   4.385   0.000   6.115
  216        1.731   4.391   0.000   6.122
  217        1.731   4.391   0.000   6.121
  218        1.730   4.385   0.000   6.115
  219        1.730   4.390   0.000   6.121
  220        1.728   4.372   0.000   6.100
  221        1.729   4.383   0.000   6.112
  222        1.729   4.373   0.000   6.102
  223        1.731   4.379   0.000   6.111
  224        1.729   4.373   0.000   6.101
  225        1.730   4.384   0.000   6.114
  226        1.729   4.373   0.000   6.101
  227        1.730   4.387   0.000   6.117
  228        1.729   4.375   0.000   6.104
  229        1.729   4.374   0.000   6.104
  230        1.730   4.383   0.000   6.114
  231        1.730   4.386   0.000   6.116
  232        1.730   4.385   0.000   6.115
  233        1.729   4.372   0.000   6.101
  234        1.730   4.381   0.000   6.110
  235        1.729   4.374   0.000   6.102
  236        1.729   4.381   0.000   6.110
  237        1.728   4.372   0.000   6.101
  238        1.728   4.371   0.000   6.099
  239        1.729   4.374   0.000   6.103
  240        1.731   4.383   0.000   6.114
  241        1.729   4.376   0.000   6.104
  242        1.730   4.387   0.000   6.117
  243        1.730   4.385   0.000   6.115
  244        1.729   4.373   0.000   6.102
  245        1.729   4.371   0.000   6.100
  246        1.729   4.374   0.000   6.103
  247        1.729   4.374   0.000   6.102
  248        1.728   4.370   0.000   6.099
  249        1.729   4.373   0.000   6.102
  250        1.729   4.384   0.000   6.113
  251        1.729   4.374   0.000   6.103
  252        1.730   4.384   0.000   6.113
  253        1.729   4.372   0.000   6.101
  254        1.729   4.384   0.000   6.113
  255        1.729   4.374   0.000   6.104
  256        1.729   4.374   0.000   6.103
--------------------------------------------------
tot        342.2291196.440 112.7421651.411
 


 magnetization (x)
 
# of ion       s       p       d       tot
------------------------------------------
    1       -0.000   0.000   0.000   0.000
    2        0.000   0.000   0.000   0.000
    3        0.000   0.000  -0.000  -0.000
    4        0.000  -0.000   0.000   0.000
    5       -0.000  -0.000   0.000  -0.000
    6        0.000  -0.000  -0.000  -0.000
    7       -0.000   0.000  -0.000  -0.000
    8       -0.000  -0.000   0.000  -0.000
    9       -0.000   0.000   0.000   0.000
   10        0.000   0.000   0.000   0.000
   11        0.000  -0.000   0.000   0.000
   12        0.000   0.000  -0.000  -0.000
   13        0.000   0.000  -0.000  -0.000
   14        0.000   0.000  -0.000  -0.000
   15        0.000  -0.000   0.000   0.000
   16       -0.000   0.000   0.000   0.000
   17       -0.000   0.000   0.000   0.000
   18        0.000  -0.000   0.000   0.000
   19       -0.000  -0.000   0.000   0.000
   20        0.000  -0.000  -0.000  -0.000
   21       -0.000   0.000   0.000   0.000
   22       -0.000  -0.000   0.000   0.000
   23        0.000  -0.000  -0.000  -0.000
   24       -0.000  -0.000  -0.000  -0.000
   25        0.000   0.000  -0.000  -0.000
   26        0.000   0.000   0.000   0.000
   27        0.000   0.000  -0.000  -0.000
   28       -0.000  -0.000   0.000   0.000
   29       -0.000   0.000  -0.000  -0.000
   30       -0.000   0.000  -0.000  -0.000
   31       -0.000  -0.000   0.000   0.000
   32        0.000  -0.000  -0.000  -0.000
   33        0.000  -0.000   0.000   0.000
   34        0.000   0.000   0.000   0.000
   35        0.000   0.000   0.000   0.000
   36       -0.000  -0.000   0.000   0.000
   37       -0.000   0.000  -0.000  -0.000
   38       -0.000  -0.000   0.000   0.000
   39        0.000   0.000  -0.000  -0.000
   40        0.000  -0.000   0.000   0.000
   41       -0.000  -0.000  -0.000  -0.000
   42       -0.000   0.000   0.000   0.000
   43        0.000  -0.000   0.000   0.000
   44        0.000  -0.000  -0.000  -0.000
   45        0.000   0.000   0.000   0.000
   46       -0.000  -0.000   0.000   0.000
   47       -0.000  -0.000   0.000   0.000
   48        0.000  -0.000   0.000   0.000
   49       -0.000   0.000   0.000   0.000
   50       -0.000  -0.000   0.000   0.000
   51       -0.000  -0.000   0.000   0.000
   52        0.000  -0.000   0.000   0.000
   53        0.000   0.000  -0.000  -0.000
   54       -0.000  -0.000   0.000   0.000
   55       -0.000   0.000   0.000   0.000
   56       -0.000   0.000  -0.000  -0.000
   57        0.000  -0.000  -0.000  -0.000
   58        0.000   0.000   0.000   0.000
   59       -0.000  -0.000  -0.000  -0.000
   60       -0.000   0.000   0.000   0.000
   61       -0.000   0.000   0.000   0.000
   62        0.000  -0.000  -0.000  -0.000
   63       -0.000   0.000  -0.000  -0.000
   64       -0.000  -0.000   0.000   0.000
   65        0.000  -0.000   0.000  -0.000
   66        0.000   0.000   0.000   0.000
   67        0.000   0.000   0.000   0.000
   68       -0.000   0.000   0.000   0.000
   69       -0.000  -0.000   0.000  -0.000
   70        0.000  -0.000   0.000  -0.000
   71       -0.000  -0.000   0.000  -0.000
   72       -0.000   0.000   0.000   0.000
   73        0.000  -0.000   0.000   0.000
   74        0.000   0.000   0.000   0.000
   75       -0.000  -0.000   0.000  -0.000
   76        0.000  -0.000   0.000  -0.000
   77       -0.000  -0.000   0.000  -0.000
   78       -0.000   0.000   0.000   0.000
   79       -0.000  -0.000   0.000  -0.000
   80        0.000  -0.000   0.000  -0.000
   81       -0.000  -0.000   0.000  -0.000
   82        0.000   0.000   0.000   0.000
   83       -0.000   0.000   0.000   0.000
   84        0.000   0.000   0.000   0.000
   85        0.000  -0.000   0.000  -0.000
   86       -0.000  -0.000   0.000  -0.000
   87       -0.000   0.000   0.000   0.000
   88        0.000  -0.000   0.000  -0.000
   89       -0.000  -0.000   0.000  -0.000
   90        0.000   0.000   0.000   0.000
   91       -0.000   0.000   0.000   0.000
   92        0.000   0.000   0.000   0.000
   93        0.000  -0.000   0.000  -0.000
   94        0.000   0.000   0.000   0.000
   95        0.000   0.000   0.000   0.000
   96        0.000  -0.000   0.000  -0.000
   97       -0.000  -0.000   0.000  -0.000
   98       -0.000  -0.000   0.000  -0.000
   99        0.000  -0.000   0.000  -0.000
  100        0.000   0.000   0.000   0.000
  101        0.000  -0.000   0.000  -0.000
  102        0.000   0.000   0.000   0.000
  103        0.000   0.000   0.000   0.000
  104        0.000  -0.000   0.000  -0.000
  105       -0.000   0.000   0.000   0.000
  106        0.000   0.000   0.000   0.000
  107        0.000  -0.000   0.000   0.000
  108        0.000  -0.000   0.000  -0.000
  109        0.000  -0.000   0.000  -0.000
  110       -0.000  -0.000   0.000  -0.000
  111        0.000   0.000   0.000   0.000
  112        0.000   0.000   0.000   0.000
  113       -0.000   0.000   0.000   0.000
  114       -0.000   0.000   0.000   0.000
  115        0.000   0.000   0.000   0.000
  116       -0.000  -0.000   0.000  -0.000
  117        0.000   0.000   0.000   0.000
  118        0.000  -0.000   0.000  -0.000
  119       -0.000   0.000   0.000   0.000
  120       -0.000  -0.000   0.000  -0.000
  121        0.000  -0.000   0.000  -0.000
  122        0.000  -0.000   0.000  -0.000
  123        0.000   0.000   0.000   0.000
  124       -0.000  -0.000   0.000  -0.000
  125        0.000   0.000   0.000   0.000
  126       -0.000  -0.000   0.000  -0.000
  127       -0.000   0.000   0.000   0.000
  128        0.000  -0.000   0.000  -0.000
  129        0.000  -0.000   0.000   0.000
  130        0.000  -0.000   0.000  -0.000
  131       -0.000  -0.000   0.000  -0.000
  132        0.000   0.000   0.000   0.000
  133       -0.000  -0.000   0.000  -0.000
  134        0.000  -0.000   0.000  -0.000
  135        0.000   0.000   0.000   0.000
  136        0.000  -0.000   0.000  -0.000
  137        0.000  -0.000   0.000   0.000
  138        0.000   0.000   0.000   0.000
  139       -0.000  -0.000   0.000  -0.000
  140       -0.000  -0.000   0.000  -0.000
  141        0.000   0.000   0.000   0.000
  142        0.000   0.000   0.000   0.000
  143        0.000   0.000   0.000   0.000
  144       -0.000   0.000   0.000   0.000
  145       -0.000  -0.000   0.000  -0.000
  146       -0.000  -0.000   0.000  -0.000
  147       -0.000  -0.000   0.000  -0.000
  148       -0.000  -0.000   0.000  -0.000
  149       -0.000  -0.000   0.000  -0.000
  150       -0.000   0.000   0.000  -0.000
  151       -0.000  -0.000   0.000  -0.000
  152       -0.000   0.000   0.000   0.000
  153        0.000  -0.000   0.000  -0.000
  154        0.000   0.000   0.000   0.000
  155        0.000  -0.000   0.000  -0.000
  156       -0.000   0.000   0.000  -0.000
  157        0.000  -0.000   0.000  -0.000
  158        0.000  -0.000   0.000  -0.000
  159        0.000   0.000   0.000   0.000
  160        0.000  -0.000   0.000  -0.000
  161        0.000   0.000   0.000   0.000
  162       -0.000   0.000   0.000   0.000
  163       -0.000  -0.000   0.000  -0.000
  164        0.000   0.000   0.000   0.000
  165        0.000   0.000   0.000   0.000
  166       -0.000  -0.000   0.000  -0.000
  167        0.000  -0.000   0.000  -0.000
  168        0.000  -0.000   0.000  -0.000
  169        0.000   0.000   0.000   0.000
  170       -0.000  -0.000   0.000  -0.000
  171        0.000  -0.000   0.000  -0.000
  172       -0.000   0.000   0.000  -0.000
  173       -0.000  -0.000   0.000  -0.000
  174       -0.000   0.000   0.000   0.000
  175       -0.000   0.000   0.000   0.000
  176       -0.000   0.000   0.000  -0.000
  177        0.000  -0.000   0.000  -0.000
  178       -0.000   0.000   0.000   0.000
  179        0.000   0.000   0.000   0.000
  180       -0.000  -0.000   0.000  -0.000
  181        0.000  -0.000   0.000   0.000
  182       -0.000   0.000   0.000   0.000
  183       -0.000  -0.000   0.000  -0.000
  184        0.000   0.000   0.000   0.000
  185       -0.000  -0.000   0.000  -0.000
  186        0.000   0.000   0.000   0.000
  187        0.000   0.000   0.000   0.000
  188       -0.000   0.000   0.000   0.000
  189        0.000  -0.000   0.000   0.000
  190        0.000   0.000   0.000   0.000
  191       -0.000   0.000   0.000   0.000
  192        0.000  -0.000   0.000   0.000
  193       -0.000   0.000   0.000   0.000
  194        0.000   0.000   0.000   0.000
  195       -0.000  -0.000   0.000  -0.000
  196        0.000   0.000   0.000   0.000
  197       -0.000  -0.000   0.000  -0.000
  198       -0.000  -0.000   0.000  -0.000
  199       -0.000   0.000   0.000   0.000
  200        0.000   0.000   0.000   0.000
  201        0.000   0.000   0.000   0.000
  202       -0.000   0.000   0.000  -0.000
  203       -0.000   0.000   0.000   0.000
  204        0.000  -0.000   0.000  -0.000
  205       -0.000   0.000   0.000   0.000
  206        0.000  -0.000   0.000  -0.000
  207       -0.000  -0.000   0.000  -0.000
  208       -0.000   0.000   0.000  -0.000
  209       -0.000  -0.000   0.000  -0.000
  210        0.000   0.000   0.000   0.000
  211        0.000  -0.000   0.000  -0.000
  212        0.000  -0.000   0.000   0.000
  213       -0.000   0.000   0.000   0.000
  214       -0.000   0.000   0.000  -0.000
  215        0.000  -0.000   0.000  -0.000
  216       -0.000   0.000   0.000   0.000
  217        0.000  -0.000   0.000  -0.000
  218        0.000   0.000   0.000   0.000
  219        0.000   0.000   0.000   0.000
  220       -0.000   0.000   0.000   0.000
  221        0.000   0.000   0.000   0.000
  222       -0.000  -0.000   0.000  -0.000
  223       -0.000  -0.000   0.000  -0.000
  224       -0.000  -0.000   0.000  -0.000
  225        0.000   0.000   0.000   0.000
  226        0.000  -0.000   0.000   0.000
  227        0.000  -0.000   0.000   0.000
  228        0.000   0.000   0.000   0.000
  229        0.000   0.000   0.000   0.000
  230       -0.000  -0.000   0.000  -0.000
  231       -0.000   0.000   0.000   0.000
  232        0.000   0.000   0.000   0.000
  233       -0.000   0.000   0.000   0.000
  234        0.000  -0.000   0.000  -0.000
  235        0.000   0.000   0.000   0.000
  236        0.000  -0.000   0.000   0.000
  237        0.000  -0.000   0.000  -0.000
  238       -0.000   0.000   0.000   0.000
  239        0.000  -0.000   0.000  -0.000
  240       -0.000  -0.000   0.000  -0.000
  241       -0.000  -0.000   0.000  -0.000
  242        0.000  -0.000   0.000  -0.000
  243       -0.000   0.000   0.000   0.000
  244       -0.000   0.000   0.000   0.000
  245       -0.000  -0.000   0.000  -0.000
  246        0.000  -0.000   0.000  -0.000
  247       -0.000   0.000   0.000   0.000
  248       -0.000  -0.000   0.000  -0.000
  249       -0.000   0.000   0.000   0.000
  250        0.000  -0.000   0.000  -0.000
  251       -0.000   0.000   0.000   0.000
  252       -0.000   0.000   0.000   0.000
  253        0.000   0.000   0.000   0.000
  254        0.000   0.000   0.000   0.000
  255        0.000  -0.000   0.000  -0.000
  256       -0.000  -0.000   0.000  -0.000
--------------------------------------------------
tot          0.000  -0.000   0.000   0.000
 

 total amount of memory used by VASP MPI-rank0   389184. kBytes
=======================================================================

   base      :      30000. kBytes
   nonlr-proj:      69299. kBytes
   fftplans  :      38736. kBytes
   grid      :      49123. kBytes
   one-center:        995. kBytes
   wavefun   :     201031. kBytes
 
  
  
 General timing and accounting informations for this job:
 ========================================================
  
                  Total CPU time used (sec):     1107.359
                            User time (sec):     1061.855
                          System time (sec):       45.504
                         Elapsed time (sec):     1172.667
  
                   Maximum memory used (kb):      702392.
                   Average memory used (kb):           0.
  
                          Minor page faults:        34608
                          Major page faults:            2
                 Voluntary context switches:       495637
