       N       E                     dE             d eps       ncg     rms          rms(c)
DAV:   1    -0.211695799455E+03   -0.21170E+03   -0.83508E-01  2560   0.581E+00    0.939E-02
DAV:   2    -0.211695950466E+03   -0.15101E-03   -0.46475E-05  2496   0.339E-02    0.516E-02
DAV:   3    -0.211696139639E+03   -0.18917E-03   -0.35743E-05  2496   0.369E-02    0.690E-03
DAV:   4    -0.211696142645E+03   -0.30059E-05   -0.14987E-06  1536   0.861E-03    0.247E-03
DAV:   5    -0.211696142705E+03   -0.59979E-07   -0.38799E-07  1280   0.453E-03
   1 F= -.21169614E+03 E0= -.21169614E+03  d E =-.211696E+03  mag=     0.0000
