       N       E                     dE             d eps       ncg     rms          rms(c)
DAV:   1    -0.212274964848E+03   -0.21227E+03   -0.58638E-03 20608   0.496E-01    0.291E-03
DAV:   2    -0.212274964814E+03    0.33244E-07   -0.86481E-07 14912   0.593E-03
   1 F= -.21227496E+03 E0= -.21227496E+03  d E =-.212275E+03  mag=    -0.0000
