LTO                                     
           1
     7.751067   -0.000008   -0.000001
    -0.000008    7.645251   -0.000002
    -0.000001   -0.000002    7.748609
   Ti   O    F 
   8   8  16
Direct configuration=     1
   0.00028270  0.98877866  0.98659726
   0.00028267  0.98877887  0.51340268
   0.98729426  0.51122591  0.00042116
   0.98729404  0.51122604  0.49957894
   0.49971732  0.98877880  0.01340266
   0.49971730  0.98877863  0.48659728
   0.51270599  0.51122601  0.99957892
   0.51270575  0.51122590  0.50042118
   0.75000005  0.49708588  0.99999999
   0.74999995  0.49708586  0.50000005
   0.00187056  0.74999169  0.00286946
   0.00187054  0.74999174  0.49713047
   0.49812940  0.74999168  0.99713041
   0.49812941  0.74999164  0.50286954
   0.99922974  0.00235493  0.75000003
   0.50077028  0.00235480  0.25000003
   0.25000003  0.00949872  0.99999999
   0.24999999  0.00949873  0.50000000
   0.25000007  0.49467714  0.00000004
   0.24999997  0.49467712  0.49999999
   0.74999997  0.01183410  0.00000001
   0.75000004  0.01183413  0.50000001
   0.00406097  0.24989130  0.00451032
   0.00406112  0.24989130  0.49548948
   0.49593884  0.24989128  0.99548958
   0.49593907  0.24989128  0.50451028
   0.99910553  0.00548071  0.25000005
   0.00825791  0.49046384  0.25000002
   0.00791950  0.48882941  0.75000003
   0.50089452  0.00548070  0.75000003
   0.49208052  0.48882946  0.25000005
   0.49174199  0.49046374  0.75000002
