 vasp.5.4.4.18Apr17-6-g9f103f2a35 (build Jul 16 2019 12:12:28) complex          
  
 executed on             LinuxIFC date 2020.01.06  10:24:19
 running on   96 total cores
 distrk:  each k-point on   96 cores,    1 groups
 distr:  one band on NCORES_PER_BAND=   8 cores,   12 groups


--------------------------------------------------------------------------------------------------------


 INCAR:
 POTCAR:    PAW_PBE Li_sv 10Sep2004               
 POTCAR:    PAW_PBE Ti_pv 07Sep2000               
 POTCAR:    PAW_PBE O 08Apr2002                   
 POTCAR:    PAW_PBE F 08Apr2002                   
 POTCAR:    PAW_PBE Li_sv 10Sep2004               
   VRHFIN =Li: 1s2s2p                                                           
   LEXCH  = PE                                                                  
   EATOM  =   202.7858 eV,   14.9043 Ry                                         
                                                                                
   TITEL  = PAW_PBE Li_sv 10Sep2004                                             
   LULTRA =        F    use ultrasoft PP ?                                      
   IUNSCR =        0    unscreen: 0-lin 1-nonlin 2-no                           
   RPACOR =    0.000    partial core radius                                     
   POMASS =    7.010; ZVAL   =    3.000    mass and valenz                      
   RCORE  =    1.700    outmost cutoff radius                                   
   RWIGS  =    2.050; RWIGS  =    1.085    wigner-seitz radius (au A)           
   ENMAX  =  499.034; ENMIN  =  374.276 eV                                      
   ICORE  =        2    local potential                                         
   LCOR   =        T    correct aug charges                                     
   LPAW   =        T    paw PP                                                  
   EAUG   =  628.945                                                            
   RMAX   =    1.732    core radius for proj-oper                               
   RAUG   =    1.300    factor for augmentation sphere                          
   RDEP   =    1.728    radius for radial grids                                 
   RDEPT  =    1.329    core radius for aug-charge                              
                                                                                
   Atomic configuration                                                         
    4 entries                                                                   
     n  l   j            E        occ.                                          
     1  0  0.50       -51.8549   2.0000                                         
     2  0  0.50        -2.8742   1.0000                                         
     2  1  0.50        -1.3606   0.0000                                         
     3  2  1.50        -1.3606   0.0000                                         
   Description                                                                  
     l       E           TYP  RCUT    TYP  RCUT                                 
     0    -51.8548813     23  1.400                                             
     0     -2.8742052     23  1.700                                             
     1     -1.3605826     23  1.400                                             
     2     -1.3605826     23  1.400                                             
  local pseudopotential read in
  atomic valenz-charges read in
  non local Contribution for L=           0  read in
    real space projection operators read in
  non local Contribution for L=           0  read in
    real space projection operators read in
  non local Contribution for L=           1  read in
    real space projection operators read in
    PAW grid and wavefunctions read in
 
   number of l-projection  operators is LMAX  =           3
   number of lm-projection operators is LMMAX =           5
 
 POTCAR:    PAW_PBE Ti_pv 07Sep2000               
   VRHFIN =Ti: d3 s1                                                            
   LEXCH  = PE                                                                  
   EATOM  =  1042.5995 eV,   76.6289 Ry                                         
                                                                                
   TITEL  = PAW_PBE Ti_pv 07Sep2000                                             
   LULTRA =        F    use ultrasoft PP ?                                      
   IUNSCR =        1    unscreen: 0-lin 1-nonlin 2-no                           
   RPACOR =    2.200    partial core radius                                     
   POMASS =   47.880; ZVAL   =   10.000    mass and valenz                      
   RCORE  =    2.500    outmost cutoff radius                                   
   RWIGS  =    2.500; RWIGS  =    1.323    wigner-seitz radius (au A)           
   ENMAX  =  222.335; ENMIN  =  166.751 eV                                      
   RCLOC  =    1.701    cutoff for local pot                                    
   LCOR   =        T    correct aug charges                                     
   LPAW   =        T    paw PP                                                  
   EAUG   =  482.848                                                            
   DEXC   =    0.000                                                            
   RMAX   =    2.564    core radius for proj-oper                               
   RAUG   =    1.300    factor for augmentation sphere                          
   RDEP   =    2.538    radius for radial grids                                 
   RDEPT  =    1.952    core radius for aug-charge                              
                                                                                
   Atomic configuration                                                         
    8 entries                                                                   
     n  l   j            E        occ.                                          
     1  0  0.50     -4865.3608   2.0000                                         
     2  0  0.50      -533.1368   2.0000                                         
     2  1  1.50      -440.5031   6.0000                                         
     3  0  0.50       -59.3186   2.0000                                         
     3  1  1.50       -35.7012   6.0000                                         
     3  2  2.50        -1.9157   3.0000                                         
     4  0  0.50        -3.7291   1.0000                                         
     4  3  2.50        -1.3606   0.0000                                         
   Description                                                                  
     l       E           TYP  RCUT    TYP  RCUT                                 
     1    -35.7012140     23  2.300                                             
     1     -1.3605826     23  2.300                                             
     2     -1.9156996     23  2.500                                             
     2     -0.4063033     23  2.500                                             
     0     -3.7290856     23  2.500                                             
     0     20.4087390     23  2.500                                             
  local pseudopotential read in
  partial core-charges read in
  partial kinetic energy density read in
  atomic valenz-charges read in
  non local Contribution for L=           1  read in
    real space projection operators read in
  non local Contribution for L=           1  read in
    real space projection operators read in
  non local Contribution for L=           2  read in
    real space projection operators read in
  non local Contribution for L=           2  read in
    real space projection operators read in
  non local Contribution for L=           0  read in
    real space projection operators read in
  non local Contribution for L=           0  read in
    real space projection operators read in
    PAW grid and wavefunctions read in
 
   number of l-projection  operators is LMAX  =           6
   number of lm-projection operators is LMMAX =          18
 
 POTCAR:    PAW_PBE O 08Apr2002                   
   VRHFIN =O: s2p4                                                              
   LEXCH  = PE                                                                  
   EATOM  =   432.3788 eV,   31.7789 Ry                                         
                                                                                
   TITEL  = PAW_PBE O 08Apr2002                                                 
   LULTRA =        F    use ultrasoft PP ?                                      
   IUNSCR =        1    unscreen: 0-lin 1-nonlin 2-no                           
   RPACOR =    1.200    partial core radius                                     
   POMASS =   16.000; ZVAL   =    6.000    mass and valenz                      
   RCORE  =    1.520    outmost cutoff radius                                   
   RWIGS  =    1.550; RWIGS  =    0.820    wigner-seitz radius (au A)           
   ENMAX  =  400.000; ENMIN  =  300.000 eV                                      
   ICORE  =        2    local potential                                         
   LCOR   =        T    correct aug charges                                     
   LPAW   =        T    paw PP                                                  
   EAUG   =  605.392                                                            
   DEXC   =    0.000                                                            
   RMAX   =    1.553    core radius for proj-oper                               
   RAUG   =    1.300    factor for augmentation sphere                          
   RDEP   =    1.550    radius for radial grids                                 
   RDEPT  =    1.329    core radius for aug-charge                              
                                                                                
   Atomic configuration                                                         
    4 entries                                                                   
     n  l   j            E        occ.                                          
     1  0  0.50      -514.6923   2.0000                                         
     2  0  0.50       -23.9615   2.0000                                         
     2  1  0.50        -9.0305   4.0000                                         
     3  2  1.50        -9.5241   0.0000                                         
   Description                                                                  
     l       E           TYP  RCUT    TYP  RCUT                                 
     0    -23.9615318     23  1.200                                             
     0     -9.5240782     23  1.200                                             
     1     -9.0304911     23  1.520                                             
     1      8.1634956     23  1.520                                             
     2     -9.5240782      7  1.500                                             
  local pseudopotential read in
  partial core-charges read in
  partial kinetic energy density read in
  kinetic energy density of atom read in
  atomic valenz-charges read in
  non local Contribution for L=           0  read in
    real space projection operators read in
  non local Contribution for L=           0  read in
    real space projection operators read in
  non local Contribution for L=           1  read in
    real space projection operators read in
  non local Contribution for L=           1  read in
    real space projection operators read in
    PAW grid and wavefunctions read in
 
   number of l-projection  operators is LMAX  =           4
   number of lm-projection operators is LMMAX =           8
 
 POTCAR:    PAW_PBE F 08Apr2002                   
   VRHFIN =F: s2p5                                                              
   LEXCH  = PE                                                                  
   EATOM  =   659.6475 eV,   48.4827 Ry                                         
                                                                                
   TITEL  = PAW_PBE F 08Apr2002                                                 
   LULTRA =        F    use ultrasoft PP ?                                      
   IUNSCR =        1    unscreen: 0-lin 1-nonlin 2-no                           
   RPACOR =    1.200    partial core radius                                     
   POMASS =   18.998; ZVAL   =    7.000    mass and valenz                      
   RCORE  =    1.520    outmost cutoff radius                                   
   RWIGS  =    1.500; RWIGS  =    0.794    wigner-seitz radius (au A)           
   ENMAX  =  400.000; ENMIN  =  300.000 eV                                      
   ICORE  =        2    local potential                                         
   LCOR   =        T    correct aug charges                                     
   LPAW   =        T    paw PP                                                  
   EAUG   =  613.614                                                            
   RMAX   =    1.555    core radius for proj-oper                               
   RAUG   =    1.300    factor for augmentation sphere                          
   RDEP   =    1.539    radius for radial grids                                 
   RDEPT  =    1.299    core radius for aug-charge                              
                                                                                
   Atomic configuration                                                         
    4 entries                                                                   
     n  l   j            E        occ.                                          
     1  0  0.50      -663.3661   2.0000                                         
     2  0  0.50       -29.8995   2.0000                                         
     2  1  0.50       -11.1114   5.0000                                         
     3  2  1.50       -10.8847   0.0000                                         
   Description                                                                  
     l       E           TYP  RCUT    TYP  RCUT                                 
     0    -29.8995018     23  1.200                                             
     0     -9.5240782     23  1.200                                             
     1    -11.1113914     23  1.520                                             
     1      1.3605826     23  1.520                                             
     2    -10.8846608      7  1.500                                             
  local pseudopotential read in
  partial core-charges read in
  partial kinetic energy density read in
  atomic valenz-charges read in
  non local Contribution for L=           0  read in
    real space projection operators read in
  non local Contribution for L=           0  read in
    real space projection operators read in
  non local Contribution for L=           1  read in
    real space projection operators read in
  non local Contribution for L=           1  read in
    real space projection operators read in
    PAW grid and wavefunctions read in
 
   number of l-projection  operators is LMAX  =           4
   number of lm-projection operators is LMMAX =           8
 
 Optimization of the real space projectors (new method)

 maximal supplied QI-value         = 22.11
 optimisation between [QCUT,QGAM] = [ 11.28, 22.77] = [ 35.61,145.23] Ry 
 Optimized for a Real-space Cutoff    1.31 Angstroem

   l    n(q)    QCUT    max X(q) W(low)/X(q) W(high)/X(q)  e(spline) 
   0      9    11.276    10.506    0.19E-04    0.17E-04    0.32E-07
   0      9    11.276     8.367    0.38E-04    0.40E-04    0.65E-07
   1      8    11.276     8.983    0.55E-04    0.98E-04    0.20E-06
 Optimization of the real space projectors (new method)

 maximal supplied QI-value         = 15.12
 optimisation between [QCUT,QGAM] = [ 11.34, 22.83] = [ 36.00,145.93] Ry 
 Optimized for a Real-space Cutoff    1.56 Angstroem

   l    n(q)    QCUT    max X(q) W(low)/X(q) W(high)/X(q)  e(spline) 
   1     10    11.338     4.216    0.27E-04    0.12E-04    0.66E-07
   1     10    11.338     5.422    0.81E-04    0.24E-04    0.19E-06
   2     10    11.338    72.084    0.64E-04    0.21E-03    0.51E-06
   2     10    11.338    65.965    0.63E-04    0.21E-03    0.50E-06
   0     11    11.338    41.531    0.33E-04    0.54E-04    0.13E-06
   0     11    11.338    16.290    0.26E-04    0.41E-04    0.11E-06
 Optimization of the real space projectors (new method)

 maximal supplied QI-value         = 24.76
 optimisation between [QCUT,QGAM] = [ 11.39, 22.77] = [ 36.31,145.25] Ry 
 Optimized for a Real-space Cutoff    1.20 Angstroem

   l    n(q)    QCUT    max X(q) W(low)/X(q) W(high)/X(q)  e(spline) 
   0      8    11.387    20.381    0.89E-04    0.31E-03    0.27E-06
   0      8    11.387    15.268    0.93E-04    0.32E-03    0.29E-06
   1      8    11.387     5.964    0.53E-04    0.28E-03    0.29E-06
   1      8    11.387     5.382    0.37E-04    0.22E-03    0.26E-06
 Optimization of the real space projectors (new method)

 maximal supplied QI-value         = 24.76
 optimisation between [QCUT,QGAM] = [ 11.39, 22.77] = [ 36.31,145.25] Ry 
 Optimized for a Real-space Cutoff    1.20 Angstroem

   l    n(q)    QCUT    max X(q) W(low)/X(q) W(high)/X(q)  e(spline) 
   0      8    11.387    14.049    0.69E-04    0.23E-03    0.18E-06
   0      8    11.387     8.945    0.88E-04    0.30E-03    0.26E-06
   1      8    11.387     7.086    0.62E-04    0.27E-03    0.27E-06
   1      8    11.387     6.747    0.46E-04    0.23E-03    0.25E-06

 ----------------------------------------------------------------------------- 
|                                                                             |
|  ADVICE TO THIS USER RUNNING 'VASP/VAMP'   (HEAR YOUR MASTER'S VOICE ...):  |
|                                                                             |
|      You enforced a specific xc-type in the INCAR file,                     |
|      a different type was found on the POTCAR file                          |
|          I HOPE YOU KNOW, WHAT YOU ARE  DOING                               |
|                                                                             |
 ----------------------------------------------------------------------------- 

  PAW_PBE Li_sv 10Sep2004               :
 energy of atom  1       EATOM= -202.7858
 kinetic energy error for atom=    0.0143 (will be added to EATOM!!)
  PAW_PBE Ti_pv 07Sep2000               :
 energy of atom  2       EATOM=-1042.5995
 kinetic energy error for atom=    0.0024 (will be added to EATOM!!)
  PAW_PBE O 08Apr2002                   :
 energy of atom  3       EATOM= -432.3788
 kinetic energy error for atom=    0.0224 (will be added to EATOM!!)
  PAW_PBE F 08Apr2002                   :
 energy of atom  4       EATOM= -659.6475
 kinetic energy error for atom=    0.0354 (will be added to EATOM!!)
 
 
 POSCAR: config 47                               
  positions in direct lattice
  velocities in cartesian coordinates
 exchange correlation table for  LEXCH =       14
   RHO(1)=    0.500       N(1)  =     2000
   RHO(2)=  100.500       N(2)  =     4000

 VTST: version 3.2, (02/03/18)

 CHAIN: initializing optimizer
 
 OPT: Using VASP QUASI-newton optimizer
 CHAIN: Read ICHAIN            0
 
 POSCAR: config 47                               
  positions in direct lattice
  velocities in cartesian coordinates
 


--------------------------------------------------------------------------------------------------------


 ion  position               nearest neighbor table
   1  0.630  0.823  0.628- 166 1.96 190 2.04  73 2.06  95 2.09  25 2.86
   2  0.996  0.995  0.994- 118 1.87  68 1.88 103 1.89 171 2.02 212 2.04 130 2.04
   3  0.998  0.992  0.494-  67 1.82 119 1.83 172 1.95 193 1.97 131 2.01 213 2.08
   4  0.006  0.496  0.997-  89 1.84 117 1.86 138 1.93 132 1.98 214 2.02 194 2.03
   5  0.994  0.504  0.507-  66 1.83 104 1.84 215 1.93 223 2.00 173 2.01 137 2.03
   6  0.494  0.994  0.999- 101 1.83 121 1.86 140 1.95 133 1.96 216 2.01 174 2.03
   7  0.502  0.006  0.500- 112 1.90 139 2.00 191 2.00 134 2.01 175 2.04 225 2.05
   8  0.504  0.496  0.996- 120 1.87  90 1.89  70 1.89 135 2.03 192 2.03 217 2.05
   9  0.492  0.498  0.496- 102 1.81  69 1.86 224 1.94 136 2.01 218 2.04 176 2.08
  10  0.007  0.003  0.256-  91 1.83  67 1.86 219 1.95 227 1.97 130 2.00 197 2.05
  11  0.002  0.008  0.757-  68 1.79 113 1.84 177 1.94 198 1.98 228 2.05 131 2.06
  12  0.994  0.493  0.251- 107 1.83 122 1.86 137 1.93 132 1.97 220 2.01 178 2.02
  13  0.993  0.500  0.742-  66 1.82 108 1.82 226 1.93 221 1.97 138 2.02 179 2.05
  14  0.506  0.009  0.250- 114 1.82  92 1.85 139 1.90 133 1.94 195 2.01 231 2.07
  15  0.492  0.005  0.752- 105 1.81 115 1.84 134 1.93 140 1.95 232 2.03 180 2.07
  16  0.493  0.496  0.257-  69 1.82 106 1.84 229 1.95 222 2.00 135 2.03 181 2.05
  17  0.501  0.503  0.758-  70 1.79 116 1.91 182 1.95 196 1.97 230 2.00 136 2.06
  18  0.995  0.258  0.002- 117 1.82 110 1.87 141 1.96 146 1.97 183 2.01 212 2.02
  19  0.998  0.249  0.491-  74 1.78 213 1.92 202 1.93 184 1.94 223 1.95 142 2.01
  20  0.998  0.758  0.006- 118 1.80  71 1.86 203 1.95 185 1.98 148 2.04 214 2.06
  21  0.997  0.758  0.506- 119 1.82  72 1.84 186 1.96 204 1.98 147 2.01 215 2.03
  22  0.495  0.258  0.001- 120 1.81 109 1.84 150 1.96 143 1.97 187 2.04 216 2.07
  23  0.509  0.243  0.498- 112 1.79  93 1.85 144 1.94 149 1.96 199 2.03 224 2.05
  24  0.508  0.756  0.999- 121 1.82  94 1.84 152 1.95 145 1.98 217 2.01 200 2.02
  25  0.507  0.753  0.508-  73 1.82  95 1.86 225 1.94 218 1.95 201 2.00 151 2.04   1 2.86
  26  1.000  0.258  0.255- 122 1.80  74 1.88 209 1.95 188 1.96 141 1.99 219 2.03
  27  0.006  0.243  0.748- 113 1.81  96 1.83 142 1.96 146 1.97 226 2.05 210 2.05
  28  0.007  0.748  0.243-  71 1.81  97 1.84 220 1.95 227 1.97 147 2.06 211 2.07
  29  0.994  0.751  0.743-  72 1.83 111 1.84 228 1.93 221 1.97 189 2.00 148 2.02
  30  0.508  0.242  0.252- 114 1.82  98 1.83 143 1.93 149 1.95 229 2.02 205 2.03
  31  0.507  0.242  0.749- 115 1.84  99 1.84 150 1.94 144 1.95 206 2.01 230 2.04
  32  0.507  0.751  0.251- 100 1.80 231 1.92 151 1.93 222 1.93 145 1.93 207 1.99
  33  0.500  0.741  0.745- 116 1.78  73 1.88 208 1.93 190 1.98 152 1.99 232 2.06
  34  0.257  0.998  0.006-  75 1.84 101 1.86 246 1.94 233 1.97 171 2.02 157 2.04
  35  0.252  0.995  0.506- 128 1.85  76 1.85 191 1.92 172 1.97 156 2.03 234 2.03
  36  0.244  0.508  0.997- 123 1.83  89 1.84 159 1.94 153 1.97 192 2.02 245 2.03
  37  0.255  0.495  0.507-  77 1.86 102 1.88 127 1.88 158 2.04 173 2.05 235 2.05
  38  0.757  0.000  0.994- 103 1.79  81 1.87 236 1.96 249 1.97 154 2.03 174 2.05
  39  0.748  0.009  0.494- 124 1.82  80 1.84 175 1.95 193 1.96 155 2.02 250 2.09
  40  0.742  0.501  0.005-  90 1.80  78 1.87 247 1.96 237 1.96 161 2.03 194 2.05
  41  0.756  0.498  0.505-  79 1.84 104 1.85 248 1.95 176 2.01 238 2.02 160 2.02
  42  0.245  0.003  0.243-  75 1.84  91 1.85 239 1.94 252 1.97 156 2.03 195 2.05
  43  0.258  0.998  0.744-  76 1.83 105 1.84 253 1.93 240 1.97 177 2.02 157 2.03
  44  0.255  0.492  0.252- 129 1.83 106 1.84 158 1.93 153 1.97 241 2.04 178 2.04
  45  0.246  0.506  0.741-  77 1.79 125 1.84 179 1.95 196 1.98 251 2.02 159 2.06
  46  0.744  0.002  0.256-  92 1.84  80 1.85 242 1.96 256 1.96 154 2.01 197 2.01
  47  0.748  0.007  0.756-  81 1.82 126 1.82 180 1.95 198 1.96 257 2.06 155 2.06
  48  0.756  0.498  0.242-  78 1.81 107 1.85 254 1.96 243 1.96 181 2.02 160 2.06
  49  0.757  0.498  0.742- 108 1.83  79 1.83 255 1.93 244 2.00 182 2.03 161 2.04
  50  0.257  0.252  0.006- 109 1.83  82 1.86 245 1.94 233 1.97 168 2.02 183 2.05
  51  0.254  0.258  0.505- 127 1.81  83 1.85 199 1.95 184 2.02 167 2.03 234 2.06
  52  0.252  0.742  0.994- 123 1.81  86 1.84 200 1.95 185 1.97 162 2.03 246 2.03
  53  0.253  0.757  0.494-  85 1.83 128 1.85 201 1.98 186 1.99 235 2.02 163 2.03
  54  0.757  0.252  0.008- 110 1.81  84 1.85 236 1.94 247 1.95 187 2.03 170 2.04
  55  0.740  0.244  0.497-  93 1.80 124 1.84 169 1.94 164 1.97 248 2.04 202 2.08
  56  0.742  0.749  0.995-  94 1.81  88 1.84 237 1.94 249 1.94 203 2.02 165 2.02
  57  0.744  0.753  0.490-  87 1.81  95 1.86 250 1.94 238 1.96 204 2.00 166 2.09
  58  0.251  0.258  0.243- 129 1.82  82 1.83 205 1.96 188 2.00 167 2.03 239 2.04
  59  0.244  0.252  0.744-  83 1.83  96 1.85 251 1.94 240 1.97 168 2.04 206 2.05
  60  0.244  0.748  0.257-  97 1.83  85 1.84 241 1.94 252 1.97 162 2.03 207 2.07
  61  0.247  0.742  0.757- 125 1.81  86 1.83 189 1.93 208 1.99 253 2.04 163 2.04
  62  0.742  0.251  0.243-  84 1.80  98 1.82 254 1.94 242 1.95 209 2.05 169 2.06
  63  0.744  0.243  0.751- 126 1.82  99 1.83 170 1.94 164 1.99 210 2.02 255 2.05
  64  0.745  0.750  0.254-  87 1.84 100 1.88 243 1.93 256 1.94 211 1.98 165 1.99
  65  0.760  0.749  0.759- 111 1.80  88 1.81 257 1.94 244 1.95 190 2.07 166 2.10
  66  0.010  0.503  0.625-  13 1.82   5 1.83
  67  0.998  0.005  0.376-   3 1.82  10 1.86
  68  0.003  0.002  0.873-  11 1.79   2 1.88
  69  0.498  0.497  0.375-  16 1.82   9 1.86
  70  0.493  0.502  0.874-  17 1.79   8 1.89
  71  0.999  0.745  0.126-  28 1.81  20 1.86
  72  0.003  0.746  0.624-  29 1.83  21 1.84
  73  0.510  0.765  0.625-  25 1.82  33 1.88   1 2.06
  74  0.992  0.248  0.376-  19 1.78  26 1.88
  75  0.257  0.003  0.125-  42 1.84  34 1.84
  76  0.256  0.004  0.626-  43 1.83  35 1.85
  77  0.238  0.496  0.626-  45 1.79  37 1.86
  78  0.748  0.490  0.125-  48 1.81  40 1.87
  79  0.745  0.492  0.624-  49 1.83  41 1.84
  80  0.746  0.002  0.375-  39 1.84  46 1.85
  81  0.743  0.001  0.874-  47 1.82  38 1.87
  82  0.243  0.250  0.126-  58 1.83  50 1.86
  83  0.250  0.250  0.625-  59 1.83  51 1.85
  84  0.740  0.261  0.126-  62 1.80  54 1.85
  85  0.256  0.746  0.375-  53 1.83  60 1.84
  86  0.253  0.752  0.875-  61 1.83  52 1.84
  87  0.750  0.748  0.373-  57 1.81  64 1.84
  88  0.748  0.748  0.876-  65 1.81  56 1.84
  89  0.125  0.507  0.993-   4 1.84  36 1.84
  90  0.626  0.510  0.997-  40 1.80   8 1.89
  91  0.125  0.006  0.248-  10 1.83  42 1.85
  92  0.625  0.005  0.243-  46 1.84  14 1.85
  93  0.626  0.268  0.491-  55 1.80  23 1.85
  94  0.625  0.738  0.005-  56 1.81  24 1.84
  95  0.626  0.774  0.502-  25 1.86  57 1.86   1 2.09
  96  0.124  0.254  0.752-  27 1.83  59 1.85
  97  0.125  0.748  0.254-  60 1.83  28 1.84
  98  0.626  0.241  0.263-  62 1.82  30 1.83
  99  0.626  0.255  0.750-  63 1.83  31 1.84
 100  0.623  0.751  0.248-  32 1.80  64 1.88
 101  0.376  0.996  0.989-   6 1.83  34 1.86
 102  0.376  0.513  0.506-   9 1.81  37 1.88
 103  0.873  0.998  0.997-  38 1.79   2 1.89
 104  0.875  0.513  0.502-   5 1.84  41 1.85
 105  0.375  0.999  0.762-  15 1.81  43 1.84
 106  0.374  0.493  0.247-  44 1.84  16 1.84
 107  0.875  0.494  0.250-  12 1.83  48 1.85
 108  0.875  0.511  0.744-  13 1.82  49 1.83
 109  0.376  0.252  0.006-  50 1.83  22 1.84
 110  0.874  0.252  0.008-  54 1.81  18 1.87
 111  0.875  0.740  0.748-  65 1.80  29 1.84
 112  0.520  0.128  0.497-  23 1.79   7 1.90
 113  0.998  0.126  0.745-  27 1.81  11 1.84
 114  0.491  0.125  0.259-  30 1.82  14 1.82
 115  0.504  0.123  0.743-  31 1.84  15 1.84
 116  0.504  0.626  0.744-  33 1.78  17 1.91
 117  0.004  0.376  0.005-  18 1.82   4 1.86
 118  0.005  0.875  0.002-  20 1.80   2 1.87
 119  0.984  0.875  0.500-  21 1.82   3 1.83
 120  0.506  0.375  0.004-  22 1.81   8 1.87
 121  0.508  0.874  1.000-  24 1.82   6 1.86
 122  0.010  0.374  0.247-  26 1.80  12 1.86
 123  0.259  0.625  0.003-  52 1.81  36 1.83
 124  0.732  0.125  0.506-  39 1.82  55 1.84
 125  0.245  0.625  0.750-  61 1.81  45 1.84
 126  0.748  0.125  0.742-  47 1.82  63 1.82
 127  0.260  0.374  0.494-  51 1.81  37 1.88
 128  0.262  0.876  0.500-  53 1.85  35 1.85
 129  0.239  0.375  0.257-  58 1.82  44 1.83
 130  0.997  0.003  0.127-  10 2.00   2 2.04
 131  1.000  0.998  0.624-   3 2.01  11 2.06
 132  0.002  0.510  0.125-  12 1.97   4 1.98
 133  0.490  0.003  0.126-  14 1.94   6 1.96
 134  0.493  0.984  0.628-  15 1.93   7 2.01
 135  0.504  0.506  0.127-   8 2.03  16 2.03
 136  0.510  0.498  0.625-   9 2.01  17 2.06
 137  0.001  0.496  0.376-  12 1.93   5 2.03
 138  0.993  0.497  0.873-   4 1.93  13 2.02
 139  0.510  0.989  0.372-  14 1.90   7 2.00
 140  0.519  0.004  0.875-  15 1.95   6 1.95
 141  0.010  0.245  0.127-  18 1.96  26 1.99
 142  0.002  0.258  0.622-  27 1.96  19 2.01
 143  0.512  0.242  0.126-  30 1.93  22 1.97
 144  0.499  0.254  0.623-  23 1.94  31 1.95
 145  0.495  0.747  0.126-  32 1.93  24 1.98
 146  0.993  0.252  0.874-  18 1.97  27 1.97
 147  0.992  0.751  0.376-  21 2.01  28 2.06
 148  1.000  0.751  0.874-  29 2.02  20 2.04
 149  0.488  0.262  0.375-  30 1.95  23 1.96
 150  0.497  0.248  0.874-  31 1.94  22 1.96
 151  0.497  0.750  0.376-  32 1.93  25 2.04
 152  0.500  0.746  0.874-  24 1.95  33 1.99
 153  0.243  0.494  0.125-  44 1.97  36 1.97
 154  0.754  0.001  0.126-  46 2.01  38 2.03
 155  0.752  0.991  0.624-  39 2.02  47 2.06
 156  0.247  0.001  0.375-  42 2.03  35 2.03
 157  0.240  0.994  0.875-  43 2.03  34 2.04
 158  0.250  0.512  0.375-  44 1.93  37 2.04
 159  0.261  0.499  0.874-  36 1.94  45 2.06
 160  0.749  0.510  0.375-  41 2.02  48 2.06
 161  0.754  0.510  0.874-  40 2.03  49 2.04
 162  0.252  0.755  0.126-  60 2.03  52 2.03
 163  0.246  0.751  0.625-  53 2.03  61 2.04
 164  0.750  0.262  0.623-  55 1.97  63 1.99
 165  0.754  0.750  0.126-  64 1.99  56 2.02
 166  0.740  0.759  0.625-   1 1.96  57 2.09  65 2.10
 167  0.255  0.244  0.374-  58 2.03  51 2.03
 168  0.254  0.251  0.875-  50 2.02  59 2.04
 169  0.764  0.242  0.374-  55 1.94  62 2.06
 170  0.755  0.243  0.876-  63 1.94  54 2.04
 171  0.126  0.005  0.005-  34 2.02   2 2.02
 172  0.124  0.989  0.502-   3 1.95  35 1.97
 173  0.123  0.492  0.491-   5 2.01  37 2.05
 174  0.625  0.005  0.011-   6 2.03  38 2.05
 175  0.629  0.970  0.511-  39 1.95   7 2.04
 176  0.626  0.488  0.496-  41 2.01   9 2.08
 177  0.127  0.998  0.745-  11 1.94  43 2.02
 178  0.124  0.511  0.251-  12 2.02  44 2.04
 179  0.123  0.491  0.764-  45 1.95  13 2.05
 180  0.624  0.988  0.737-  47 1.95  15 2.07
 181  0.625  0.503  0.252-  48 2.02  16 2.05
 182  0.627  0.492  0.757-  17 1.95  49 2.03
 183  0.125  0.247  0.992-  18 2.01  50 2.05
 184  0.123  0.260  0.495-  19 1.94  51 2.02
 185  0.125  0.741  1.000-  52 1.97  20 1.98
 186  0.124  0.762  0.495-  21 1.96  53 1.99
 187  0.626  0.246  0.992-  54 2.03  22 2.04
 188  0.124  0.235  0.259-  26 1.96  58 2.00
 189  0.123  0.757  0.754-  61 1.93  29 2.00
 190  0.627  0.762  0.746-  33 1.98   1 2.04  65 2.07
 191  0.373  0.020  0.492-  35 1.92   7 2.00
 192  0.373  0.492  0.009-  36 2.02   8 2.03
 193  0.874  0.019  0.504-  39 1.96   3 1.97
 194  0.875  0.495  0.001-   4 2.03  40 2.05
 195  0.377  0.993  0.258-  14 2.01  42 2.05
 196  0.375  0.502  0.739-  17 1.97  45 1.98
 197  0.874  0.996  0.250-  46 2.01  10 2.05
 198  0.874  0.996  0.747-  47 1.96  11 1.98
 199  0.378  0.235  0.501-  51 1.95  23 2.03
 200  0.377  0.761  0.001-  52 1.95  24 2.02
 201  0.379  0.735  0.507-  53 1.98  25 2.00
 202  0.874  0.237  0.508-  19 1.93  55 2.08
 203  0.872  0.759  0.999-  20 1.95  56 2.02
 204  0.872  0.733  0.506-  21 1.98  57 2.00
 205  0.378  0.261  0.243-  58 1.96  30 2.03
 206  0.376  0.247  0.750-  31 2.01  59 2.05
 207  0.378  0.751  0.249-  32 1.99  60 2.07
 208  0.375  0.752  0.745-  33 1.93  61 1.99
 209  0.874  0.260  0.242-  26 1.95  62 2.05
 210  0.874  0.252  0.745-  63 2.02  27 2.05
 211  0.873  0.751  0.250-  64 1.98  28 2.07
 212  1.000  0.127  0.001-  18 2.02   2 2.04
 213  0.011  0.126  0.508-  19 1.92   3 2.08
 214  0.990  0.626  0.994-   4 2.02  20 2.06
 215  0.012  0.627  0.492-   5 1.93  21 2.03
 216  0.501  0.124  0.999-   6 2.01  22 2.07
 217  0.487  0.627  0.001-  24 2.01   8 2.05
 218  0.517  0.628  0.503-  25 1.95   9 2.04
 219  0.988  0.128  0.247-  10 1.95  26 2.03
 220  0.995  0.623  0.258-  28 1.95  12 2.01
 221  0.013  0.625  0.756-  13 1.97  29 1.97
 222  0.498  0.626  0.253-  32 1.93  16 2.00
 223  0.989  0.375  0.500-  19 1.95   5 2.00
 224  0.485  0.373  0.504-   9 1.94  23 2.05
 225  0.479  0.875  0.493-  25 1.94   7 2.05
 226  0.993  0.375  0.750-  13 1.93  27 2.05
 227  0.999  0.876  0.251-  10 1.97  28 1.97
 228  0.997  0.875  0.747-  29 1.93  11 2.05
 229  0.508  0.372  0.242-  16 1.95  30 2.02
 230  0.495  0.374  0.748-  17 2.00  31 2.04
 231  0.500  0.875  0.245-  32 1.92  14 2.07
 232  0.500  0.874  0.762-  15 2.03  33 2.06
 233  0.250  0.125  0.994-  34 1.97  50 1.97
 234  0.236  0.125  0.498-  35 2.03  51 2.06
 235  0.238  0.627  0.505-  53 2.02  37 2.05
 236  0.748  0.126  0.005-  54 1.94  38 1.96
 237  0.765  0.625  0.007-  56 1.94  40 1.96
 238  0.734  0.627  0.506-  57 1.96  41 2.02
 239  0.262  0.127  0.252-  42 1.94  58 2.04
 240  0.249  0.125  0.758-  43 1.97  59 1.97
 241  0.255  0.624  0.241-  60 1.94  44 2.04
 242  0.763  0.127  0.245-  62 1.95  46 1.96
 243  0.750  0.625  0.243-  64 1.93  48 1.96
 244  0.735  0.626  0.743-  65 1.95  49 2.00
 245  0.245  0.376  0.997-  50 1.94  36 2.03
 246  0.241  0.874  0.003-  34 1.94  52 2.03
 247  0.744  0.375  0.985-  54 1.95  40 1.96
 248  0.767  0.373  0.489-  41 1.95  55 2.04
 249  0.741  0.874  0.005-  56 1.94  38 1.97
 250  0.772  0.875  0.499-  57 1.94  39 2.09
 251  0.256  0.376  0.756-  59 1.94  45 2.02
 252  0.251  0.875  0.251-  42 1.97  60 1.97
 253  0.249  0.873  0.746-  43 1.93  61 2.04
 254  0.743  0.374  0.267-  62 1.94  48 1.96
 255  0.757  0.374  0.760-  49 1.93  63 2.05
 256  0.750  0.875  0.246-  64 1.94  46 1.96
 257  0.752  0.874  0.747-  65 1.94  47 2.06
 

IMPORTANT INFORMATION: All symmetrisations will be switched off!
NOSYMM: (Re-)initialisation of all symmetry stuff for point group C_1.

 
 
 KPOINTS: Title                                   

Automatic generation of k-mesh.
Space group operators:
 irot       det(A)        alpha          n_x          n_y          n_z        tau_x        tau_y        tau_z
    1     1.000000     0.000001     1.000000     0.000000     0.000000     0.000000     0.000000     0.000000
 
 Subroutine IBZKPT returns following result:
 ===========================================
 
 Found      4 irreducible k-points:
 
 Following reciprocal coordinates:
            Coordinates               Weight
  0.250000  0.250000  0.250000      2.000000
 -0.250000  0.250000  0.250000      2.000000
  0.250000 -0.250000  0.250000      2.000000
 -0.250000 -0.250000  0.250000      2.000000
 
 Following cartesian coordinates:
            Coordinates               Weight
  0.016206  0.016206  0.016206      2.000000
 -0.016206  0.016206  0.016206      2.000000
  0.016206 -0.016206  0.016206      2.000000
 -0.016206 -0.016206  0.016206      2.000000
 


--------------------------------------------------------------------------------------------------------




 Dimension of arrays:
   k-points           NKPTS =      4   k-points in BZ     NKDIM =      4   number of bands    NBANDS=   1164
   number of dos      NEDOS =   3001   number of ions     NIONS =    257
   non local maximal  LDIM  =      6   non local SUM 2l+1 LMDIM =     18
   total plane-waves  NPLWV = ******
   max r-space proj   IRMAX =   7595   max aug-charges    IRDMAX= 146383
   dimension x,y,z NGX =   120 NGY =  120 NGZ =  120
   dimension x,y,z NGXF=   240 NGYF=  240 NGZF=  240
   support grid    NGXF=   480 NGYF=  480 NGZF=  480
   ions per type =               1  64  64 128
   NGX,Y,Z   is equivalent  to a cutoff of  12.93, 12.93, 12.93 a.u.
   NGXF,Y,Z  is equivalent  to a cutoff of  25.86, 25.86, 25.86 a.u.

 SYSTEM =  LTO                                     
 POSCAR =  config 47                               

 Startparameter for this run:
   NWRITE =      2    write-flag & timer
   PREC   = accura    normal or accurate (medium, high low for compatibility)
   ISTART =      1    job   : 0-new  1-cont  2-samecut
   ICHARG =      0    charge: 1-file 2-atom 10-const
   ISPIN  =      2    spin polarized calculation?
   LNONCOLLINEAR =      F non collinear calculations
   LSORBIT =      F    spin-orbit coupling
   INIWAV =      1    electr: 0-lowe 1-rand  2-diag
   LASPH  =      T    aspherical Exc in radial PAW
   METAGGA=      F    non-selfconsistent MetaGGA calc.

 Electronic Relaxation 1
   ENCUT  =  500.0 eV  36.75 Ry    6.06 a.u.  28.13 28.13 28.13*2*pi/ulx,y,z
   ENINI  =  500.0     initial cutoff
   ENAUG  =  628.9 eV  augmentation charge cutoff
   NELM   =     60;   NELMIN=  2; NELMDL=  0     # of ELM steps 
   EDIFF  = 0.1E-05   stopping-criterion for ELM
   LREAL  =      T    real-space projection
   NLSPLINE    = F    spline interpolate recip. space projectors
   LCOMPAT=      F    compatible to vasp.4.4
   GGA_COMPAT  = T    GGA compatible to vasp.4.4-vasp.4.6
   LMAXPAW     = -100 max onsite density
   LMAXMIX     =    4 max onsite mixed and CHGCAR
   VOSKOWN=      0    Vosko Wilk Nusair interpolation
   ROPT   =   -0.00010  -0.00010  -0.00010  -0.00010
 Ionic relaxation
   EDIFFG = -.5E-01   stopping-criterion for IOM
   NSW    =    100    number of steps for IOM
   NBLOCK =      1;   KBLOCK =    100    inner block; outer block 
   IBRION =      1    ionic relax: 0-MD 1-quasi-New 2-CG
   NFREE  =      0    steps in history (QN), initial steepest desc. (CG)
   ISIF   =      2    stress and relaxation
   IWAVPR =     11    prediction:  0-non 1-charg 2-wave 3-comb
   ISYM   =      0    0-nonsym 1-usesym 2-fastsym
   LCORR  =      T    Harris-Foulkes like correction to forces

   POTIM  = 0.5000    time-step for ionic-motion
   TEIN   =    0.0    initial temperature
   TEBEG  =    0.0;   TEEND  =   0.0 temperature during run
   SMASS  =  -3.00    Nose mass-parameter (am)
   estimated Nose-frequenzy (Omega)   =  0.10E-29 period in steps =****** mass=  -0.544E-26a.u.
   SCALEE = 1.0000    scale energy and forces
   NPACO  =    256;   APACO  = 16.0  distance and # of slots for P.C.
   PSTRESS=    0.0 pullay stress

  Mass of Ions in am
   POMASS =   7.01 47.88 16.00 19.00
  Ionic Valenz
   ZVAL   =   3.00 10.00  6.00  7.00
  Atomic Wigner-Seitz radii
   RWIGS  =  -1.00 -1.00 -1.00 -1.00
  virtual crystal weights 
   VCA    =   1.00  1.00  1.00  1.00
   NELECT =    1923.0000    total number of electrons
   NUPDOWN=       1.0000    fix difference up-down

 DOS related values:
   EMIN   =  10.00;   EMAX   =-10.00  energy-range for DOS
   EFERMI =   0.00
   ISMEAR =     0;   SIGMA  =   0.01  broadening in eV -4-tet -1-fermi 0-gaus

 Electronic relaxation 2 (details)
   IALGO  =     38    algorithm
   LDIAG  =      T    sub-space diagonalisation (order eigenvalues)
   LSUBROT=      F    optimize rotation matrix (better conditioning)
   TURBO    =      0    0=normal 1=particle mesh
   IRESTART =      0    0=no restart 2=restart with 2 vectors
   NREBOOT  =      0    no. of reboots
   NMIN     =      0    reboot dimension
   EREF     =   0.00    reference energy to select bands
   IMIX   =      4    mixing-type and parameters
     AMIX     =   0.40;   BMIX     =  1.00
     AMIX_MAG =   1.60;   BMIX_MAG =  1.00
     AMIN     =   0.10
     WC   =   100.;   INIMIX=   1;  MIXPRE=   1;  MAXMIX= -45

 Intra band minimization:
   WEIMIN = 0.0010     energy-eigenvalue tresh-hold
   EBREAK =  0.21E-09  absolut break condition
   DEPER  =   0.30     relativ break condition  

   TIME   =   0.40     timestep for ELM

  volume/ion in A,a.u.               =      14.28        96.39
  Fermi-wavevector in a.u.,A,eV,Ry     =   1.319690  2.493853 23.695660  1.741582
  Thomas-Fermi vector in A             =   2.449570
 
 Write flags
   LWAVE        =      T    write WAVECAR
   LDOWNSAMPLE  =      F    k-point downsampling of WAVECAR
   LCHARG       =      T    write CHGCAR
   LVTOT        =      F    write LOCPOT, total local potential
   LVHAR        =      F    write LOCPOT, Hartree potential only
   LELF         =      F    write electronic localiz. function (ELF)
   LORBIT       =     11    0 simple, 1 ext, 2 COOP (PROOUT), +10 PAW based schemes


 Dipole corrections
   LMONO  =      F    monopole corrections only (constant potential shift)
   LDIPOL =      F    correct potential (dipole corrections)
   IDIPOL =      0    1-x, 2-y, 3-z, 4-all directions 
   EPSILON=  1.0000000 bulk dielectric constant

 LDA+U is selected, type is set to LDAUTYPE =  2
   angular momentum for each species LDAUL =    -1    2   -1   -1
   U (eV)           for each species LDAUU =   0.0  4.2  0.0  0.0
   J (eV)           for each species LDAUJ =   0.0  0.0  0.0  0.0
 Exchange correlation treatment:
   GGA     =    PS    GGA type
   LEXCH   =    14    internal setting for exchange type
   VOSKOWN=      0    Vosko Wilk Nusair interpolation
   LHFCALC =     F    Hartree Fock is set to
   LHFONE  =     F    Hartree Fock one center treatment
   AEXX    =    0.0000 exact exchange contribution

 Linear response parameters
   LEPSILON=     F    determine dielectric tensor
   LRPA    =     F    only Hartree local field effects (RPA)
   LNABLA  =     F    use nabla operator in PAW spheres
   LVEL    =     F    velocity operator in full k-point grid
   LINTERFAST=   F  fast interpolation
   KINTER  =     0    interpolate to denser k-point grid
   CSHIFT  =0.1000    complex shift for real part using Kramers Kronig
   OMEGAMAX=  -1.0    maximum frequency
   DEG_THRESHOLD= 0.2000000E-02 threshold for treating states as degnerate
   RTIME   =   -0.100 relaxation time in fs
  (WPLASMAI=    0.000 imaginary part of plasma frequency in eV, 0.658/RTIME)
   DFIELD  = 0.0000000 0.0000000 0.0000000 field for delta impulse in time
 
 Orbital magnetization related:
   ORBITALMAG=     F  switch on orbital magnetization
   LCHIMAG   =     F  perturbation theory with respect to B field
   DQ        =  0.001000  dq finite difference perturbation B field
   LLRAUG    =     F  two centre corrections for induced B field



--------------------------------------------------------------------------------------------------------


 quasi-Newton-method for relaxation of ions
 charge density and potential will be updated during run
 spin polarized calculation
 Variant of blocked Davidson
 Davidson routine will perform the subspace rotation
 perform sub-space diagonalisation
    after iterative eigenvector-optimisation
 modified Broyden-mixing scheme, WC =      100.0
 initial mixing is a Kerker type mixing with AMIX =  0.4000 and BMIX =      1.0000
 Hartree-type preconditioning will be used
 using additional bands          202
 real space projection scheme for non local part
 use partial core corrections
 calculate Harris-corrections to forces 
   (improved forces if not selfconsistent)
 use gradient corrections 
 use of overlap-Matrix (Vanderbilt PP)
 Gauss-broadening in eV      SIGMA  =   0.01


--------------------------------------------------------------------------------------------------------


  energy-cutoff  :      500.00
  volume of cell :     3671.03
      direct lattice vectors                 reciprocal lattice vectors
    15.426331000  0.000000000  0.000000000     0.064824228  0.000000000  0.000000000
     0.000000000 15.426331000  0.000000000     0.000000000  0.064824228  0.000000000
     0.000000000  0.000000000 15.426331000     0.000000000  0.000000000  0.064824228

  length of vectors
    15.426331000 15.426331000 15.426331000     0.064824228  0.064824228  0.064824228


 
 old parameters found on file WAVECAR:
  energy-cutoff  :      500.00
  volume of cell :     3671.03
      direct lattice vectors                 reciprocal lattice vectors
    15.426331000  0.000000000  0.000000000     0.064824228  0.000000000  0.000000000
     0.000000000 15.426331000  0.000000000     0.000000000  0.064824228  0.000000000
     0.000000000  0.000000000 15.426331000     0.000000000  0.000000000  0.064824228

  length of vectors

 
 k-points in units of 2pi/SCALE and weight: Title                                   
   0.01620606  0.01620606  0.01620606       0.250
  -0.01620606  0.01620606  0.01620606       0.250
   0.01620606 -0.01620606  0.01620606       0.250
  -0.01620606 -0.01620606  0.01620606       0.250
 
 k-points in reciprocal lattice and weights: Title                                   
   0.25000000  0.25000000  0.25000000       0.250
  -0.25000000  0.25000000  0.25000000       0.250
   0.25000000 -0.25000000  0.25000000       0.250
  -0.25000000 -0.25000000  0.25000000       0.250
 
 position of ions in fractional coordinates (direct lattice) 
   0.63000741  0.82280842  0.62845132
   0.99563043  0.99526889  0.99440283
   0.99831685  0.99220887  0.49357343
   0.00605301  0.49579443  0.99741028
   0.99413257  0.50424975  0.50723559
   0.49442183  0.99427085  0.99892360
   0.50183861  0.00597700  0.50020381
   0.50431164  0.49598782  0.99608788
   0.49165041  0.49830805  0.49589101
   0.00677342  0.00322605  0.25576665
   0.00167483  0.00790609  0.75688089
   0.99376010  0.49330906  0.25121316
   0.99261606  0.49971397  0.74161092
   0.50605145  0.00854521  0.25033285
   0.49194029  0.00472160  0.75164147
   0.49268854  0.49641479  0.25749936
   0.50085795  0.50313997  0.75816713
   0.99547072  0.25787720  0.00182694
   0.99775622  0.24855345  0.49145883
   0.99837592  0.75814223  0.00620585
   0.99724701  0.75788544  0.50573478
   0.49504822  0.25827462  0.00063600
   0.50896004  0.24287290  0.49831302
   0.50757066  0.75621066  0.99928176
   0.50700758  0.75343801  0.50816123
   0.99956986  0.25845736  0.25536439
   0.00641487  0.24298559  0.74769201
   0.00669147  0.74817914  0.24329795
   0.99392238  0.75055920  0.74282088
   0.50781333  0.24167885  0.25163774
   0.50673147  0.24201834  0.74915740
   0.50654558  0.75093684  0.25119614
   0.49954619  0.74142599  0.74472722
   0.25662417  0.99807615  0.00568146
   0.25196100  0.99495223  0.50643823
   0.24391880  0.50806630  0.99749387
   0.25509783  0.49536820  0.50663459
   0.75694254  0.00028178  0.99436080
   0.74824562  0.00860100  0.49447505
   0.74181126  0.50056962  0.00462852
   0.75588273  0.49843676  0.50521532
   0.24505660  0.00261864  0.24349104
   0.25761141  0.99828313  0.74449255
   0.25495377  0.49182857  0.25172445
   0.24642890  0.50604208  0.74094984
   0.74403873  0.00157260  0.25550971
   0.74785639  0.00722104  0.75646916
   0.75552852  0.49803285  0.24226526
   0.75728541  0.49817584  0.74207092
   0.25700217  0.25174037  0.00601215
   0.25352252  0.25750542  0.50531351
   0.25245534  0.74237799  0.99432953
   0.25279940  0.75671773  0.49386184
   0.75691154  0.25172821  0.00780415
   0.74017059  0.24387082  0.49742509
   0.74164918  0.74868516  0.99515669
   0.74411000  0.75294189  0.49014389
   0.25078396  0.25779299  0.24349005
   0.24375062  0.25187549  0.74367960
   0.24374760  0.74771179  0.25689963
   0.24692181  0.74178118  0.75723445
   0.74165976  0.25091277  0.24277815
   0.74373112  0.24255388  0.75070342
   0.74501779  0.74978883  0.25407373
   0.75968574  0.74882679  0.75928750
   0.00967928  0.50306197  0.62467456
   0.99843251  0.00479673  0.37623496
   0.00274342  0.00157482  0.87302227
   0.49799983  0.49724882  0.37546621
   0.49269916  0.50167806  0.87394754
   0.99896310  0.74534479  0.12596784
   0.00308213  0.74590501  0.62437374
   0.50955504  0.76512727  0.62546226
   0.99199548  0.24820236  0.37636219
   0.25724728  0.00256895  0.12499144
   0.25631420  0.00373010  0.62589600
   0.23776748  0.49558721  0.62583164
   0.74837546  0.48959275  0.12519175
   0.74466056  0.49214002  0.62406686
   0.74644526  0.00165202  0.37549662
   0.74285095  0.00067828  0.87386989
   0.24318142  0.25029110  0.12550212
   0.25007375  0.25045788  0.62518434
   0.73985003  0.26108763  0.12629878
   0.25629712  0.74622837  0.37545213
   0.25316149  0.75183336  0.87547582
   0.74988117  0.74840665  0.37316710
   0.74769075  0.74833546  0.87610801
   0.12461361  0.50732136  0.99269656
   0.62575799  0.51043319  0.99654199
   0.12513978  0.00582937  0.24849313
   0.62547644  0.00527247  0.24325644
   0.62603153  0.26840242  0.49145914
   0.62503204  0.73796082  0.00470597
   0.62576453  0.77428246  0.50187080
   0.12434497  0.25361358  0.75174044
   0.12520442  0.74815140  0.25361773
   0.62565226  0.24125199  0.26337984
   0.62552119  0.25479161  0.75029062
   0.62333639  0.75050229  0.24837005
   0.37627395  0.99583177  0.98939582
   0.37564698  0.51312460  0.50631647
   0.87302732  0.99783364  0.99698718
   0.87515089  0.51259166  0.50178302
   0.37547933  0.99937128  0.76190246
   0.37384903  0.49290515  0.24714693
   0.87534724  0.49422924  0.25010865
   0.87495871  0.51127169  0.74425461
   0.37584750  0.25178620  0.00608691
   0.87421668  0.25231120  0.00794683
   0.87525556  0.74027071  0.74774118
   0.51967540  0.12752671  0.49720930
   0.99794505  0.12627433  0.74485230
   0.49125988  0.12539954  0.25926582
   0.50423076  0.12318865  0.74343378
   0.50417010  0.62621797  0.74417664
   0.00360838  0.37566100  0.00479382
   0.00546684  0.87471770  0.00199739
   0.98361750  0.87494851  0.49963958
   0.50572283  0.37476346  0.00355283
   0.50835167  0.87444523  0.99999998
   0.01005076  0.37416844  0.24695128
   0.25932880  0.62528190  0.00312186
   0.73155611  0.12515335  0.50572461
   0.24501914  0.62481258  0.74992077
   0.74795810  0.12464480  0.74228460
   0.25993106  0.37424348  0.49418291
   0.26249555  0.87575934  0.50020572
   0.23889118  0.37456377  0.25686876
   0.99689643  0.00272625  0.12663662
   0.99998978  0.99830553  0.62379855
   0.00215807  0.50964118  0.12510619
   0.48979453  0.00344032  0.12552117
   0.49289674  0.98358171  0.62823324
   0.50358495  0.50643943  0.12697402
   0.51000521  0.49780962  0.62487095
   0.00067626  0.49564413  0.37625372
   0.99298239  0.49712152  0.87273930
   0.51027369  0.98865979  0.37204136
   0.51884917  0.00424730  0.87505128
   0.01013318  0.24500608  0.12740680
   0.00157409  0.25784779  0.62152278
   0.51157708  0.24184449  0.12626803
   0.49905113  0.25382278  0.62329173
   0.49515696  0.74663854  0.12648591
   0.99287798  0.25169596  0.87447298
   0.99222781  0.75091040  0.37574055
   0.99984484  0.75146487  0.87383250
   0.48849707  0.26240826  0.37471458
   0.49739197  0.24795503  0.87422883
   0.49698567  0.74995659  0.37603507
   0.50038661  0.74594071  0.87368127
   0.24254478  0.49388367  0.12467844
   0.75375672  0.00066949  0.12585038
   0.75225933  0.99077555  0.62382055
   0.24727686  0.00141787  0.37503382
   0.23984254  0.99444618  0.87482558
   0.24957585  0.51193893  0.37531856
   0.26126772  0.49892998  0.87358863
   0.74858815  0.50981766  0.37487375
   0.75421403  0.50959119  0.87365789
   0.25214695  0.75458333  0.12564695
   0.24642885  0.75129998  0.62549377
   0.74953092  0.26249424  0.62327340
   0.75414884  0.75044302  0.12558863
   0.74002981  0.75919983  0.62524942
   0.25536957  0.24375652  0.37432897
   0.25401871  0.25142616  0.87532413
   0.76443077  0.24161819  0.37391835
   0.75485013  0.24280865  0.87599314
   0.12609420  0.00522391  0.00478705
   0.12425059  0.98946192  0.50188249
   0.12312803  0.49185004  0.49095743
   0.62511187  0.00462989  0.01094317
   0.62894073  0.97033726  0.51075634
   0.62616246  0.48783645  0.49559425
   0.12651833  0.99836503  0.74463230
   0.12386082  0.51050679  0.25130370
   0.12302479  0.49142404  0.76397026
   0.62420582  0.98819476  0.73695832
   0.62519899  0.50289623  0.25170820
   0.62650828  0.49208467  0.75743303
   0.12485117  0.24682545  0.99246952
   0.12285648  0.25958045  0.49545540
   0.12518582  0.74096375  0.99976866
   0.12399861  0.76241411  0.49455079
   0.62615257  0.24619315  0.99186629
   0.12439065  0.23472568  0.25895007
   0.12288984  0.75675751  0.75351053
   0.62653781  0.76208326  0.74572520
   0.37298100  0.01969933  0.49167987
   0.37346754  0.49239012  0.00882906
   0.87422058  0.01916794  0.50404171
   0.87452816  0.49478510  0.00093609
   0.37658519  0.99310255  0.25815908
   0.37483117  0.50190558  0.73851911
   0.87393875  0.99579032  0.24997153
   0.87400678  0.99553867  0.74719891
   0.37792190  0.23488490  0.50062342
   0.37697081  0.76092753  0.00140750
   0.37868802  0.73461716  0.50658511
   0.87436236  0.23739422  0.50768345
   0.87198837  0.75875958  0.99889235
   0.87150776  0.73312542  0.50605302
   0.37784235  0.26089390  0.24274315
   0.37623431  0.24730422  0.74994477
   0.37775036  0.75101308  0.24884426
   0.37464179  0.75182088  0.74503940
   0.87414283  0.25989764  0.24158199
   0.87393098  0.25209630  0.74497736
   0.87297332  0.75052812  0.24978175
   0.99987168  0.12699590  0.00075215
   0.01107189  0.12594791  0.50760176
   0.99007367  0.62556591  0.99387514
   0.01187865  0.62749525  0.49225426
   0.50101279  0.12447004  0.99926609
   0.48655005  0.62741169  0.00109569
   0.51696158  0.62780843  0.50263427
   0.98849873  0.12781334  0.24731417
   0.99491211  0.62344172  0.25827819
   0.01321960  0.62481978  0.75626463
   0.49818434  0.62598535  0.25294950
   0.98888341  0.37466017  0.49954280
   0.48488055  0.37332801  0.50420450
   0.47887957  0.87513418  0.49275743
   0.99276855  0.37504207  0.74971257
   0.99870038  0.87566806  0.25081782
   0.99711324  0.87542887  0.74704133
   0.50847202  0.37220697  0.24158637
   0.49472805  0.37389101  0.74847016
   0.49960546  0.87484037  0.24503802
   0.50026081  0.87380988  0.76160338
   0.25039752  0.12474687  0.99359528
   0.23594312  0.12541193  0.49786373
   0.23785741  0.62740310  0.50525590
   0.74794489  0.12621983  0.00544970
   0.76469261  0.62547575  0.00663992
   0.73411741  0.62740464  0.50552602
   0.26248623  0.12667621  0.25243708
   0.24875427  0.12483982  0.75762996
   0.25455206  0.62369929  0.24081261
   0.76294377  0.12657780  0.24483005
   0.75045754  0.62507513  0.24345108
   0.73532917  0.62575465  0.74266311
   0.24515400  0.37636856  0.99687199
   0.24149058  0.87350554  0.00324786
   0.74432663  0.37530555  0.98488924
   0.76665945  0.37343610  0.48864806
   0.74058234  0.87431831  0.00517505
   0.77244497  0.87527542  0.49886271
   0.25629008  0.37634208  0.75629161
   0.25091425  0.87529976  0.25145961
   0.24916102  0.87324997  0.74648202
   0.74335646  0.37438623  0.26726036
   0.75690263  0.37443557  0.76012725
   0.75027838  0.87493182  0.24602225
   0.75224464  0.87395640  0.74715426
 
 position of ions in cartesian coordinates  (Angst):
   9.71870282 12.69291507  9.69469808
  15.35892452 15.35334740 15.33998728
  15.40036621 15.30614244  7.61402708
   0.09337574  7.64828892 15.38638119
  15.33581801  7.77872355  7.82478407
   7.62711478 15.33795130 15.40972602
   7.74152857  0.09220319  7.71630953
   7.77967834  7.65127230 15.36598141
   7.58436201  7.68706489  7.64977884
   0.10448897  0.04976614  3.94554099
   0.02583649  0.12196195 11.67589521
  15.33007219  7.60994883  3.87529735
  15.31242387  7.70875310 11.44033559
   7.80651722  0.13182125  3.86171744
   7.58883379  0.07283696 11.59507018
   7.60037655  7.65785888  3.97227041
   7.72640056  7.76160379 11.69573711
  15.35646078  3.97809906  0.02818305
  15.39171767  3.83426772  7.58140652
  15.40127742 11.69535299  0.09573344
  15.38386245 11.69139169  7.80163213
   7.63677776  3.98422984  0.00981117
   7.85138597  3.74663772  7.68714155
   7.82995299 11.66555591 15.41525112
   7.82126678 11.62278414  7.83906340
  15.41969549  3.98704886  3.93933559
   0.09895785  3.74837609 11.53414444
   0.10322489 11.54165903  3.75319470
  15.33257559 11.57837458 11.45900071
   7.83369652  3.72821795  3.88184706
   7.81700742  3.73345497 11.55675006
   7.81413978 11.58420025  3.87503488
   7.70616488 11.43748280 11.48840868
   3.95876940 15.39665311  0.08764414
   3.88683382 15.34846250  7.81248384
   3.76277219  7.83759898 15.38767058
   3.93522361  7.64171382  7.81551282
  11.67684611  0.00434683 15.33933887
  11.54268455  0.13268181  7.62793582
  11.44342606  7.72195261  0.07140115
  11.66049715  7.68905047  7.79361875
   3.78032418  0.04039608  3.75617343
   3.97399882 15.39984592 11.48478852
   3.93300130  7.58711031  3.88318476
   3.80149379  7.80637259 11.43013755
  11.47778770  0.02425949  3.94157739
  11.53668028  0.11139413 11.66954372
  11.65503306  7.68281958  3.73726416
  11.68213540  7.68502541 11.44743159
   3.96460053  3.88343020  0.09274547
   3.91092237  3.97236383  7.79513341
   3.89445966 11.45216855 15.33885643
   3.89976714 11.67337819  7.61847618
  11.67636792  3.88324263  0.12038942
  11.41811650  3.76203206  7.67344408
  11.44092580 11.54946507 15.35161643
  11.47888719 11.61513075  7.56112191
   3.86867632  3.97679997  3.75615818
   3.76017782  3.88551475 11.47224771
   3.76013119 11.53444949  3.96301867
   3.80909758 11.44296205 11.68134929
  11.44108890  3.87066348  3.74517609
  11.47304240  3.74171650 11.58059946
  11.49289106 11.56649064  3.91942548
  11.71916375 11.55164991 11.71302035
   0.14931585  7.76040053  9.63643650
  15.40215035  0.07399593  5.80392506
   0.04232093  0.02429362 13.46753049
   7.68231015  7.67072487  5.79206609
   7.60054032  7.73905175 13.48180403
  15.41033551 11.49793544  1.94322164
   0.04754600 11.50657751  9.63179597
   7.86056468 11.80310646  9.64858780
  15.30285069  3.82885169  5.80588766
   3.96838164  0.03962955  1.92815931
   3.95398769  0.05754173  9.65527883
   3.66787988  7.64509238  9.65428606
  11.54468759  7.55261987  1.93124942
  11.48738034  7.59191489  9.62706197
  11.51491162  0.02548454  5.79253508
  11.45946464  0.01046336 13.48060624
   3.75139703  3.86107338  1.93603726
   3.85772042  3.86364609  9.64430055
  11.41317148  4.02762419  1.94832679
   3.95372422 11.51156582  5.79184887
   3.90535301 11.59803027 13.50537978
  11.56791513 11.54516868  5.75659917
  11.53412506 11.54407046 13.51513223
   1.92233083  7.82610730 15.31366572
   9.65314981  7.87411127 15.37298656
   1.93044773  0.08992572  3.83333729
   9.64880653  0.08133479  3.75255437
   9.65736961  4.14046454  7.58141130
   9.64195110 11.38402780  0.07259581
   9.65325077 11.94433752  7.74202511
   1.91818659  3.91232702 11.59659685
   1.93144478 11.54123115  3.91239111
   9.65151892  3.72163305  4.06298462
   9.64949696  3.93049966 11.57423140
   9.61579352 11.57749675  3.83143866
   5.80452645 15.36203046 15.26274748
   5.79485464  7.91562990  7.81060539
  13.46760844 15.39291205 15.37985418
  13.50036727  7.90740862  7.74067101
   5.79226843 15.41663208 11.75335960
   5.76711890  7.60371800  3.81257038
  13.50339629  7.62414381  3.85825883
  13.49740273  7.88704625 11.48111804
   5.79794789  3.88413719  0.09389865
  13.48595592  3.89223606  0.12259040
  13.50198204 11.41966106 11.53490299
   8.01668474  1.96726930  7.67011528
  15.39463071  1.94794960 11.49033810
   7.57833745  1.93445474  3.99952041
   7.77843066  1.90034888 11.46845552
   7.77749490  9.66024572 11.47991518
   0.05566413  5.79507096  0.07395113
   0.08433333 13.49368473  0.03081235
  15.17360915 13.49724539  7.70760552
   7.80144775  5.78122524  0.05480707
   7.84200118 13.48948157 15.42633064
   0.15504638  5.77204626  3.80955217
   4.00049194  9.64580557  0.04815884
  11.28522663  1.93065696  7.80147530
   3.77974635  9.63856560 11.56852608
  11.53824926  1.92281199 11.45072796
   4.00978249  5.77320373  7.62342918
   4.04934317 13.50975349  7.71633906
   3.68521435  5.77814466  3.96254249
  15.37845436  0.04205598  1.95353841
  15.42617328 15.40019149  9.62292288
   0.03329114  7.86189355  1.92992956
   7.55573251  0.05307149  1.93633112
   7.60358832 15.17305704  9.69133395
   7.76846813  7.81250235  1.95874333
   7.86750923  7.67937590  9.63946610
   0.01043214  7.64597045  5.80421440
  15.31807507  7.66876108 13.46316532
   7.87165079 15.25139311  5.73923311
   8.00393905  0.06552020 13.49883063
   0.15631776  3.77954488  1.96541946
   0.02428243  3.97764536  9.58781611
   7.89175744  3.73077315  1.94785238
   7.69852798  3.91555429  9.61510455
   7.63845520 11.51789319  1.95121350
  15.31646441  3.88274524 13.48990970
  15.30643465 11.58379231  5.79629816
  15.42393740 11.59234586 13.48002941
   7.53571748  4.04799662  5.78047107
   7.67293324  3.82503636 13.48614331
   7.66666542 11.56907866  5.80084150
   7.71912949 11.50712823 13.47769645
   3.74157602  7.61881303  1.92333095
  11.62770072  0.01032774  1.94140967
  11.60460144 15.28403158  9.62326229
   3.81457466  0.02187249  5.78539584
   3.69989045 15.34065586 13.49534894
   3.85003962  7.89733939  5.78978838
   4.03040230  7.69665908 13.47626743
  11.54796854  7.86461596  5.78292663
  11.63475534  7.86112243 13.47733583
   3.88970226 11.64045221  1.93827142
   3.80149303 11.58980220  9.64907395
  11.56251204  4.04932299  9.61482183
  11.63374963 11.57658242  1.93737175
  11.41594473 11.71166784  9.64530449
   3.93941546  3.76026876  5.77452266
   3.91857672  3.87858313 13.50303980
  11.79236204  3.72728219  5.76818819
  11.64456792  3.74564663 13.51336019
   1.94517092  0.08058578  0.07384657
   1.91673071 15.26376712  7.74220540
   1.89941373  7.58744154  7.57367181
   9.64318260  0.07142228  0.16881299
   9.70224782 14.96874372  7.87909633
   9.65938944  7.52552649  7.64520093
   1.95171363 15.40110941 11.48694437
   1.91071806  7.87524676  3.87669409
   1.89782119  7.58086994 11.78525813
   9.62920564 15.24421952 11.36856296
   9.64452657  7.75784372  3.88293407
   9.66472417  7.59106103 11.68441261
   1.92599552  3.80761102 15.31016330
   1.89522474  4.00437400  7.64305905
   1.93115785 11.43035203 15.42276225
   1.91284354 11.76125238  7.62910420
   9.65923683  3.79785699 15.30085770
   1.91889138  3.62095608  3.99464948
   1.89573942 11.67399182 11.62390281
   9.66517962 11.75614858 11.50380377
   5.75372840  0.30388837  7.58481634
   5.76123395  7.59577296  0.13620007
  13.48601609  0.29569092  7.77551418
  13.49076087  7.63271880  0.01444040
   5.80932777 15.31992863  3.98244738
   5.78226975  7.74256165 11.39264020
  13.48166841 15.36139105  3.85614362
  13.48271782 15.35750899 11.52653771
   5.82994827  3.62341226  7.72278251
   5.81527652 11.73832001  0.02171263
   5.84176680 11.33244745  7.81474962
  13.48820317  3.66212183  7.83169293
  13.45158124 11.70487644 15.40924408
  13.44416714 11.30943541  7.80654137
   5.82872120  4.02463567  3.74463623
   5.80391496  3.81499669 11.56889630
   5.82730214 11.58537629  3.83875394
   5.77934826 11.59783768 11.49322434
  13.48481668  4.00926701  3.72672379
  13.48154863  3.88892098 11.49226736
  13.46677544 11.57789514  3.85321588
  15.42435143  1.95908080  0.01160287
   0.17079866  1.94291412  7.83043280
  15.27320414  9.65018679 15.33184693
   0.18324405  9.67994941  7.59367713
   7.72878915  1.92011597 15.41500944
   7.50568213  9.67866033  0.01690251
   7.97482044  9.68478058  7.75380258
  15.24890854  1.97169095  3.81515022
  15.34784349  9.61741839  3.98428478
   0.20392989  9.63867668 11.66638856
   7.68515650  9.65665727  3.90208265
  15.25484279  5.77963181  7.70611256
   7.47992782  5.75908140  7.77802547
   7.38735483 13.50010951  7.60143915
  15.31477622  5.78552309 11.56531428
  15.40628260 13.50834536  3.86919870
  15.38179882 13.50465545 11.52410688
   7.84385769  5.74178786  3.72679129
   7.63183861  5.76776651 11.54614848
   7.70707920 13.49557718  3.78003766
   7.71718889 13.47968049 11.74874591
   3.86271495  1.92438652 15.32752960
   3.63973659  1.93464597  7.68021065
   3.66926711  9.67852795  7.79424483
  11.53804543  1.94710881  0.08406884
  11.79640128  9.64879589  0.10242966
  11.32473821  9.67855172  7.79841169
   4.04919952  1.95414920  3.89417796
   3.83736564  1.92582032 11.68745061
   3.92680440  9.62139174  3.71485506
  11.76942309  1.95263101  3.77682939
  11.57680636  9.64261590  3.75555692
  11.34343116  9.65309841 11.45656694
   3.78182680  5.80598597 15.37807727
   3.72531359 13.47498558  0.05010263
  11.48222892  5.78958766 15.19322743
  11.82674251  5.76074881  7.53804679
  11.42446830 13.48752369  0.07983199
  11.91599173 13.50228833  7.69562132
   3.95361566  5.80557754 11.66680476
   3.87068626 13.50266382  3.87909918
   3.84364033 13.47104312 11.51547865
  11.46726284  5.77540584  4.12284670
  11.67623046  5.77616708 11.72597460
  11.57404265 13.49698784  3.79522072
  11.60437477 13.48194069 11.52584888
 


--------------------------------------------------------------------------------------------------------


 k-point  1 :   0.2500 0.2500 0.2500  plane waves:   93161
 k-point  2 :  -0.2500 0.2500 0.2500  plane waves:   93161
 k-point  3 :   0.2500-0.2500 0.2500  plane waves:   93161
 k-point  4 :  -0.2500-0.2500 0.2500  plane waves:   93161

 maximum and minimum number of plane-waves per node :     11686    11606

 maximum number of plane-waves:     93161
 maximum index in each direction: 
   IXMAX=   28   IYMAX=   28   IZMAX=   27
   IXMIN=  -28   IYMIN=  -28   IZMIN=  -28


 real space projection operators:
  total allocation   :     105599.59 KBytes
  max/ min on nodes  :      13243.29      13165.40


 parallel 3D FFT for wavefunctions:
    minimum data exchange during FFTs selected (reduces bandwidth)
 parallel 3D FFT for charge:
    minimum data exchange during FFTs selected (reduces bandwidth)


 total amount of memory used by VASP MPI-rank0   291501. kBytes
=======================================================================

   base      :      30000. kBytes
   nonlr-proj:      49466. kBytes
   fftplans  :      27976. kBytes
   grid      :      34041. kBytes
   one-center:       1026. kBytes
   wavefun   :     148992. kBytes
 
     INWAV:  cpu time   52.6569: real time   53.0022
 Broyden mixing: mesh for mixing (old mesh)
   NGX = 57   NGY = 57   NGZ = 57
  (NGX  =240   NGY  =240   NGZ  =240)
  gives a total of 185193 points

 charge density for first step will be calculated from the start-wavefunctions


--------------------------------------------------------------------------------------------------------


 Maximum index for non-local projection operator          969
 Maximum index for augmentation-charges         3294 (set IRDMAX)


--------------------------------------------------------------------------------------------------------


 initial charge from wavefunction
 First call to EWALD:  gamma=   0.115
 Maximum number of real-space cells 3x 3x 3
 Maximum number of reciprocal cells 3x 3x 3

    FEWALD:  cpu time    0.1013: real time    0.1024


--------------------------------------- Iteration      1(   1)  ---------------------------------------


    POTLOK:  cpu time    0.3156: real time    0.3489
    SETDIJ:  cpu time    1.2779: real time    1.4363
     EDDAV:  cpu time  132.1410: real time  132.6782
       DOS:  cpu time    0.0037: real time    0.0120
    CHARGE:  cpu time    5.1790: real time    5.2298
    MIXING:  cpu time    0.0092: real time    0.0116
    --------------------------------------------
      LOOP:  cpu time  138.9264: real time  139.7169

 eigenvalue-minimisations  : 22896
 total energy-change (2. order) :-0.1862314E+04  (-0.3467253E+03)
 number of electron    1923.0000029 magnetization       1.0000000
 augmentation part      506.6752133 magnetization       0.6208535

 Broyden mixing:
  rms(total) = 0.10146E+02    rms(broyden)= 0.10143E+02
  rms(prec ) = 0.15424E+02
  weight for this iteration     100.00

 Free energy of the ion-electron system (eV)
  ---------------------------------------------------
  alpha Z        PSCENC =      6118.73324990
  Ewald energy   TEWEN  =   -103453.70536805
  -Hartree energ DENC   =    -65148.53680196
  -exchange      EXHF   =         0.00000000
  -V(xc)+E(xc)   XCENC  =      8958.33445192
  PAW double counting   =    197896.52025788  -198891.26844108
  entropy T*S    EENTRO =        -0.00345745
  eigenvalues    EBANDS =    -25919.64020328
  atomic energy  EATOM  =    178577.25249613
  Solvation  Ediel_sol  =         0.00000000
  ---------------------------------------------------
  free energy    TOTEN  =     -1862.31381598 eV

  energy without entropy =    -1862.31035854  energy(sigma->0) =    -1862.31208726


--------------------------------------------------------------------------------------------------------




--------------------------------------- Iteration      1(   2)  ---------------------------------------


    POTLOK:  cpu time    0.2598: real time    0.2626
    SETDIJ:  cpu time    1.3950: real time    1.3962
     EDDAV:  cpu time  152.8847: real time  154.1043
       DOS:  cpu time    0.0032: real time    0.0032
    CHARGE:  cpu time    5.1742: real time    5.2450
    MIXING:  cpu time    0.0077: real time    0.0088
    --------------------------------------------
      LOOP:  cpu time  159.7246: real time  161.0202

 eigenvalue-minimisations  : 27612
 total energy-change (2. order) :-0.1667602E+03  (-0.5701015E+03)
 number of electron    1923.0000029 magnetization       1.0000000
 augmentation part      511.1080484 magnetization       0.7424596

 Broyden mixing:
  rms(total) = 0.14127E+02    rms(broyden)= 0.14123E+02
  rms(prec ) = 0.20738E+02
  weight for this iteration     100.00

 eigenvalues of (default mixing * dielectric matrix)
  average eigenvalue GAMMA=   0.3764
  0.3764

 Free energy of the ion-electron system (eV)
  ---------------------------------------------------
  alpha Z        PSCENC =      6118.73324990
  Ewald energy   TEWEN  =   -103453.70536805
  -Hartree energ DENC   =    -65369.61628227
  -exchange      EXHF   =         0.00000000
  -V(xc)+E(xc)   XCENC  =      8959.02859709
  PAW double counting   =    200347.50536057  -201306.60789264
  entropy T*S    EENTRO =        -0.00303246
  eigenvalues    EBANDS =    -25901.66116197
  atomic energy  EATOM  =    178577.25249613
  Solvation  Ediel_sol  =         0.00000000
  ---------------------------------------------------
  free energy    TOTEN  =     -2029.07403369 eV

  energy without entropy =    -2029.07100123  energy(sigma->0) =    -2029.07251746


--------------------------------------------------------------------------------------------------------




--------------------------------------- Iteration      1(   3)  ---------------------------------------


    POTLOK:  cpu time    0.2619: real time    0.2622
    SETDIJ:  cpu time    1.4102: real time    1.4121
     EDDAV:  cpu time  154.2533: real time  155.2578
       DOS:  cpu time    0.0018: real time    0.0018
    CHARGE:  cpu time    5.2348: real time    5.2385
    MIXING:  cpu time    0.0689: real time    0.0689
    --------------------------------------------
      LOOP:  cpu time  161.2309: real time  162.2414

 eigenvalue-minimisations  : 27876
 total energy-change (2. order) : 0.1362222E+03  (-0.1696914E+03)
 number of electron    1923.0000028 magnetization       1.0000000
 augmentation part      490.9787335 magnetization       0.6199074

 Broyden mixing:
  rms(total) = 0.65552E+01    rms(broyden)= 0.65529E+01
  rms(prec ) = 0.75858E+01
  weight for this iteration     100.00

 eigenvalues of (default mixing * dielectric matrix)
  average eigenvalue GAMMA=   0.4512
  0.4512  0.4512

 Free energy of the ion-electron system (eV)
  ---------------------------------------------------
  alpha Z        PSCENC =      6118.73324990
  Ewald energy   TEWEN  =   -103453.70536805
  -Hartree energ DENC   =    -65445.83654336
  -exchange      EXHF   =         0.00000000
  -V(xc)+E(xc)   XCENC  =      8960.58841049
  PAW double counting   =    200707.33122982  -201656.49747163
  entropy T*S    EENTRO =        -0.00000000
  eigenvalues    EBANDS =    -25700.71783964
  atomic energy  EATOM  =    178577.25249613
  Solvation  Ediel_sol  =         0.00000000
  ---------------------------------------------------
  free energy    TOTEN  =     -1892.85183634 eV

  energy without entropy =    -1892.85183634  energy(sigma->0) =    -1892.85183634


--------------------------------------------------------------------------------------------------------




--------------------------------------- Iteration      1(   4)  ---------------------------------------


    POTLOK:  cpu time    0.2698: real time    0.2722
    SETDIJ:  cpu time    1.4045: real time    1.4058
     EDDAV:  cpu time  140.8601: real time  141.6594
       DOS:  cpu time    0.0018: real time    0.0018
    CHARGE:  cpu time    5.2598: real time    5.2724
    MIXING:  cpu time    0.0136: real time    0.0139
    --------------------------------------------
      LOOP:  cpu time  147.8095: real time  148.6255

 eigenvalue-minimisations  : 25020
 total energy-change (2. order) : 0.6458640E+02  (-0.4688629E+02)
 number of electron    1923.0000028 magnetization       1.0000000
 augmentation part      493.0696992 magnetization       0.5881328

 Broyden mixing:
  rms(total) = 0.47509E+01    rms(broyden)= 0.47502E+01
  rms(prec ) = 0.55485E+01
  weight for this iteration     100.00

 eigenvalues of (default mixing * dielectric matrix)
  average eigenvalue GAMMA=   0.5933
  0.6777  0.6777  0.4245

 Free energy of the ion-electron system (eV)
  ---------------------------------------------------
  alpha Z        PSCENC =      6118.73324990
  Ewald energy   TEWEN  =   -103453.70536805
  -Hartree energ DENC   =    -65366.46744167
  -exchange      EXHF   =         0.00000000
  -V(xc)+E(xc)   XCENC  =      8966.94286489
  PAW double counting   =    200747.38772831  -201717.89419508
  entropy T*S    EENTRO =        -0.00000000
  eigenvalues    EBANDS =    -25700.51476900
  atomic energy  EATOM  =    178577.25249613
  Solvation  Ediel_sol  =         0.00000000
  ---------------------------------------------------
  free energy    TOTEN  =     -1828.26543456 eV

  energy without entropy =    -1828.26543456  energy(sigma->0) =    -1828.26543456


--------------------------------------------------------------------------------------------------------




--------------------------------------- Iteration      1(   5)  ---------------------------------------


    POTLOK:  cpu time    0.2627: real time    0.2702
    SETDIJ:  cpu time    1.4166: real time    1.4364
     EDDAV:  cpu time  149.1418: real time  150.1733
       DOS:  cpu time    0.0019: real time    0.0019
    CHARGE:  cpu time    5.2511: real time    5.2542
    MIXING:  cpu time    0.0077: real time    0.0077
    --------------------------------------------
      LOOP:  cpu time  156.0818: real time  157.1437

 eigenvalue-minimisations  : 26688
 total energy-change (2. order) : 0.4918679E+02  (-0.1594961E+02)
 number of electron    1923.0000028 magnetization       1.0000000
 augmentation part      493.7449366 magnetization       0.6003455

 Broyden mixing:
  rms(total) = 0.25443E+01    rms(broyden)= 0.25438E+01
  rms(prec ) = 0.30025E+01
  weight for this iteration     100.00

 eigenvalues of (default mixing * dielectric matrix)
  average eigenvalue GAMMA=   0.6707
  0.8703  0.8703  0.4711  0.4711

 Free energy of the ion-electron system (eV)
  ---------------------------------------------------
  alpha Z        PSCENC =      6118.73324990
  Ewald energy   TEWEN  =   -103453.70536805
  -Hartree energ DENC   =    -65384.63551997
  -exchange      EXHF   =         0.00000000
  -V(xc)+E(xc)   XCENC  =      8975.07661623
  PAW double counting   =    200120.48726522  -201112.15713529
  entropy T*S    EENTRO =        -0.00000000
  eigenvalues    EBANDS =    -25620.13025262
  atomic energy  EATOM  =    178577.25249613
  Solvation  Ediel_sol  =         0.00000000
  ---------------------------------------------------
  free energy    TOTEN  =     -1779.07864846 eV

  energy without entropy =    -1779.07864846  energy(sigma->0) =    -1779.07864846


--------------------------------------------------------------------------------------------------------




--------------------------------------- Iteration      1(   6)  ---------------------------------------


    POTLOK:  cpu time    0.2622: real time    0.2624
    SETDIJ:  cpu time    1.3891: real time    1.3903
     EDDAV:  cpu time  152.8850: real time  153.7842
       DOS:  cpu time    0.0019: real time    0.0019
    CHARGE:  cpu time    5.2366: real time    5.2406
    MIXING:  cpu time    0.0084: real time    0.0084
    --------------------------------------------
      LOOP:  cpu time  159.7831: real time  160.6878

 eigenvalue-minimisations  : 27456
 total energy-change (2. order) : 0.1514014E+02  (-0.5010392E+01)
 number of electron    1923.0000028 magnetization       1.0000000
 augmentation part      494.9328854 magnetization       0.5926555

 Broyden mixing:
  rms(total) = 0.16920E+01    rms(broyden)= 0.16918E+01
  rms(prec ) = 0.18846E+01
  weight for this iteration     100.00

 eigenvalues of (default mixing * dielectric matrix)
  average eigenvalue GAMMA=   0.7045
  0.9719  0.9719  0.4286  0.5751  0.5751

 Free energy of the ion-electron system (eV)
  ---------------------------------------------------
  alpha Z        PSCENC =      6118.73324990
  Ewald energy   TEWEN  =   -103453.70536805
  -Hartree energ DENC   =    -65308.34851359
  -exchange      EXHF   =         0.00000000
  -V(xc)+E(xc)   XCENC  =      8973.92053443
  PAW double counting   =    199555.38304123  -200555.32024778
  entropy T*S    EENTRO =        -0.00000000
  eigenvalues    EBANDS =    -25671.85370152
  atomic energy  EATOM  =    178577.25249613
  Solvation  Ediel_sol  =         0.00000000
  ---------------------------------------------------
  free energy    TOTEN  =     -1763.93850925 eV

  energy without entropy =    -1763.93850925  energy(sigma->0) =    -1763.93850925


--------------------------------------------------------------------------------------------------------




--------------------------------------- Iteration      1(   7)  ---------------------------------------


    POTLOK:  cpu time    0.2602: real time    0.2624
    SETDIJ:  cpu time    1.3777: real time    1.3789
     EDDAV:  cpu time  150.5811: real time  151.5197
       DOS:  cpu time    0.0020: real time    0.0020
    CHARGE:  cpu time    5.2586: real time    5.2613
    MIXING:  cpu time    0.0080: real time    0.0080
    --------------------------------------------
      LOOP:  cpu time  157.4875: real time  158.4322

 eigenvalue-minimisations  : 26964
 total energy-change (2. order) : 0.2188678E+01  (-0.9572402E+00)
 number of electron    1923.0000028 magnetization       1.0000000
 augmentation part      495.7480154 magnetization       0.5817543

 Broyden mixing:
  rms(total) = 0.12684E+01    rms(broyden)= 0.12680E+01
  rms(prec ) = 0.14200E+01
  weight for this iteration     100.00

 eigenvalues of (default mixing * dielectric matrix)
  average eigenvalue GAMMA=   0.8751
  1.4143  1.4143  0.7076  0.7076  0.4687  0.5379

 Free energy of the ion-electron system (eV)
  ---------------------------------------------------
  alpha Z        PSCENC =      6118.73324990
  Ewald energy   TEWEN  =   -103453.70536805
  -Hartree energ DENC   =    -65257.32624820
  -exchange      EXHF   =         0.00000000
  -V(xc)+E(xc)   XCENC  =      8971.91806625
  PAW double counting   =    199220.85966163  -200222.50359193
  entropy T*S    EENTRO =        -0.00000000
  eigenvalues    EBANDS =    -25716.97809740
  atomic energy  EATOM  =    178577.25249613
  Solvation  Ediel_sol  =         0.00000000
  ---------------------------------------------------
  free energy    TOTEN  =     -1761.74983166 eV

  energy without entropy =    -1761.74983166  energy(sigma->0) =    -1761.74983166


--------------------------------------------------------------------------------------------------------




--------------------------------------- Iteration      1(   8)  ---------------------------------------


    POTLOK:  cpu time    0.2597: real time    0.2625
    SETDIJ:  cpu time    1.3803: real time    1.3810
     EDDAV:  cpu time  155.6110: real time  156.5802
       DOS:  cpu time    0.0020: real time    0.0020
    CHARGE:  cpu time    5.2556: real time    5.2617
    MIXING:  cpu time    0.0526: real time    0.1004
    --------------------------------------------
      LOOP:  cpu time  162.5611: real time  163.5878

 eigenvalue-minimisations  : 28128
 total energy-change (2. order) : 0.1812067E+01  (-0.5550454E+00)
[...]
   81        1.574   3.461   0.000   5.035
   82        1.575   3.460   0.000   5.035
   83        1.574   3.460   0.000   5.034
   84        1.576   3.469   0.000   5.045
   85        1.575   3.461   0.000   5.037
   86        1.575   3.466   0.000   5.041
   87        1.577   3.470   0.000   5.047
   88        1.575   3.473   0.000   5.048
   89        1.575   3.460   0.000   5.035
   90        1.575   3.456   0.000   5.031
   91        1.574   3.459   0.000   5.033
   92        1.574   3.461   0.000   5.035
   93        1.577   3.467   0.000   5.044
   94        1.577   3.471   0.000   5.047
   95        1.569   3.483   0.000   5.052
   96        1.575   3.463   0.000   5.038
   97        1.575   3.466   0.000   5.040
   98        1.576   3.472   0.000   5.048
   99        1.575   3.463   0.000   5.038
  100        1.576   3.460   0.000   5.036
  101        1.574   3.456   0.000   5.030
  102        1.575   3.456   0.000   5.030
  103        1.575   3.459   0.000   5.034
  104        1.574   3.457   0.000   5.031
  105        1.577   3.472   0.000   5.048
  106        1.575   3.462   0.000   5.036
  107        1.575   3.461   0.000   5.036
  108        1.576   3.471   0.000   5.047
  109        1.575   3.462   0.000   5.036
  110        1.575   3.459   0.000   5.034
  111        1.577   3.476   0.000   5.053
  112        1.575   3.474   0.000   5.049
  113        1.576   3.474   0.000   5.050
  114        1.577   3.474   0.000   5.052
  115        1.574   3.465   0.000   5.039
  116        1.576   3.459   0.000   5.034
  117        1.575   3.461   0.000   5.036
  118        1.576   3.461   0.000   5.037
  119        1.576   3.471   0.000   5.047
  120        1.575   3.460   0.000   5.035
  121        1.575   3.461   0.000   5.036
  122        1.577   3.468   0.000   5.045
  123        1.577   3.472   0.000   5.049
  124        1.575   3.465   0.000   5.040
  125        1.576   3.475   0.000   5.051
  126        1.576   3.471   0.000   5.046
  127        1.574   3.456   0.000   5.030
  128        1.574   3.457   0.000   5.031
  129        1.576   3.469   0.000   5.045
  130        1.737   4.369   0.000   6.106
  131        1.737   4.370   0.000   6.106
  132        1.737   4.378   0.000   6.116
  133        1.738   4.386   0.000   6.124
  134        1.737   4.386   0.000   6.123
  135        1.737   4.368   0.000   6.105
  136        1.737   4.367   0.000   6.104
  137        1.738   4.380   0.000   6.118
  138        1.738   4.380   0.000   6.118
  139        1.739   4.389   0.000   6.128
  140        1.739   4.384   0.000   6.123
  141        1.738   4.379   0.000   6.117
  142        1.738   4.379   0.000   6.117
  143        1.738   4.385   0.000   6.123
  144        1.738   4.387   0.000   6.125
  145        1.739   4.384   0.000   6.122
  146        1.737   4.380   0.000   6.117
  147        1.737   4.369   0.000   6.105
  148        1.736   4.368   0.000   6.104
  149        1.739   4.384   0.000   6.123
  150        1.738   4.387   0.000   6.125
  151        1.738   4.377   0.000   6.115
  152        1.738   4.382   0.000   6.120
  153        1.737   4.380   0.000   6.118
  154        1.737   4.373   0.000   6.110
  155        1.737   4.371   0.000   6.108
  156        1.737   4.369   0.000   6.105
  157        1.737   4.367   0.000   6.103
  158        1.738   4.375   0.000   6.113
  159        1.738   4.375   0.000   6.113
  160        1.736   4.366   0.000   6.103
  161        1.736   4.367   0.000   6.104
  162        1.736   4.368   0.000   6.105
  163        1.736   4.368   0.000   6.104
  164        1.737   4.377   0.000   6.115
  165        1.738   4.376   0.000   6.113
  166        1.735   4.381   0.000   6.116
  167        1.737   4.369   0.000   6.105
  168        1.737   4.370   0.000   6.106
  169        1.738   4.374   0.000   6.112
  170        1.737   4.377   0.000   6.114
  171        1.737   4.369   0.000   6.105
  172        1.738   4.383   0.000   6.121
  173        1.737   4.366   0.000   6.103
  174        1.737   4.367   0.000   6.104
  175        1.737   4.378   0.000   6.115
  176        1.736   4.363   0.000   6.099
  177        1.738   4.380   0.000   6.117
  178        1.737   4.367   0.000   6.104
  179        1.738   4.374   0.000   6.112
  180        1.738   4.376   0.000   6.113
  181        1.736   4.369   0.000   6.105
  182        1.738   4.376   0.000   6.114
  183        1.737   4.367   0.000   6.104
  184        1.737   4.376   0.000   6.114
  185        1.737   4.380   0.000   6.117
  186        1.737   4.378   0.000   6.114
  187        1.737   4.369   0.000   6.106
  188        1.738   4.376   0.000   6.114
  189        1.739   4.384   0.000   6.123
  190        1.737   4.389   0.000   6.126
  191        1.738   4.384   0.000   6.122
  192        1.737   4.368   0.000   6.105
  193        1.738   4.382   0.000   6.120
  194        1.736   4.367   0.000   6.103
  195        1.737   4.369   0.000   6.105
  196        1.737   4.379   0.000   6.116
  197        1.737   4.369   0.000   6.105
  198        1.737   4.381   0.000   6.119
  199        1.737   4.377   0.000   6.115
  200        1.738   4.380   0.000   6.118
  201        1.737   4.374   0.000   6.111
  202        1.738   4.373   0.000   6.111
  203        1.738   4.379   0.000   6.117
  204        1.737   4.374   0.000   6.112
  205        1.737   4.375   0.000   6.112
  206        1.736   4.368   0.000   6.105
  207        1.737   4.368   0.000   6.106
  208        1.738   4.384   0.000   6.121
  209        1.737   4.375   0.000   6.112
  210        1.737   4.370   0.000   6.106
  211        1.737   4.370   0.000   6.107
  212        1.737   4.368   0.000   6.105
  213        1.738   4.371   0.000   6.110
  214        1.736   4.366   0.000   6.103
  215        1.738   4.376   0.000   6.114
  216        1.736   4.368   0.000   6.104
  217        1.737   4.367   0.000   6.104
  218        1.737   4.373   0.000   6.110
  219        1.738   4.377   0.000   6.115
  220        1.738   4.379   0.000   6.117
  221        1.738   4.379   0.000   6.117
  222        1.738   4.380   0.000   6.118
  223        1.737   4.378   0.000   6.115
  224        1.738   4.376   0.000   6.115
  225        1.738   4.379   0.000   6.117
  226        1.738   4.378   0.000   6.116
  227        1.737   4.379   0.000   6.116
  228        1.738   4.377   0.000   6.115
  229        1.738   4.379   0.000   6.117
  230        1.737   4.370   0.000   6.106
  231        1.738   4.376   0.000   6.114
  232        1.737   4.370   0.000   6.107
  233        1.738   4.380   0.000   6.118
  234        1.736   4.365   0.000   6.101
  235        1.737   4.365   0.000   6.102
  236        1.738   4.387   0.000   6.125
  237        1.739   4.384   0.000   6.123
  238        1.737   4.374   0.000   6.111
  239        1.738   4.376   0.000   6.115
  240        1.737   4.380   0.000   6.118
  241        1.738   4.376   0.000   6.114
  242        1.738   4.385   0.000   6.124
  243        1.738   4.386   0.000   6.125
  244        1.738   4.379   0.000   6.116
  245        1.738   4.378   0.000   6.116
  246        1.738   4.377   0.000   6.115
  247        1.738   4.384   0.000   6.122
  248        1.738   4.373   0.000   6.110
  249        1.738   4.385   0.000   6.123
  250        1.738   4.369   0.000   6.107
  251        1.738   4.380   0.000   6.118
  252        1.737   4.380   0.000   6.117
  253        1.738   4.379   0.000   6.117
  254        1.739   4.385   0.000   6.124
  255        1.738   4.376   0.000   6.114
  256        1.738   4.385   0.000   6.124
  257        1.738   4.380   0.000   6.118
--------------------------------------------------
tot        345.4591195.021 112.2881652.769
 


 magnetization (x)
 
# of ion       s       p       d       tot
------------------------------------------
    1        0.000   0.000   0.000   0.000
    2        0.000   0.000   0.000   0.000
    3        0.000  -0.000   0.000   0.000
    4        0.000  -0.000   0.000   0.000
    5       -0.000  -0.000  -0.000  -0.000
    6       -0.000  -0.000   0.000   0.000
    7        0.005   0.006   0.926   0.937
    8        0.000   0.000   0.000   0.000
    9       -0.000  -0.000  -0.000  -0.000
   10        0.000   0.000   0.000   0.000
   11        0.000  -0.000   0.000   0.000
   12        0.000  -0.000   0.000   0.000
   13       -0.000  -0.000  -0.000  -0.000
   14       -0.000  -0.000   0.007   0.007
   15       -0.000  -0.000   0.005   0.005
   16       -0.000  -0.000  -0.000  -0.000
   17       -0.000  -0.000  -0.000  -0.000
   18        0.000  -0.000   0.000   0.000
   19       -0.000  -0.000  -0.000  -0.000
   20       -0.000  -0.000  -0.000  -0.000
   21       -0.000  -0.000  -0.000  -0.000
   22        0.000   0.000   0.000   0.000
   23       -0.000  -0.000  -0.004  -0.004
   24       -0.000  -0.000  -0.000  -0.000
   25       -0.000  -0.000   0.000  -0.000
   26        0.000  -0.000   0.000   0.000
   27       -0.000  -0.000   0.000  -0.000
   28        0.000  -0.000   0.000   0.000
   29       -0.000  -0.000  -0.000  -0.000
   30       -0.000  -0.000  -0.000  -0.000
   31       -0.000  -0.000  -0.000  -0.000
   32       -0.000  -0.000   0.000   0.000
   33       -0.000  -0.000   0.000   0.000
   34        0.000   0.000   0.000   0.000
   35       -0.000   0.000   0.006   0.006
   36        0.000  -0.000   0.000   0.000
   37        0.000  -0.000  -0.000  -0.000
   38       -0.000  -0.000   0.000   0.000
   39       -0.000   0.000   0.004   0.004
   40       -0.000  -0.000  -0.000  -0.000
   41       -0.000   0.000  -0.000  -0.000
   42        0.000  -0.000   0.000   0.000
   43        0.000   0.000   0.003   0.003
   44        0.000  -0.000   0.000   0.000
   45       -0.000  -0.000  -0.000  -0.000
   46        0.000   0.000   0.003   0.003
   47        0.000   0.000   0.000   0.000
   48       -0.000  -0.000   0.000   0.000
   49       -0.000  -0.000  -0.000  -0.000
   50        0.000   0.000   0.000   0.000
   51       -0.000  -0.000  -0.000  -0.000
   52       -0.000  -0.000   0.000   0.000
   53       -0.000  -0.000  -0.000  -0.000
   54       -0.000  -0.000   0.000   0.000
   55       -0.000  -0.000  -0.000  -0.000
   56       -0.000  -0.000  -0.000  -0.000
   57       -0.000  -0.000   0.000   0.000
   58        0.000   0.000   0.000   0.000
   59       -0.000  -0.000   0.000   0.000
   60        0.000  -0.000  -0.000  -0.000
   61       -0.000  -0.000   0.000   0.000
   62       -0.000  -0.000  -0.000  -0.000
   63       -0.000  -0.000   0.000   0.000
   64       -0.000  -0.000   0.000   0.000
   65       -0.000  -0.000  -0.000  -0.000
   66        0.000   0.000   0.000   0.000
   67       -0.000  -0.000   0.000  -0.000
   68        0.000   0.000   0.000   0.000
   69        0.000   0.000   0.000   0.000
   70       -0.000  -0.000   0.000  -0.000
   71       -0.000  -0.000   0.000  -0.000
   72        0.000   0.000   0.000   0.000
   73       -0.000  -0.000   0.000  -0.000
   74        0.000   0.000   0.000   0.000
   75        0.000   0.000   0.000   0.000
   76       -0.000  -0.001   0.000  -0.001
   77       -0.000   0.000   0.000   0.000
   78        0.000  -0.000   0.000  -0.000
   79        0.000   0.000   0.000   0.000
   80       -0.000  -0.001   0.000  -0.001
   81        0.000   0.000   0.000   0.000
   82       -0.000  -0.000   0.000  -0.000
   83       -0.000  -0.000   0.000  -0.000
   84        0.000   0.000   0.000   0.000
   85       -0.000  -0.000   0.000  -0.000
   86       -0.000  -0.000   0.000  -0.000
   87        0.000  -0.000   0.000  -0.000
   88        0.000   0.000   0.000   0.000
   89        0.000  -0.000   0.000  -0.000
   90        0.000   0.000   0.000   0.000
   91        0.000   0.000   0.000   0.000
   92       -0.000  -0.001   0.000  -0.001
   93        0.000  -0.000   0.000  -0.000
   94        0.000  -0.000   0.000  -0.000
   95       -0.000  -0.000   0.000  -0.000
   96       -0.000  -0.000   0.000  -0.000
   97       -0.000  -0.000   0.000  -0.000
   98       -0.000  -0.000   0.000  -0.000
   99       -0.000  -0.000   0.000  -0.000
  100       -0.000  -0.000   0.000  -0.000
  101       -0.000  -0.000   0.000  -0.000
  102        0.000   0.000   0.000   0.000
  103        0.000   0.000   0.000   0.000
  104       -0.000  -0.000   0.000  -0.000
  105       -0.000  -0.001   0.000  -0.001
  106       -0.000  -0.000   0.000  -0.000
  107        0.000  -0.000   0.000  -0.000
  108        0.000   0.000   0.000   0.000
  109        0.000  -0.000   0.000  -0.000
  110        0.000  -0.000   0.000  -0.000
  111        0.000  -0.000   0.000  -0.000
  112       -0.001  -0.018   0.000  -0.019
  113       -0.000  -0.000   0.000  -0.000
  114       -0.000  -0.000   0.000  -0.000
  115       -0.000  -0.000   0.000  -0.000
  116       -0.000  -0.000   0.000  -0.000
  117        0.000  -0.000   0.000  -0.000
  118       -0.000  -0.000   0.000  -0.000
  119       -0.000  -0.000   0.000  -0.000
  120       -0.000  -0.000   0.000  -0.000
  121       -0.000  -0.000   0.000  -0.000
  122        0.000  -0.000   0.000  -0.000
  123        0.000  -0.000   0.000  -0.000
  124       -0.000  -0.000   0.000  -0.000
  125       -0.000  -0.000   0.000  -0.000
  126       -0.000  -0.000   0.000  -0.000
  127       -0.000  -0.000   0.000  -0.000
  128       -0.000  -0.000   0.000  -0.000
  129        0.000  -0.000   0.000  -0.000
  130        0.000   0.000   0.000   0.000
  131       -0.000  -0.000   0.000  -0.000
  132        0.000   0.000   0.000   0.000
  133       -0.000  -0.000   0.000  -0.000
  134       -0.000   0.002   0.000   0.002
  135        0.000   0.000   0.000   0.000
  136       -0.000  -0.000   0.000  -0.000
  137        0.000   0.000   0.000   0.000
  138        0.000   0.000   0.000   0.000
  139       -0.000   0.002   0.000   0.002
  140       -0.000  -0.000   0.000  -0.000
  141       -0.000  -0.000   0.000  -0.000
  142        0.000   0.000   0.000   0.000
  143        0.000  -0.000   0.000  -0.000
  144        0.000  -0.000   0.000  -0.000
  145       -0.000  -0.000   0.000  -0.000
  146       -0.000   0.000   0.000   0.000
  147       -0.000  -0.000   0.000  -0.000
  148        0.000   0.000   0.000   0.000
  149        0.000  -0.000   0.000  -0.000
  150        0.000  -0.000   0.000  -0.000
  151       -0.000  -0.000   0.000  -0.000
  152       -0.000  -0.000   0.000  -0.000
  153        0.000  -0.000   0.000  -0.000
  154       -0.000   0.000   0.000   0.000
  155        0.000   0.000   0.000   0.000
  156        0.000   0.000   0.000   0.000
  157       -0.000   0.000   0.000   0.000
  158        0.000   0.000   0.000   0.000
  159        0.000   0.000   0.000   0.000
  160        0.000   0.000   0.000   0.000
  161        0.000   0.000   0.000   0.000
  162       -0.000  -0.000   0.000  -0.000
  163       -0.000  -0.000   0.000  -0.000
  164        0.000   0.000   0.000   0.000
  165       -0.000   0.000   0.000   0.000
  166       -0.000  -0.000   0.000  -0.000
  167       -0.000   0.000   0.000   0.000
  168        0.000  -0.000   0.000  -0.000
  169        0.000   0.000   0.000   0.000
  170        0.000   0.000   0.000   0.000
  171        0.000   0.000   0.000   0.000
  172       -0.000  -0.000   0.000  -0.000
  173       -0.000  -0.000   0.000  -0.000
  174       -0.000  -0.000   0.000  -0.000
  175       -0.000   0.002   0.000   0.001
  176       -0.000  -0.000   0.000  -0.000
  177       -0.000   0.000   0.000   0.000
  178        0.000  -0.000   0.000  -0.000
  179        0.000   0.000   0.000   0.000
  180        0.000   0.000   0.000   0.000
  181        0.000   0.000   0.000   0.000
  182        0.000   0.000   0.000   0.000
  183        0.000  -0.000   0.000  -0.000
  184       -0.000  -0.000   0.000  -0.000
  185        0.000   0.000   0.000   0.000
  186       -0.000  -0.000   0.000  -0.000
  187        0.000   0.000   0.000   0.000
  188       -0.000  -0.000   0.000  -0.000
  189        0.000   0.000   0.000   0.000
  190       -0.000  -0.000   0.000  -0.000
  191       -0.000   0.003   0.000   0.002
  192        0.000   0.000   0.000   0.000
  193        0.000  -0.000   0.000  -0.000
  194        0.000   0.000   0.000   0.000
  195        0.000   0.000   0.000   0.000
  196        0.000   0.000   0.000   0.000
  197       -0.000  -0.000   0.000  -0.000
  198        0.000   0.000   0.000   0.000
  199       -0.000  -0.000   0.000  -0.000
  200        0.000   0.000   0.000   0.000
  201       -0.000  -0.000   0.000  -0.000
  202        0.000  -0.000   0.000  -0.000
  203        0.000   0.000   0.000   0.000
  204       -0.000  -0.000   0.000  -0.000
  205       -0.000  -0.000   0.000  -0.000
  206       -0.000  -0.000   0.000  -0.000
  207       -0.000  -0.000   0.000  -0.000
  208        0.000  -0.000   0.000  -0.000
  209        0.000   0.000   0.000   0.000
  210        0.000   0.000   0.000   0.000
  211        0.000   0.000   0.000   0.000
  212        0.000   0.000   0.000   0.000
  213       -0.000  -0.000   0.000  -0.000
  214        0.000   0.000   0.000   0.000
  215       -0.000  -0.000   0.000  -0.000
  216       -0.000  -0.000   0.000  -0.000
  217       -0.000  -0.000   0.000  -0.000
  218       -0.000  -0.000   0.000  -0.000
  219       -0.000  -0.000   0.000  -0.000
  220        0.000   0.000   0.000   0.000
  221        0.000   0.000   0.000   0.000
  222       -0.000  -0.000   0.000  -0.000
  223        0.000   0.000   0.000   0.000
  224       -0.000  -0.000   0.000  -0.000
  225       -0.000  -0.004   0.000  -0.004
  226        0.000   0.000   0.000   0.000
  227       -0.000  -0.000   0.000  -0.000
  228       -0.000  -0.000   0.000  -0.000
  229       -0.000  -0.000   0.000  -0.000
  230       -0.000  -0.000   0.000  -0.000
  231       -0.000  -0.000   0.000  -0.000
  232       -0.000  -0.000   0.000  -0.000
  233       -0.000  -0.000   0.000  -0.000
  234       -0.000  -0.000   0.000  -0.000
  235       -0.000  -0.000   0.000  -0.000
  236        0.000  -0.000   0.000  -0.000
  237        0.000   0.000   0.000   0.000
  238       -0.000  -0.000   0.000  -0.000
  239       -0.000  -0.000   0.000  -0.000
  240       -0.000  -0.000   0.000  -0.000
  241       -0.000   0.000   0.000  -0.000
  242       -0.000  -0.000   0.000  -0.000
  243        0.000   0.000   0.000   0.000
  244       -0.000  -0.000   0.000  -0.000
  245        0.000  -0.000   0.000  -0.000
  246       -0.000  -0.000   0.000  -0.000
  247        0.000   0.000   0.000   0.000
  248       -0.000  -0.000   0.000  -0.000
  249        0.000  -0.000   0.000  -0.000
  250       -0.000  -0.000   0.000  -0.000
  251       -0.000  -0.000   0.000  -0.000
  252       -0.000  -0.000   0.000  -0.000
  253       -0.000  -0.000   0.000  -0.000
  254        0.000  -0.000   0.000  -0.000
  255       -0.000   0.000   0.000   0.000
  256       -0.000  -0.000   0.000  -0.000
  257       -0.000  -0.000   0.000  -0.000
--------------------------------------------------
tot          0.002  -0.013   0.951   0.940
 

 total amount of memory used by VASP MPI-rank0   291501. kBytes
=======================================================================

   base      :      30000. kBytes
   nonlr-proj:      49466. kBytes
   fftplans  :      27976. kBytes
   grid      :      34041. kBytes
   one-center:       1026. kBytes
   wavefun   :     148992. kBytes
 
  
  
 General timing and accounting informations for this job:
 ========================================================
  
                  Total CPU time used (sec):     5023.393
                            User time (sec):     4613.367
                          System time (sec):      410.026
                         Elapsed time (sec):     5064.649
  
                   Maximum memory used (kb):      627328.
                   Average memory used (kb):           0.
  
                          Minor page faults:       448627
                          Major page faults:           23
                 Voluntary context switches:        35733
